   6   6   0   0
  0.4500000E+04  0.3000000E-08  0.3000000E-08  0.3000000E-08  0.0000000E+00
  1.000000000000000E-004
  CAR 
 unknown system                          
      2.02448205    -25.88914799  301     -6.16315264      1.00000000
    -25.889  0.0000E+00  0.0000E+00
    -25.796  0.0000E+00  0.0000E+00
    -25.703  0.0000E+00  0.0000E+00
    -25.610  0.0000E+00  0.0000E+00
    -25.517  0.0000E+00  0.0000E+00
    -25.424  0.0000E+00  0.0000E+00
    -25.331  0.0000E+00  0.0000E+00
    -25.238  0.0000E+00  0.0000E+00
    -25.145  0.0000E+00  0.0000E+00
    -25.052  0.7955E-17  0.7401E-18
    -24.959  0.1404E-14  0.1314E-15
    -24.866  0.1786E-12  0.1675E-13
    -24.773  0.1481E-10  0.1395E-11
    -24.680  0.8030E-09  0.7611E-10
    -24.587  0.2847E-07  0.2725E-08
    -24.493  0.6611E-06  0.6423E-07
    -24.400  0.1006E-04  0.1000E-05
    -24.307  0.1004E-03  0.1034E-04
    -24.214  0.6584E-03  0.7161E-04
    -24.121  0.2838E-02  0.3357E-03
    -24.028  0.8048E-02  0.1084E-02
    -23.935  0.1502E-01  0.2482E-02
    -23.842  0.1847E-01  0.4201E-02
    -23.749  0.1496E-01  0.5593E-02
    -23.656  0.7979E-02  0.6336E-02
    -23.563  0.2802E-02  0.6596E-02
    -23.470  0.6473E-03  0.6657E-02
    -23.377  0.9830E-04  0.6666E-02
    -23.284  0.9804E-05  0.6667E-02
    -23.191  0.6415E-06  0.6667E-02
    -23.098  0.2751E-07  0.6667E-02
    -23.005  0.7725E-09  0.6667E-02
    -22.912  0.1419E-10  0.6667E-02
    -22.819  0.1703E-12  0.6667E-02
    -22.726  0.1328E-14  0.6667E-02
    -22.633  0.7955E-17  0.6667E-02
    -22.540  0.0000E+00  0.6667E-02
    -22.446  0.0000E+00  0.6667E-02
    -22.353  0.0000E+00  0.6667E-02
    -22.260  0.0000E+00  0.6667E-02
    -22.167  0.0000E+00  0.6667E-02
    -22.074  0.0000E+00  0.6667E-02
    -21.981  0.0000E+00  0.6667E-02
    -21.888  0.0000E+00  0.6667E-02
    -21.795  0.0000E+00  0.6667E-02
    -21.702  0.0000E+00  0.6667E-02
    -21.609  0.0000E+00  0.6667E-02
    -21.516  0.0000E+00  0.6667E-02
    -21.423  0.0000E+00  0.6667E-02
    -21.330  0.0000E+00  0.6667E-02
    -21.237  0.0000E+00  0.6667E-02
    -21.144  0.0000E+00  0.6667E-02
    -21.051  0.0000E+00  0.6667E-02
    -20.958  0.0000E+00  0.6667E-02
    -20.865  0.0000E+00  0.6667E-02
    -20.772  0.0000E+00  0.6667E-02
    -20.679  0.0000E+00  0.6667E-02
    -20.586  0.0000E+00  0.6667E-02
    -20.493  0.0000E+00  0.6667E-02
    -20.399  0.2466E-15  0.6667E-02
    -20.306  0.3601E-13  0.6667E-02
    -20.213  0.3453E-11  0.6667E-02
    -20.120  0.2164E-09  0.6667E-02
    -20.027  0.8864E-08  0.6667E-02
    -19.934  0.2377E-06  0.6667E-02
    -19.841  0.4175E-05  0.6667E-02
    -19.748  0.4811E-04  0.6672E-02
    -19.655  0.3639E-03  0.6705E-02
    -19.562  0.1809E-02  0.6874E-02
    -19.469  0.5916E-02  0.7424E-02
    -19.376  0.1273E-01  0.8609E-02
    -19.283  0.1804E-01  0.1029E-01
    -19.190  0.1684E-01  0.1186E-01
    -19.097  0.1036E-01  0.1282E-01
    -19.004  0.4193E-02  0.1321E-01
    -18.911  0.1117E-02  0.1331E-01
    -18.818  0.1957E-03  0.1333E-01
    -18.725  0.2253E-04  0.1333E-01
    -18.632  0.1702E-05  0.1333E-01
    -18.539  0.8427E-07  0.1333E-01
    -18.446  0.2733E-08  0.1333E-01
    -18.352  0.5801E-10  0.1333E-01
    -18.259  0.8049E-12  0.1333E-01
    -18.166  0.7287E-14  0.1333E-01
    -18.073  0.4773E-16  0.1333E-01
    -17.980  0.0000E+00  0.1333E-01
    -17.887  0.0000E+00  0.1333E-01
    -17.794  0.0000E+00  0.1333E-01
    -17.701  0.0000E+00  0.1333E-01
    -17.608  0.0000E+00  0.1333E-01
    -17.515  0.0000E+00  0.1333E-01
    -17.422  0.0000E+00  0.1333E-01
    -17.329  0.0000E+00  0.1333E-01
    -17.236  0.0000E+00  0.1333E-01
    -17.143  0.0000E+00  0.1333E-01
    -17.050  0.0000E+00  0.1333E-01
    -16.957  0.0000E+00  0.1333E-01
    -16.864  0.0000E+00  0.1333E-01
    -16.771  0.0000E+00  0.1333E-01
    -16.678  0.0000E+00  0.1333E-01
    -16.585  0.0000E+00  0.1333E-01
    -16.492  0.0000E+00  0.1333E-01
    -16.399  0.0000E+00  0.1333E-01
    -16.305  0.0000E+00  0.1333E-01
    -16.212  0.0000E+00  0.1333E-01
    -16.119  0.0000E+00  0.1333E-01
    -16.026  0.0000E+00  0.1333E-01
    -15.933  0.0000E+00  0.1333E-01
    -15.840  0.0000E+00  0.1333E-01
    -15.747  0.0000E+00  0.1333E-01
    -15.654  0.0000E+00  0.1333E-01
    -15.561  0.0000E+00  0.1333E-01
    -15.468  0.0000E+00  0.1333E-01
    -15.375  0.0000E+00  0.1333E-01
    -15.282  0.0000E+00  0.1333E-01
    -15.189  0.0000E+00  0.1333E-01
    -15.096  0.0000E+00  0.1333E-01
    -15.003  0.9943E-16  0.1333E-01
    -14.910  0.1550E-13  0.1333E-01
    -14.817  0.1601E-11  0.1333E-01
    -14.724  0.1081E-09  0.1333E-01
    -14.631  0.4770E-08  0.1333E-01
    -14.538  0.1377E-06  0.1333E-01
    -14.445  0.2606E-05  0.1333E-01
    -14.352  0.3232E-04  0.1334E-01
    -14.258  0.2632E-03  0.1336E-01
    -14.165  0.1408E-02  0.1349E-01
    -14.072  0.4954E-02  0.1395E-01
    -13.979  0.1147E-01  0.1502E-01
    -13.886  0.1749E-01  0.1665E-01
    -13.793  0.1757E-01  0.1828E-01
    -13.700  0.1162E-01  0.1936E-01
    -13.607  0.5064E-02  0.1984E-01
    -13.514  0.1452E-02  0.1997E-01
    -13.421  0.2737E-03  0.2000E-01
    -13.328  0.3391E-04  0.2000E-01
    -13.235  0.2758E-05  0.2000E-01
    -13.142  0.1471E-06  0.2000E-01
    -13.049  0.5138E-08  0.2000E-01
    -12.956  0.1175E-09  0.2000E-01
    -12.863  0.1759E-11  0.2000E-01
    -12.770  0.4394E-12  0.2000E-01
    -12.677  0.3447E-10  0.2000E-01
    -12.584  0.1839E-08  0.2000E-01
    -12.491  0.6421E-07  0.2000E-01
    -12.398  0.1468E-05  0.2000E-01
    -12.305  0.2200E-04  0.2000E-01
    -12.211  0.2163E-03  0.2002E-01
    -12.118  0.1397E-02  0.2015E-01
    -12.025  0.5930E-02  0.2070E-01
    -11.932  0.1657E-01  0.2225E-01
    -11.839  0.3048E-01  0.2508E-01
    -11.746  0.3693E-01  0.2852E-01
    -11.653  0.2947E-01  0.3126E-01
    -11.560  0.1550E-01  0.3270E-01
    -11.467  0.5363E-02  0.3320E-01
    -11.374  0.1221E-02  0.3331E-01
    -11.281  0.1829E-03  0.3333E-01
    -11.188  0.1798E-04  0.3333E-01
    -11.095  0.1160E-05  0.3333E-01
    -11.002  0.4906E-07  0.3333E-01
    -10.909  0.1358E-08  0.3333E-01
    -10.816  0.2460E-10  0.3333E-01
    -10.723  0.2912E-12  0.3333E-01
    -10.630  0.2259E-14  0.3333E-01
    -10.537  0.7955E-17  0.3333E-01
    -10.444  0.0000E+00  0.3333E-01
    -10.351  0.0000E+00  0.3333E-01
    -10.258  0.0000E+00  0.3333E-01
    -10.164  0.0000E+00  0.3333E-01
    -10.071  0.0000E+00  0.3333E-01
     -9.978  0.0000E+00  0.3333E-01
     -9.885  0.0000E+00  0.3333E-01
     -9.792  0.0000E+00  0.3333E-01
     -9.699  0.0000E+00  0.3333E-01
     -9.606  0.0000E+00  0.3333E-01
     -9.513  0.0000E+00  0.3333E-01
     -9.420  0.2028E-15  0.3333E-01
     -9.327  0.3198E-13  0.3333E-01
     -9.234  0.3294E-11  0.3333E-01
     -9.141  0.2216E-09  0.3333E-01
     -9.048  0.9749E-08  0.3333E-01
     -8.955  0.2807E-06  0.3333E-01
     -8.862  0.5295E-05  0.3333E-01
     -8.769  0.6550E-04  0.3334E-01
     -8.676  0.5319E-03  0.3339E-01
     -8.583  0.2839E-02  0.3365E-01
     -8.490  0.9964E-02  0.3458E-01
     -8.397  0.2302E-01  0.3672E-01
     -8.304  0.3502E-01  0.3998E-01
     -8.211  0.3510E-01  0.4325E-01
     -8.117  0.2317E-01  0.4540E-01
     -8.024  0.1008E-01  0.4634E-01
     -7.931  0.2883E-02  0.4661E-01
     -7.838  0.5428E-03  0.4666E-01
     -7.745  0.6786E-04  0.4667E-01
     -7.652  0.1641E-04  0.4667E-01
     -7.559  0.1081E-03  0.4668E-01
     -7.466  0.6970E-03  0.4674E-01
     -7.373  0.2961E-02  0.4702E-01
     -7.280  0.8279E-02  0.4779E-01
     -7.187  0.1524E-01  0.4921E-01
     -7.094  0.1847E-01  0.5092E-01
     -7.001  0.1474E-01  0.5230E-01
     -6.908  0.7752E-02  0.5302E-01
     -6.815  0.2683E-02  0.5327E-01
     -6.722  0.6111E-03  0.5332E-01
     -6.629  0.9148E-04  0.5333E-01
     -6.536  0.8993E-05  0.5333E-01
     -6.443  0.5800E-06  0.5333E-01
     -6.350  0.2452E-07  0.5333E-01
     -6.257  0.6785E-09  0.5333E-01
     -6.164  0.1228E-10  0.5333E-01
     -6.070  0.1453E-12  0.5333E-01
     -5.977  0.1130E-14  0.5333E-01
     -5.884  0.0000E+00  0.5333E-01
     -5.791  0.0000E+00  0.5333E-01
     -5.698  0.0000E+00  0.5333E-01
     -5.605  0.0000E+00  0.5333E-01
     -5.512  0.0000E+00  0.5333E-01
     -5.419  0.0000E+00  0.5333E-01
     -5.326  0.0000E+00  0.5333E-01
     -5.233  0.0000E+00  0.5333E-01
     -5.140  0.0000E+00  0.5333E-01
     -5.047  0.0000E+00  0.5333E-01
     -4.954  0.0000E+00  0.5333E-01
     -4.861  0.0000E+00  0.5333E-01
     -4.768  0.0000E+00  0.5333E-01
     -4.675  0.0000E+00  0.5333E-01
     -4.582  0.0000E+00  0.5333E-01
     -4.489  0.0000E+00  0.5333E-01
     -4.396  0.0000E+00  0.5333E-01
     -4.303  0.0000E+00  0.5333E-01
     -4.210  0.0000E+00  0.5333E-01
     -4.117  0.0000E+00  0.5333E-01
     -4.023  0.0000E+00  0.5333E-01
     -3.930  0.0000E+00  0.5333E-01
     -3.837  0.0000E+00  0.5333E-01
     -3.744  0.0000E+00  0.5333E-01
     -3.651  0.0000E+00  0.5333E-01
     -3.558  0.0000E+00  0.5333E-01
     -3.465  0.0000E+00  0.5333E-01
     -3.372  0.0000E+00  0.5333E-01
     -3.279  0.0000E+00  0.5333E-01
     -3.186  0.0000E+00  0.5333E-01
     -3.093  0.0000E+00  0.5333E-01
     -3.000  0.0000E+00  0.5333E-01
     -2.907  0.0000E+00  0.5333E-01
     -2.814  0.0000E+00  0.5333E-01
     -2.721  0.0000E+00  0.5333E-01
     -2.628  0.0000E+00  0.5333E-01
     -2.535  0.0000E+00  0.5333E-01
     -2.442  0.0000E+00  0.5333E-01
     -2.349  0.0000E+00  0.5333E-01
     -2.256  0.0000E+00  0.5333E-01
     -2.163  0.0000E+00  0.5333E-01
     -2.070  0.0000E+00  0.5333E-01
     -1.976  0.0000E+00  0.5333E-01
     -1.883  0.9943E-16  0.5333E-01
     -1.790  0.1568E-13  0.5333E-01
     -1.697  0.1626E-11  0.5333E-01
     -1.604  0.1104E-09  0.5333E-01
     -1.511  0.4922E-08  0.5333E-01
     -1.418  0.1444E-06  0.5333E-01
     -1.325  0.2803E-05  0.5333E-01
     -1.232  0.3617E-04  0.5334E-01
     -1.139  0.3129E-03  0.5337E-01
     -1.046  0.1831E-02  0.5354E-01
     -0.953  0.7323E-02  0.5422E-01
     -0.860  0.2021E-01  0.5610E-01
     -0.767  0.3874E-01  0.5970E-01
     -0.674  0.5159E-01  0.6450E-01
     -0.581  0.4751E-01  0.6892E-01
     -0.488  0.3001E-01  0.7172E-01
     -0.395  0.1297E-01  0.7292E-01
     -0.302  0.4363E-02  0.7333E-01
     -0.209  0.3525E-02  0.7366E-01
     -0.116  0.8085E-02  0.7441E-01
     -0.023  0.1498E-01  0.7580E-01
      0.071  0.1847E-01  0.7752E-01
      0.164  0.1501E-01  0.7892E-01
      0.257  0.8034E-02  0.7967E-01
      0.350  0.2831E-02  0.7993E-01
      0.443  0.6561E-03  0.7999E-01
      0.536  0.9998E-04  0.8000E-01
      0.629  0.1001E-04  0.8000E-01
      0.722  0.6570E-06  0.8000E-01
      0.815  0.2827E-07  0.8000E-01
      0.908  0.7966E-09  0.8000E-01
      1.001  0.1468E-10  0.8000E-01
      1.094  0.1768E-12  0.8000E-01
      1.187  0.1390E-14  0.8000E-01
      1.280  0.7955E-17  0.8000E-01
      1.373  0.0000E+00  0.8000E-01
      1.466  0.0000E+00  0.8000E-01
      1.559  0.0000E+00  0.8000E-01
      1.652  0.0000E+00  0.8000E-01
      1.745  0.0000E+00  0.8000E-01
      1.838  0.0000E+00  0.8000E-01
      1.931  0.0000E+00  0.8000E-01
      2.024  0.0000E+00  0.8000E-01
