    6    6  300    1
  0.4500000E+04  0.3000000E-08  0.3000000E-08  0.3000000E-08  0.0000000E+00
  1.000000000000000E-004
  CAR 
 unknown system                          
     16      4     12
 
  0.2500000E+00  0.2500000E+00  0.2500000E+00  0.2500000E+00
    1      -23.889147   1.000000
    2      -19.298253   1.000000
    3      -13.885315   1.000000
    4      -11.798680   1.000000
    5      -11.794309   1.000000
    6       -8.305305   1.000000
    7       -8.300821   1.000000
    8       -7.144153   1.000000
    9       -0.766005   0.000000
   10       -0.664369   0.000000
   11       -0.659425   0.000000
   12        0.024226   0.000000
 
 -0.2500000E+00  0.2500000E+00  0.2500000E+00  0.2500000E+00
    1      -23.889148   1.000000
    2      -19.298251   1.000000
    3      -13.885318   1.000000
    4      -11.798680   1.000000
    5      -11.794313   1.000000
    6       -8.305320   1.000000
    7       -8.300818   1.000000
    8       -7.144152   1.000000
    9       -0.766006   0.000000
   10       -0.664365   0.000000
   11       -0.659422   0.000000
   12        0.024482   0.000000
 
  0.2500000E+00 -0.2500000E+00  0.2500000E+00  0.2500000E+00
    1      -23.889147   1.000000
    2      -19.298250   1.000000
    3      -13.885315   1.000000
    4      -11.798685   1.000000
    5      -11.794307   1.000000
    6       -8.305310   1.000000
    7       -8.300808   1.000000
    8       -7.144151   1.000000
    9       -0.766005   0.000000
   10       -0.664383   0.000000
   11       -0.659415   0.000000
   12        0.024409   0.000000
 
 -0.2500000E+00 -0.2500000E+00  0.2500000E+00  0.2500000E+00
    1      -23.889148   1.000000
    2      -19.298250   1.000000
    3      -13.885319   1.000000
    4      -11.798681   1.000000
    5      -11.794309   1.000000
    6       -8.305313   1.000000
    7       -8.300814   1.000000
    8       -7.144154   1.000000
    9       -0.766005   0.000000
   10       -0.664373   0.000000
   11       -0.659414   0.000000
   12        0.024021   0.000000
