 vasp.5.4.1 24Jun15 (build Jan 13 2020 12:58:22) complex                        
  
 executed on           IFC91_ompi date 2020.02.05  18:18:08
 running on   15 total cores
 each image running on    1 cores
 distrk:  each k-point on    1 cores,    1 groups
 distr:  one band on NCORES_PER_BAND=   1 cores,    1 groups


--------------------------------------------------------------------------------------------------------


 INCAR:
 POTCAR:    PAW_PBE H 15Jun2001                   
 POTCAR:    PAW_PBE C 08Apr2002                   
 POTCAR:    PAW_PBE N 08Apr2002                   
 POTCAR:    PAW_PBE H 15Jun2001                   
   VRHFIN =H: ultrasoft test                                                    
   LEXCH  = PE                                                                  
   EATOM  =    12.4884 eV,    0.9179 Ry                                         
                                                                                
   TITEL  = PAW_PBE H 15Jun2001                                                 
   LULTRA =        F    use ultrasoft PP ?                                      
   IUNSCR =        0    unscreen: 0-lin 1-nonlin 2-no                           
   RPACOR =    0.000    partial core radius                                     
   POMASS =    1.000; ZVAL   =    1.000    mass and valenz                      
   RCORE  =    1.100    outmost cutoff radius                                   
   RWIGS  =    0.700; RWIGS  =    0.370    wigner-seitz radius (au A)           
   ENMAX  =  250.000; ENMIN  =  200.000 eV                                      
   RCLOC  =    0.701    cutoff for local pot                                    
   LCOR   =        T    correct aug charges                                     
   LPAW   =        T    paw PP                                                  
   EAUG   =  400.000                                                            
   RMAX   =    1.123    core radius for proj-oper                               
   RAUG   =    1.200    factor for augmentation sphere                          
   RDEP   =    1.112    radius for radial grids                                 
   RDEPT  =    0.926    core radius for aug-charge                              
                                                                                
   Atomic configuration                                                         
    2 entries                                                                   
     n  l   j            E        occ.                                          
     1  0  0.50        -6.4927   1.0000                                         
     2  1  0.50        -3.4015   0.0000                                         
   Description                                                                  
     l       E           TYP  RCUT    TYP  RCUT                                 
     0     -6.4927494     23  1.100                                             
     0      6.8029130     23  1.100                                             
     1     -4.0817478     23  1.100                                             
  local pseudopotential read in
  atomic valenz-charges read in
  non local Contribution for L=           0  read in
    real space projection operators read in
  non local Contribution for L=           0  read in
    real space projection operators read in
  non local Contribution for L=           1  read in
    real space projection operators read in
    PAW grid and wavefunctions read in
 
   number of l-projection  operators is LMAX  =           3
   number of lm-projection operators is LMMAX =           5
 
 POTCAR:    PAW_PBE C 08Apr2002                   
   VRHFIN =C: s2p2                                                              
   LEXCH  = PE                                                                  
   EATOM  =   147.1560 eV,   10.8157 Ry                                         
                                                                                
   TITEL  = PAW_PBE C 08Apr2002                                                 
   LULTRA =        F    use ultrasoft PP ?                                      
   IUNSCR =        1    unscreen: 0-lin 1-nonlin 2-no                           
   RPACOR =    1.200    partial core radius                                     
   POMASS =   12.011; ZVAL   =    4.000    mass and valenz                      
   RCORE  =    1.500    outmost cutoff radius                                   
   RWIGS  =    1.630; RWIGS  =    0.863    wigner-seitz radius (au A)           
   ENMAX  =  400.000; ENMIN  =  300.000 eV                                      
   ICORE  =        2    local potential                                         
   LCOR   =        T    correct aug charges                                     
   LPAW   =        T    paw PP                                                  
   EAUG   =  644.873                                                            
   DEXC   =    0.000                                                            
   RMAX   =    1.529    core radius for proj-oper                               
   RAUG   =    1.300    factor for augmentation sphere                          
   RDEP   =    1.501    radius for radial grids                                 
   RDEPT  =    1.300    core radius for aug-charge                              
                                                                                
   Atomic configuration                                                         
    4 entries                                                                   
     n  l   j            E        occ.                                          
     1  0  0.50      -273.3789   2.0000                                         
     2  0  0.50       -13.7508   2.0000                                         
     2  1  0.50        -5.2854   2.0000                                         
     3  2  1.50        -5.4423   0.0000                                         
   Description                                                                  
     l       E           TYP  RCUT    TYP  RCUT                                 
     0    -13.7508458     23  1.200                                             
     0     -8.2022199     23  1.200                                             
     1     -5.2854383     23  1.500                                             
     1     34.0145650     23  1.500                                             
     2     -5.4423304      7  1.500                                             
  local pseudopotential read in
  partial core-charges read in
  partial kinetic energy density read in
  atomic valenz-charges read in
  non local Contribution for L=           0  read in
    real space projection operators read in
  non local Contribution for L=           0  read in
    real space projection operators read in
  non local Contribution for L=           1  read in
    real space projection operators read in
  non local Contribution for L=           1  read in
    real space projection operators read in
    PAW grid and wavefunctions read in
 
   number of l-projection  operators is LMAX  =           4
   number of lm-projection operators is LMMAX =           8
 
 POTCAR:    PAW_PBE N 08Apr2002                   
   VRHFIN =N: s2p3                                                              
   LEXCH  = PE                                                                  
   EATOM  =   264.5486 eV,   19.4438 Ry                                         
                                                                                
   TITEL  = PAW_PBE N 08Apr2002                                                 
   LULTRA =        F    use ultrasoft PP ?                                      
   IUNSCR =        1    unscreen: 0-lin 1-nonlin 2-no                           
   RPACOR =    1.200    partial core radius                                     
   POMASS =   14.001; ZVAL   =    5.000    mass and valenz                      
   RCORE  =    1.500    outmost cutoff radius                                   
   RWIGS  =    1.400; RWIGS  =    0.741    wigner-seitz radius (au A)           
   ENMAX  =  400.000; ENMIN  =  300.000 eV                                      
   ICORE  =        2    local potential                                         
   LCOR   =        T    correct aug charges                                     
   LPAW   =        T    paw PP                                                  
   EAUG   =  627.112                                                            
   DEXC   =    0.000                                                            
   RMAX   =    1.529    core radius for proj-oper                               
   RAUG   =    1.300    factor for augmentation sphere                          
   RDEP   =    1.514    radius for radial grids                                 
   RDEPT  =    1.338    core radius for aug-charge                              
                                                                                
   Atomic configuration                                                         
    4 entries                                                                   
     n  l   j            E        occ.                                          
     1  0  0.50      -384.7179   2.0000                                         
     2  0  0.50       -18.5828   2.0000                                         
     2  1  0.50        -7.0898   3.0000                                         
     3  2  1.50        -6.8029   0.0000                                         
   Description                                                                  
     l       E           TYP  RCUT    TYP  RCUT                                 
     0    -18.5828119     23  1.200                                             
     0    -13.5018863     23  1.200                                             
     1     -7.0897853     23  1.500                                             
     1      9.5240782     23  1.500                                             
     2     -6.8029130      7  1.500                                             
  local pseudopotential read in
  partial core-charges read in
  partial kinetic energy density read in
  atomic valenz-charges read in
  non local Contribution for L=           0  read in
    real space projection operators read in
  non local Contribution for L=           0  read in
    real space projection operators read in
  non local Contribution for L=           1  read in
    real space projection operators read in
  non local Contribution for L=           1  read in
    real space projection operators read in
    PAW grid and wavefunctions read in
 
   number of l-projection  operators is LMAX  =           4
   number of lm-projection operators is LMMAX =           8
 

 ----------------------------------------------------------------------------- 
|                                                                             |
|  ADVICE TO THIS USER RUNNING 'VASP/VAMP'   (HEAR YOUR MASTER'S VOICE ...):  |
|                                                                             |
|      You have a (more or less) 'small supercell' and for smaller cells      |
|      it is recommended  to use the reciprocal-space projection scheme!      |
|      The real space optimization is not  efficient for small cells and it   |
|      is also less accurate ...                                              |
|      Therefore set LREAL=.FALSE. in the  INCAR file                         |
|                                                                             |
 ----------------------------------------------------------------------------- 

 Optimization of the real space projectors (new method)

 maximal supplied QI-value         = 34.20
 optimisation between [QCUT,QGAM] = [  9.92, 20.18] = [ 27.55,114.04] Ry 
 Optimized for a Real-space Cutoff    1.26 Angstroem

   l    n(q)    QCUT    max X(q) W(low)/X(q) W(high)/X(q)  e(spline) 
   0      8     9.919    19.460    0.50E-03    0.23E-03    0.29E-06
   0      8     9.919    12.209    0.48E-03    0.23E-03    0.28E-06
   1      7     9.919     4.655    0.17E-03    0.75E-03    0.30E-06
 Optimization of the real space projectors (new method)

 maximal supplied QI-value         = 25.13
 optimisation between [QCUT,QGAM] = [ 10.05, 20.36] = [ 28.30,116.06] Ry 
 Optimized for a Real-space Cutoff    1.30 Angstroem

   l    n(q)    QCUT    max X(q) W(low)/X(q) W(high)/X(q)  e(spline) 
   0      8    10.053   115.676    0.49E-03    0.72E-03    0.18E-06
   0      8    10.053    87.132    0.49E-03    0.71E-03    0.18E-06
   1      7    10.053     4.429    0.32E-03    0.31E-03    0.18E-06
   1      7    10.053     2.733    0.23E-03    0.19E-03    0.20E-06
 Optimization of the real space projectors (new method)

 maximal supplied QI-value         = 25.13
 optimisation between [QCUT,QGAM] = [ 10.05, 20.36] = [ 28.30,116.06] Ry 
 Optimized for a Real-space Cutoff    1.65 Angstroem

   l    n(q)    QCUT    max X(q) W(low)/X(q) W(high)/X(q)  e(spline) 
   0     10    10.053    79.467    0.76E-04    0.72E-04    0.56E-06
   0     10    10.053    66.151    0.76E-04    0.72E-04    0.55E-06
   1     10    10.053     8.350    0.25E-03    0.92E-03    0.41E-05
   1     10    10.053     5.531    0.27E-03    0.10E-02    0.45E-05
  PAW_PBE H 15Jun2001                   :
 energy of atom  1       EATOM=  -12.4884
 kinetic energy error for atom=    0.0098 (will be added to EATOM!!)
  PAW_PBE C 08Apr2002                   :
 energy of atom  2       EATOM= -147.1560
 kinetic energy error for atom=    0.0288 (will be added to EATOM!!)
  PAW_PBE N 08Apr2002                   :
 energy of atom  3       EATOM= -264.5486
 kinetic energy error for atom=    0.0736 (will be added to EATOM!!)
 
 
 POSCAR: H3 C2 N1                                
  positions in direct lattice
  velocities in cartesian coordinates
 exchange correlation table for  LEXCH =        8
   RHO(1)=    0.500       N(1)  =     2000
   RHO(2)=  100.500       N(2)  =     4000

 VTST: version 3.2, (02/03/18)

 CHAIN: initializing optimizer
 
 OPT: Using FIRE optimizer
 OPT: FIRE, Init
 OPT: FIRE, MAXMOVE       0.20000
 OPT: FIRE, TIMESTEP      0.10000
 OPT: FIRE, FTIMEMAX      1.00000
 OPT: FIRE, FTIMEINC      1.10000
 OPT: FIRE, FTIMEDEC      0.50000
 OPT: FIRE, FALPHADEC     0.99000
 OPT: FIRE, FALPHA        0.10000
 OPT: FIRE, FNMIN         5
 
 CHAIN: Read ICHAIN            0
 CHAIN: Running the NEB
 NEB:          SPRING     -5.000000
 NEB:          LCLIMB      T
 NEB:     LTANGENTOLD      F
 NEB:           LDNEB      F
 NEB:        LDNEBORG      F
 NEB:        LNEBCELL      F
 NEB:          EFIRST      0.000000
 NEB:           ELAST      0.000000
 
 POSCAR: H3 C2 N1                                
  positions in direct lattice
  No initial velocities read in
 
 POSCAR: H3 C2 N1                                
  positions in direct lattice
  No initial velocities read in
 


--------------------------------------------------------------------------------------------------------


 ion  position               nearest neighbor table
   1  0.486  0.463  0.524-   4 1.10
   2  0.467  0.489  0.473-   4 1.10
   3  0.469  0.520  0.524-   4 1.10
   4  0.486  0.494  0.504-   3 1.10   1 1.10   2 1.10   6 1.42
   5  0.568  0.517  0.487-   6 1.18
   6  0.530  0.507  0.495-   5 1.18   4 1.42
 
  LATTYP: Found a simple cubic cell.
 ALAT       =    30.0000000000
  
  Lattice vectors:
  
 A1 = (  30.0000000000,   0.0000000000,   0.0000000000)
 A2 = (   0.0000000000,  30.0000000000,   0.0000000000)
 A3 = (   0.0000000000,   0.0000000000,  30.0000000000)


Analysis of symmetry for initial positions (statically):
=====================================================================
 Subroutine PRICEL returns:
 Original cell was already a primitive cell.
 

 Routine SETGRP: Setting up the symmetry group for a 
 simple cubic supercell.


 Subroutine GETGRP returns: Found  1 space group operations
 (whereof  1 operations were pure point group operations)
 out of a pool of 48 trial point group operations.


The static configuration has the point symmetry C_1 .


Analysis of symmetry for dynamics (positions and initial velocities):
=====================================================================
 Subroutine PRICEL returns:
 Original cell was already a primitive cell.
 

 Routine SETGRP: Setting up the symmetry group for a 
 simple cubic supercell.


 Subroutine GETGRP returns: Found  1 space group operations
 (whereof  1 operations were pure point group operations)
 out of a pool of 48 trial point group operations.


The dynamic configuration has the point symmetry C_1 .
 
 
 KPOINTS: Mo2C                                    

Automatic generation of k-mesh.
Space group operators:
 irot       det(A)        alpha          n_x          n_y          n_z        tau_x        tau_y        tau_z
    1     1.000000     0.000000     1.000000     0.000000     0.000000     0.000000     0.000000     0.000000
 
 Subroutine IBZKPT returns following result:
 ===========================================
 
 Found      4 irreducible k-points:
 
 Following reciprocal coordinates:
            Coordinates               Weight
  0.250000  0.250000  0.250000      2.000000
 -0.250000  0.250000  0.250000      2.000000
  0.250000 -0.250000  0.250000      2.000000
 -0.250000 -0.250000  0.250000      2.000000
 
 Following cartesian coordinates:
            Coordinates               Weight
  0.008333  0.008333  0.008333      2.000000
 -0.008333  0.008333  0.008333      2.000000
  0.008333 -0.008333  0.008333      2.000000
 -0.008333 -0.008333  0.008333      2.000000
 


--------------------------------------------------------------------------------------------------------




 Dimension of arrays:
   k-points           NKPTS =      4   k-points in BZ     NKDIM =      4   number of bands    NBANDS=     12
   number of dos      NEDOS =    301   number of ions     NIONS =      6
   non local maximal  LDIM  =      4   non local SUM 2l+1 LMDIM =      8
   total plane-waves  NPLWV = ******
   max r-space proj   IRMAX =   2395   max aug-charges    IRDMAX=   1738
   dimension x,y,z NGX =   150 NGY =  150 NGZ =  150
   dimension x,y,z NGXF=   300 NGYF=  300 NGZF=  300
   support grid    NGXF=   300 NGYF=  300 NGZF=  300
   ions per type =               3   2   1
 NGX,Y,Z   is equivalent  to a cutoff of   8.31,  8.31,  8.31 a.u.
 NGXF,Y,Z  is equivalent  to a cutoff of  16.62, 16.62, 16.62 a.u.


 I would recommend the setting:
   dimension x,y,z NGX =   147 NGY =  147 NGZ =  147
 SYSTEM =  unknown system                          
 POSCAR =  H3 C2 N1                                

 Startparameter for this run:
   NWRITE =      2    write-flag & timer
   PREC   = normal    normal or accurate (medium, high low for compatibility)
   ISTART =      0    job   : 0-new  1-cont  2-samecut
   ICHARG =      2    charge: 1-file 2-atom 10-const
   ISPIN  =      1    spin polarized calculation?
   LNONCOLLINEAR =      F non collinear calculations
   LSORBIT =      F    spin-orbit coupling
   INIWAV =      1    electr: 0-lowe 1-rand  2-diag
   LASPH  =      F    aspherical Exc in radial PAW
   METAGGA=      F    non-selfconsistent MetaGGA calc.

 Electronic Relaxation 1
   ENCUT  =  400.0 eV  29.40 Ry    5.42 a.u.  48.92 48.92 48.92*2*pi/ulx,y,z
   ENINI  =  400.0     initial cutoff
   ENAUG  =  644.9 eV  augmentation charge cutoff
   NELM   =    500;   NELMIN=  6; NELMDL= -5     # of ELM steps 
   EDIFF  = 0.1E-03   stopping-criterion for ELM
   LREAL  =      T    real-space projection
   NLSPLINE    = F    spline interpolate recip. space projectors
   LCOMPAT=      F    compatible to vasp.4.4
   GGA_COMPAT  = T    GGA compatible to vasp.4.4-vasp.4.6
   LMAXPAW     = -100 max onsite density
   LMAXMIX     =    2 max onsite mixed and CHGCAR
   VOSKOWN=      0    Vosko Wilk Nusair interpolation
   ROPT   =   -0.00050  -0.00050  -0.00050
 Ionic relaxation
   EDIFFG = -.1E+00   stopping-criterion for IOM
   NSW    =    300    number of steps for IOM
   NBLOCK =      1;   KBLOCK =    300    inner block; outer block 
   IBRION =      3    ionic relax: 0-MD 1-quasi-New 2-CG
   NFREE  =      0    steps in history (QN), initial steepest desc. (CG)
   ISIF   =      2    stress and relaxation
   IWAVPR =     11    prediction:  0-non 1-charg 2-wave 3-comb
   ISYM   =      2    0-nonsym 1-usesym 2-fastsym
   LCORR  =      T    Harris-Foulkes like correction to forces

   POTIM  = 0.0000    time-step for ionic-motion
   TEIN   =    0.0    initial temperature
   TEBEG  =    0.0;   TEEND  =   0.0 temperature during run
   SMASS  =   2.00    Nose mass-parameter (am)
   estimated Nose-frequenzy (Omega)   =  0.12E+10 period in steps =  0.00 mass=   0.137E-25a.u.
   SCALEE = 1.0000    scale energy and forces
   NPACO  =    256;   APACO  = 16.0  distance and # of slots for P.C.
   PSTRESS=    0.0 pullay stress

  Mass of Ions in am
   POMASS =   1.00 12.01 14.00
  Ionic Valenz
   ZVAL   =   1.00  4.00  5.00
  Atomic Wigner-Seitz radii
   RWIGS  =  -1.00 -1.00 -1.00
  virtual crystal weights 
   VCA    =   1.00  1.00  1.00
   NELECT =      16.0000    total number of electrons
   NUPDOWN=      -1.0000    fix difference up-down

 DOS related values:
   EMIN   =  10.00;   EMAX   =-10.00  energy-range for DOS
   EFERMI =   0.00
   ISMEAR =     0;   SIGMA  =   0.20  broadening in eV -4-tet -1-fermi 0-gaus

 Electronic relaxation 2 (details)
   IALGO  =     38    algorithm
   LDIAG  =      T    sub-space diagonalisation (order eigenvalues)
   LSUBROT=      F    optimize rotation matrix (better conditioning)
   TURBO    =      0    0=normal 1=particle mesh
   IRESTART =      0    0=no restart 2=restart with 2 vectors
   NREBOOT  =      0    no. of reboots
   NMIN     =      0    reboot dimension
   EREF     =   0.00    reference energy to select bands
   IMIX   =      4    mixing-type and parameters
     AMIX     =   0.40;   BMIX     =  1.00
     AMIX_MAG =   1.60;   BMIX_MAG =  1.00
     AMIN     =   0.10
     WC   =   100.;   INIMIX=   1;  MIXPRE=   1;  MAXMIX= -45

 Intra band minimization:
   WEIMIN = 0.0010     energy-eigenvalue tresh-hold
   EBREAK =  0.21E-05  absolut break condition
   DEPER  =   0.30     relativ break condition  

   TIME   =   0.40     timestep for ELM

  volume/ion in A,a.u.               =    4500.00     30367.50
  Fermi-wavevector in a.u.,A,eV,Ry     =   0.137508  0.259852  0.257264  0.018908
  Thomas-Fermi vector in A             =   0.790710
 
 Write flags
   LWAVE  =      F    write WAVECAR
   LCHARG =      F    write CHGCAR
   LVTOT  =      F    write LOCPOT, total local potential
   LVHAR  =      F    write LOCPOT, Hartree potential only
   LELF   =      F    write electronic localiz. function (ELF)
   LORBIT =      0    0 simple, 1 ext, 2 COOP (PROOUT)


 Dipole corrections
   LMONO  =      F    monopole corrections only (constant potential shift)
   LDIPOL =      F    correct potential (dipole corrections)
   IDIPOL =      0    1-x, 2-y, 3-z, 4-all directions 
   EPSILON=  1.0000000 bulk dielectric constant

 Exchange correlation treatment:
   GGA     =    PE    GGA type
   LEXCH   =     8    internal setting for exchange type
   VOSKOWN=      0    Vosko Wilk Nusair interpolation
   LHFCALC =     F    Hartree Fock is set to
   LHFONE  =     F    Hartree Fock one center treatment
   AEXX    =    0.0000 exact exchange contribution

 Linear response parameters
   LEPSILON=     F    determine dielectric tensor
   LRPA    =     F    only Hartree local field effects (RPA)
   LNABLA  =     F    use nabla operator in PAW spheres
   LVEL    =     F    velocity operator in full k-point grid
   LINTERFAST=   F  fast interpolation
   KINTER  =     0    interpolate to denser k-point grid
   CSHIFT  =0.1000    complex shift for real part using Kramers Kronig
   OMEGAMAX=  -1.0    maximum frequency
   DEG_THRESHOLD= 0.2000000E-02 threshold for treating states as degnerate
   RTIME   =    0.100 relaxation time in fs

 Orbital magnetization related:
   ORBITALMAG=     F  switch on orbital magnetization
   LCHIMAG   =     F  perturbation theory with respect to B field
   DQ        =  0.001000  dq finite difference perturbation B field



--------------------------------------------------------------------------------------------------------


 quickmin algorithm: (dynamic with friction)
 charge density and potential will be updated during run
 non-spin polarized calculation
 Variant of blocked Davidson
 Davidson routine will perform the subspace rotation
 perform sub-space diagonalisation
    after iterative eigenvector-optimisation
 modified Broyden-mixing scheme, WC =      100.0
 initial mixing is a Kerker type mixing with AMIX =  0.4000 and BMIX =      1.0000
 Hartree-type preconditioning will be used
 using additional bands            4
 real space projection scheme for non local part
 use partial core corrections
 calculate Harris-corrections to forces 
   (improved forces if not selfconsistent)
 use gradient corrections 
 use of overlap-Matrix (Vanderbilt PP)
 Gauss-broadening in eV      SIGMA  =   0.20


--------------------------------------------------------------------------------------------------------


  energy-cutoff  :      400.00
  volume of cell :    27000.00
      direct lattice vectors                 reciprocal lattice vectors
    30.000000000  0.000000000  0.000000000     0.033333333  0.000000000  0.000000000
     0.000000000 30.000000000  0.000000000     0.000000000  0.033333333  0.000000000
     0.000000000  0.000000000 30.000000000     0.000000000  0.000000000  0.033333333

  length of vectors
    30.000000000 30.000000000 30.000000000     0.033333333  0.033333333  0.033333333


 
 k-points in units of 2pi/SCALE and weight: Mo2C                                    
   0.00833333  0.00833333  0.00833333       0.250
  -0.00833333  0.00833333  0.00833333       0.250
   0.00833333 -0.00833333  0.00833333       0.250
  -0.00833333 -0.00833333  0.00833333       0.250
 
 k-points in reciprocal lattice and weights: Mo2C                                    
   0.25000000  0.25000000  0.25000000       0.250
  -0.25000000  0.25000000  0.25000000       0.250
   0.25000000 -0.25000000  0.25000000       0.250
  -0.25000000 -0.25000000  0.25000000       0.250
 
 position of ions in fractional coordinates (direct lattice) 
   0.48595339  0.46278454  0.52365058
   0.46699561  0.48890557  0.47305447
   0.46890830  0.52021530  0.52400648
   0.48567672  0.49407075  0.50432432
   0.56766105  0.51690686  0.48695927
   0.53027673  0.50721199  0.49474839
 
 position of ions in cartesian coordinates  (Angst):
  14.57860184 13.88353612 15.70951750
  14.00986832 14.66716695 14.19163416
  14.06724890 15.60645891 15.72019444
  14.57030161 14.82212249 15.12972974
  17.02983163 15.50720585 14.60877804
  15.90830179 15.21635972 14.84245171
 


--------------------------------------------------------------------------------------------------------


 k-point  1 :   0.2500 0.2500 0.2500  plane waves:  490454
 k-point  2 :  -0.2500 0.2500 0.2500  plane waves:  490454
 k-point  3 :   0.2500-0.2500 0.2500  plane waves:  490454
 k-point  4 :  -0.2500-0.2500 0.2500  plane waves:  490454

 maximum and minimum number of plane-waves per node :    490454   490454

 maximum number of plane-waves:    490454
 maximum index in each direction: 
   IXMAX=   49   IYMAX=   49   IZMAX=   48
   IXMIN=  -49   IYMIN=  -49   IZMIN=  -49

 WARNING: aliasing errors must be expected set NGX to 198 to avoid them
 WARNING: aliasing errors must be expected set NGY to 198 to avoid them
 WARNING: aliasing errors must be expected set NGZ to 196 to avoid them
 aliasing errors are usually negligible using standard VASP settings
 and one can safely disregard these warnings

 serial   3D FFT for wavefunctions
 parallel 3D FFT for charge:
    minimum data exchange during FFTs selected (reduces bandwidth)


 total amount of memory used by VASP on root node  3203888. kBytes
========================================================================

   base      :      30000. kBytes
   nonlr-proj:        692. kBytes
   fftplans  :     924480. kBytes
   grid      :    1872000. kBytes
   one-center:         18. kBytes
   wavefun   :     376698. kBytes
 
     INWAV:  cpu time    0.0010: real time    0.0005
 Broyden mixing: mesh for mixing (old mesh)
   NGX = 97   NGY = 97   NGZ = 97
  (NGX  =300   NGY  =300   NGZ  =300)
  gives a total of 912673 points

 initial charge density was supplied:
 charge density of overlapping atoms calculated
 number of electron      16.0000000 magnetization 
 keeping initial charge density in first step


--------------------------------------------------------------------------------------------------------


 Maximum index for non-local projection operator         2269
 Maximum index for augmentation-charges         1494 (set IRDMAX)


--------------------------------------------------------------------------------------------------------


 First call to EWALD:  gamma=   0.059
 Maximum number of real-space cells 3x 3x 3
 Maximum number of reciprocal cells 3x 3x 3

 FEWALD executed in parallel
    FEWALD:  cpu time    0.0020: real time    0.0027


----------------------------------------- Iteration    1(   1)  ---------------------------------------


    POTLOK:  cpu time   30.2714: real time   30.3370
    SETDIJ:  cpu time    0.0060: real time    0.0065
     EDDAV:  cpu time  139.4488: real time  139.7593
       DOS:  cpu time    0.0000: real time    0.0003
    --------------------------------------------
      LOOP:  cpu time  169.7322: real time  170.1095

 eigenvalue-minimisations  :   160
 total energy-change (2. order) : 0.1123393E+03  (-0.2143618E+03)
 number of electron      16.0000000 magnetization 
 augmentation part       16.0000000 magnetization 

 Free energy of the ion-electron system (eV)
  ---------------------------------------------------
  alpha Z        PSCENC =         0.04144063
  Ewald energy   TEWEN  =       699.82272266
  -Hartree energ DENC   =     -1114.99415648
  -exchange      EXHF   =         0.00000000
  -V(xc)+E(xc)   XCENC  =        51.37038559
  PAW double counting   =       428.37890668     -430.73533574
  entropy T*S    EENTRO =        -0.18702571
  eigenvalues    EBANDS =      -117.52293974
  atomic energy  EATOM  =       596.16534815
  Solvation  Ediel_sol  =         0.00000000
  ---------------------------------------------------
  free energy    TOTEN  =       112.33934604 eV

  energy without entropy =      112.52637175  energy(sigma->0) =      112.43285889


--------------------------------------------------------------------------------------------------------




----------------------------------------- Iteration    1(   2)  ---------------------------------------


     EDDAV:  cpu time  162.4203: real time  162.7793
       DOS:  cpu time    0.0000: real time    0.0002
    --------------------------------------------
      LOOP:  cpu time  162.4223: real time  162.7842

 eigenvalue-minimisations  :   192
 total energy-change (2. order) :-0.1137374E+03  (-0.1115670E+03)
 number of electron      16.0000000 magnetization 
 augmentation part       16.0000000 magnetization 

 Free energy of the ion-electron system (eV)
  ---------------------------------------------------
  alpha Z        PSCENC =         0.04144063
  Ewald energy   TEWEN  =       699.82272266
  -Hartree energ DENC   =     -1114.99415648
  -exchange      EXHF   =         0.00000000
  -V(xc)+E(xc)   XCENC  =        51.37038559
  PAW double counting   =       428.37890668     -430.73533574
  entropy T*S    EENTRO =        -0.00000044
  eigenvalues    EBANDS =      -231.44733811
  atomic energy  EATOM  =       596.16534815
  Solvation  Ediel_sol  =         0.00000000
  ---------------------------------------------------
  free energy    TOTEN  =        -1.39802706 eV

  energy without entropy =       -1.39802663  energy(sigma->0) =       -1.39802684


--------------------------------------------------------------------------------------------------------




----------------------------------------- Iteration    1(   3)  ---------------------------------------


     EDDAV:  cpu time  132.9558: real time  133.2511
       DOS:  cpu time    0.0000: real time    0.0001
    --------------------------------------------
      LOOP:  cpu time  132.9568: real time  133.2559

 eigenvalue-minimisations  :   144
 total energy-change (2. order) :-0.3297161E+02  (-0.3287819E+02)
 number of electron      16.0000000 magnetization 
 augmentation part       16.0000000 magnetization 

 Free energy of the ion-electron system (eV)
  ---------------------------------------------------
  alpha Z        PSCENC =         0.04144063
  Ewald energy   TEWEN  =       699.82272266
  -Hartree energ DENC   =     -1114.99415648
  -exchange      EXHF   =         0.00000000
  -V(xc)+E(xc)   XCENC  =        51.37038559
  PAW double counting   =       428.37890668     -430.73533574
  entropy T*S    EENTRO =         0.00000000
  eigenvalues    EBANDS =      -264.41894873
  atomic energy  EATOM  =       596.16534815
  Solvation  Ediel_sol  =         0.00000000
  ---------------------------------------------------
  free energy    TOTEN  =       -34.36963724 eV

  energy without entropy =      -34.36963724  energy(sigma->0) =      -34.36963724


--------------------------------------------------------------------------------------------------------




----------------------------------------- Iteration    1(   4)  ---------------------------------------


     EDDAV:  cpu time  116.7243: real time  116.9862
       DOS:  cpu time    0.0000: real time    0.0002
    --------------------------------------------
      LOOP:  cpu time  116.7273: real time  116.9907

 eigenvalue-minimisations  :   128
 total energy-change (2. order) :-0.4509712E+01  (-0.4465853E+01)
 number of electron      16.0000000 magnetization 
 augmentation part       16.0000000 magnetization 

 Free energy of the ion-electron system (eV)
  ---------------------------------------------------
  alpha Z        PSCENC =         0.04144063
  Ewald energy   TEWEN  =       699.82272266
  -Hartree energ DENC   =     -1114.99415648
  -exchange      EXHF   =         0.00000000
  -V(xc)+E(xc)   XCENC  =        51.37038559
  PAW double counting   =       428.37890668     -430.73533574
  entropy T*S    EENTRO =         0.00000000
  eigenvalues    EBANDS =      -268.92866114
  atomic energy  EATOM  =       596.16534815
  Solvation  Ediel_sol  =         0.00000000
  ---------------------------------------------------
  free energy    TOTEN  =       -38.87934965 eV

  energy without entropy =      -38.87934965  energy(sigma->0) =      -38.87934965


--------------------------------------------------------------------------------------------------------




----------------------------------------- Iteration    1(   5)  ---------------------------------------


     EDDAV:  cpu time  103.4013: real time  103.6335
       DOS:  cpu time    0.0000: real time    0.0001
    CHARGE:  cpu time    9.4806: real time    9.5019
    MIXING:  cpu time    0.7739: real time    0.7763
    --------------------------------------------
      LOOP:  cpu time  113.6577: real time  113.9168

 eigenvalue-minimisations  :   112
 total energy-change (2. order) :-0.1556355E+00  (-0.1534385E+00)
 number of electron      16.0000015 magnetization 
 augmentation part        0.5161442 magnetization 

 Broyden mixing:
  rms(total) = 0.10289E+01    rms(broyden)= 0.10283E+01
  rms(prec ) = 0.10649E+01
  weight for this iteration     100.00

 Free energy of the ion-electron system (eV)
  ---------------------------------------------------
  alpha Z        PSCENC =         0.04144063
  Ewald energy   TEWEN  =       699.82272266
  -Hartree energ DENC   =     -1114.99415648
  -exchange      EXHF   =         0.00000000
  -V(xc)+E(xc)   XCENC  =        51.37038559
  PAW double counting   =       428.37890668     -430.73533574
  entropy T*S    EENTRO =         0.00000000
  eigenvalues    EBANDS =      -269.08429660
  atomic energy  EATOM  =       596.16534815
  Solvation  Ediel_sol  =         0.00000000
  ---------------------------------------------------
  free energy    TOTEN  =       -39.03498512 eV

  energy without entropy =      -39.03498512  energy(sigma->0) =      -39.03498512


--------------------------------------------------------------------------------------------------------




----------------------------------------- Iteration    1(   6)  ---------------------------------------


    POTLOK:  cpu time   29.7545: real time   29.8196
    SETDIJ:  cpu time    0.0060: real time    0.0066
     EDDAV:  cpu time  105.7299: real time  105.9597
       DOS:  cpu time    0.0000: real time    0.0002
    CHARGE:  cpu time    9.5046: real time    9.5263
    MIXING:  cpu time    0.9209: real time    0.9216
    --------------------------------------------
      LOOP:  cpu time  145.9178: real time  146.2381

 eigenvalue-minimisations  :   120
 total energy-change (2. order) : 0.2637652E+01  (-0.4301880E+00)
 number of electron      16.0000017 magnetization 
 augmentation part        0.4711985 magnetization 

 Broyden mixing:
  rms(total) = 0.55788E+00    rms(broyden)= 0.55780E+00
  rms(prec ) = 0.57335E+00
  weight for this iteration     100.00

 eigenvalues of (default mixing * dielectric matrix)
  average eigenvalue GAMMA=   1.6232
  1.6232

 Free energy of the ion-electron system (eV)
  ---------------------------------------------------
  alpha Z        PSCENC =         0.04144063
  Ewald energy   TEWEN  =       699.82272266
  -Hartree energ DENC   =     -1143.79146179
  -exchange      EXHF   =         0.00000000
  -V(xc)+E(xc)   XCENC  =        52.95598338
  PAW double counting   =       716.39606235     -719.08359648
  entropy T*S    EENTRO =         0.00000000
  eigenvalues    EBANDS =      -238.90383233
  atomic energy  EATOM  =       596.16534815
  Solvation  Ediel_sol  =         0.00000000
  ---------------------------------------------------
  free energy    TOTEN  =       -36.39733343 eV

  energy without entropy =      -36.39733343  energy(sigma->0) =      -36.39733343


--------------------------------------------------------------------------------------------------------




----------------------------------------- Iteration    1(   7)  ---------------------------------------


    POTLOK:  cpu time   30.8823: real time   30.9499
    SETDIJ:  cpu time    0.0060: real time    0.0066
     EDDAV:  cpu time  115.5444: real time  115.8008
       DOS:  cpu time    0.0000: real time    0.0002
    CHARGE:  cpu time    9.3896: real time    9.4110
    MIXING:  cpu time    0.9998: real time    1.0025
    --------------------------------------------
      LOOP:  cpu time  156.8232: real time  157.1758

 eigenvalue-minimisations  :   120
 total energy-change (2. order) : 0.6935352E+00  (-0.1846294E+00)
 number of electron      16.0000017 magnetization 
 augmentation part        0.4549337 magnetization 

 Broyden mixing:
  rms(total) = 0.22054E+00    rms(broyden)= 0.22048E+00
  rms(prec ) = 0.22561E+00
  weight for this iteration     100.00

 eigenvalues of (default mixing * dielectric matrix)
  average eigenvalue GAMMA=   1.5782
  1.0984  2.0580

 Free energy of the ion-electron system (eV)
  ---------------------------------------------------
  alpha Z        PSCENC =         0.04144063
  Ewald energy   TEWEN  =       699.82272266
  -Hartree energ DENC   =     -1163.78203001
  -exchange      EXHF   =         0.00000000
  -V(xc)+E(xc)   XCENC  =        54.23068778
  PAW double counting   =      1092.67190051    -1095.54976131
  entropy T*S    EENTRO =         0.00000000
  eigenvalues    EBANDS =      -219.30410665
  atomic energy  EATOM  =       596.16534815
  Solvation  Ediel_sol  =         0.00000000
  ---------------------------------------------------
  free energy    TOTEN  =       -35.70379825 eV

  energy without entropy =      -35.70379825  energy(sigma->0) =      -35.70379825


--------------------------------------------------------------------------------------------------------




----------------------------------------- Iteration    1(   8)  ---------------------------------------


    POTLOK:  cpu time   30.5024: real time   30.5705
    SETDIJ:  cpu time    0.0070: real time    0.0068
     EDDAV:  cpu time  122.3994: real time  122.6725
       DOS:  cpu time    0.0000: real time    0.0002
    CHARGE:  cpu time    9.2746: real time    9.2948
    MIXING:  cpu time    1.1278: real time    1.1302
    --------------------------------------------
      LOOP:  cpu time  163.3142: real time  163.6808

 eigenvalue-minimisations  :   128
 total energy-change (2. order) : 0.6770726E-01  (-0.1316988E-01)
 number of electron      16.0000017 magnetization 
 augmentation part        0.4466609 magnetization 

 Broyden mixing:
  rms(total) = 0.86882E-01    rms(broyden)= 0.86861E-01
  rms(prec ) = 0.91179E-01
  weight for this iteration     100.00

 eigenvalues of (default mixing * dielectric matrix)
  average eigenvalue GAMMA=   1.5937
  2.3198  0.8253  1.6359

 Free energy of the ion-electron system (eV)
  ---------------------------------------------------
  alpha Z        PSCENC =         0.04144063
  Ewald energy   TEWEN  =       699.82272266
  -Hartree energ DENC   =     -1169.82823647
  -exchange      EXHF   =         0.00000000
  -V(xc)+E(xc)   XCENC  =        54.62540708
  PAW double counting   =      1262.15671740    -1265.05183896
  entropy T*S    EENTRO =         0.00000000
  eigenvalues    EBANDS =      -213.56765148
  atomic energy  EATOM  =       596.16534815
  Solvation  Ediel_sol  =         0.00000000
  ---------------------------------------------------
  free energy    TOTEN  =       -35.63609099 eV

  energy without entropy =      -35.63609099  energy(sigma->0) =      -35.63609099


--------------------------------------------------------------------------------------------------------




----------------------------------------- Iteration    1(   9)  ---------------------------------------


    POTLOK:  cpu time   30.3194: real time   30.3859
    SETDIJ:  cpu time    0.0070: real time    0.0067
     EDDAV:  cpu time  118.1970: real time  118.4611
       DOS:  cpu time    0.0000: real time    0.0002
    CHARGE:  cpu time    9.6125: real time    9.6358
    MIXING:  cpu time    1.2218: real time    1.2260
    --------------------------------------------
      LOOP:  cpu time  159.3608: real time  159.7694

 eigenvalue-minimisations  :   128
 total energy-change (2. order) : 0.1844470E-01  (-0.2122497E-02)
 number of electron      16.0000017 magnetization 
 augmentation part        0.4472862 magnetization 

 Broyden mixing:
  rms(total) = 0.21410E-01    rms(broyden)= 0.21400E-01
  rms(prec ) = 0.27666E-01
  weight for this iteration     100.00

 eigenvalues of (default mixing * dielectric matrix)
  average eigenvalue GAMMA=   1.5457
  2.0085  2.0085  0.8466  1.3193

 Free energy of the ion-electron system (eV)
  ---------------------------------------------------
  alpha Z        PSCENC =         0.04144063
  Ewald energy   TEWEN  =       699.82272266
  -Hartree energ DENC   =     -1171.07142504
  -exchange      EXHF   =         0.00000000
  -V(xc)+E(xc)   XCENC  =        54.71093248
  PAW double counting   =      1326.75792612    -1329.62596630
  entropy T*S    EENTRO =         0.00000000
  eigenvalues    EBANDS =      -212.41862499
  atomic energy  EATOM  =       596.16534815
  Solvation  Ediel_sol  =         0.00000000
  ---------------------------------------------------
  free energy    TOTEN  =       -35.61764628 eV

  energy without entropy =      -35.61764628  energy(sigma->0) =      -35.61764628


--------------------------------------------------------------------------------------------------------




----------------------------------------- Iteration    1(  10)  ---------------------------------------


    POTLOK:  cpu time   30.3834: real time   30.4522
    SETDIJ:  cpu time    0.0060: real time    0.0067
     EDDAV:  cpu time  121.7725: real time  122.0456
       DOS:  cpu time    0.0000: real time    0.0002
    CHARGE:  cpu time    9.1916: real time    9.2128
    MIXING:  cpu time    1.3608: real time    1.3641
    --------------------------------------------
      LOOP:  cpu time  162.7153: real time  163.1328

 eigenvalue-minimisations  :   128
 total energy-change (2. order) : 0.1788765E-03  (-0.4325344E-03)
 number of electron      16.0000017 magnetization 
 augmentation part        0.4480684 magnetization 

 Broyden mixing:
  rms(total) = 0.13026E-01    rms(broyden)= 0.13019E-01
  rms(prec ) = 0.18704E-01
  weight for this iteration     100.00

 eigenvalues of (default mixing * dielectric matrix)
  average eigenvalue GAMMA=   1.5093
  2.1869  2.1869  0.8808  0.8808  1.4109

 Free energy of the ion-electron system (eV)
  ---------------------------------------------------
  alpha Z        PSCENC =         0.04144063
  Ewald energy   TEWEN  =       699.82272266
  -Hartree energ DENC   =     -1172.07770704
  -exchange      EXHF   =         0.00000000
  -V(xc)+E(xc)   XCENC  =        54.73480996
  PAW double counting   =      1321.22811333    -1324.09195782
  entropy T*S    EENTRO =         0.00000000
  eigenvalues    EBANDS =      -211.44023727
  atomic energy  EATOM  =       596.16534815
  Solvation  Ediel_sol  =         0.00000000
  ---------------------------------------------------
  free energy    TOTEN  =       -35.61746741 eV

  energy without entropy =      -35.61746741  energy(sigma->0) =      -35.61746741


--------------------------------------------------------------------------------------------------------




----------------------------------------- Iteration    1(  11)  ---------------------------------------


    POTLOK:  cpu time   29.1056: real time   29.1740
    SETDIJ:  cpu time    0.0070: real time    0.0064
     EDDAV:  cpu time  121.1916: real time  121.4620
       DOS:  cpu time    0.0000: real time    0.0002
    CHARGE:  cpu time    9.0276: real time    9.0487
    MIXING:  cpu time    1.4908: real time    1.4949
    --------------------------------------------
      LOOP:  cpu time  160.8246: real time  161.1908

 eigenvalue-minimisations  :   128
 total energy-change (2. order) :-0.1664626E-02  (-0.1632809E-03)
 number of electron      16.0000017 magnetization 
 augmentation part        0.4475835 magnetization 

 Broyden mixing:
  rms(total) = 0.81277E-02    rms(broyden)= 0.81266E-02
  rms(prec ) = 0.13033E-01
  weight for this iteration     100.00

 eigenvalues of (default mixing * dielectric matrix)
  average eigenvalue GAMMA=   1.6595
  2.6447  2.6447  1.4484  1.4484  0.8855  0.8855

 Free energy of the ion-electron system (eV)
  ---------------------------------------------------
  alpha Z        PSCENC =         0.04144063
  Ewald energy   TEWEN  =       699.82272266
  -Hartree energ DENC   =     -1173.08761823
  -exchange      EXHF   =         0.00000000
  -V(xc)+E(xc)   XCENC  =        54.76586311
  PAW double counting   =      1320.68874357    -1323.55104511
  entropy T*S    EENTRO =         0.00000000
  eigenvalues    EBANDS =      -210.46458680
  atomic energy  EATOM  =       596.16534815
  Solvation  Ediel_sol  =         0.00000000
  ---------------------------------------------------
  free energy    TOTEN  =       -35.61913203 eV

  energy without entropy =      -35.61913203  energy(sigma->0) =      -35.61913203


--------------------------------------------------------------------------------------------------------




----------------------------------------- Iteration    1(  12)  ---------------------------------------


    POTLOK:  cpu time   30.1604: real time   30.2293
    SETDIJ:  cpu time    0.0060: real time    0.0063
     EDDAV:  cpu time  111.0481: real time  111.2984
       DOS:  cpu time    0.0000: real time    0.0002
    CHARGE:  cpu time    9.3666: real time    9.3873
    MIXING:  cpu time    1.4538: real time    1.4572
    --------------------------------------------
      LOOP:  cpu time  152.0389: real time  152.3838

 eigenvalue-minimisations  :   120
 total energy-change (2. order) :-0.5738341E-02  (-0.3119797E-03)
 number of electron      16.0000017 magnetization 
 augmentation part        0.4472916 magnetization 

 Broyden mixing:
  rms(total) = 0.45737E-02    rms(broyden)= 0.45688E-02
  rms(prec ) = 0.73557E-02
  weight for this iteration     100.00

 eigenvalues of (default mixing * dielectric matrix)
  average eigenvalue GAMMA=   1.7918
  3.8645  2.2285  1.9454  1.5677  0.9037  1.0164  1.0164

 Free energy of the ion-electron system (eV)
  ---------------------------------------------------
  alpha Z        PSCENC =         0.04144063
  Ewald energy   TEWEN  =       699.82272266
  -Hartree energ DENC   =     -1174.32851488
  -exchange      EXHF   =         0.00000000
  -V(xc)+E(xc)   XCENC  =        54.79542808
  PAW double counting   =      1317.25733283    -1320.11717636
  entropy T*S    EENTRO =         0.00000000
  eigenvalues    EBANDS =      -209.26145148
  atomic energy  EATOM  =       596.16534815
  Solvation  Ediel_sol  =         0.00000000
  ---------------------------------------------------
  free energy    TOTEN  =       -35.62487037 eV

  energy without entropy =      -35.62487037  energy(sigma->0) =      -35.62487037


--------------------------------------------------------------------------------------------------------




----------------------------------------- Iteration    1(  13)  ---------------------------------------


    POTLOK:  cpu time   30.9923: real time   31.0627
    SETDIJ:  cpu time    0.0060: real time    0.0066
     EDDAV:  cpu time  116.9912: real time  117.2526
       DOS:  cpu time    0.0000: real time    0.0002
    CHARGE:  cpu time    8.9646: real time    8.9850
    MIXING:  cpu time    1.6637: real time    1.6667
    --------------------------------------------
      LOOP:  cpu time  158.6199: real time  158.9791

 eigenvalue-minimisations  :   128
 total energy-change (2. order) :-0.6041906E-02  (-0.1641850E-03)
 number of electron      16.0000017 magnetization 
 augmentation part        0.4471025 magnetization 

 Broyden mixing:
  rms(total) = 0.28856E-02    rms(broyden)= 0.28833E-02
  rms(prec ) = 0.43714E-02
  weight for this iteration     100.00

 eigenvalues of (default mixing * dielectric matrix)
  average eigenvalue GAMMA=   1.8813
  4.8834  2.4026  1.7469  1.7469  1.4529  0.9102  0.9102  0.9976

 Free energy of the ion-electron system (eV)
  ---------------------------------------------------
  alpha Z        PSCENC =         0.04144063
  Ewald energy   TEWEN  =       699.82272266
  -Hartree energ DENC   =     -1174.93320298
  -exchange      EXHF   =         0.00000000
  -V(xc)+E(xc)   XCENC  =        54.80264923
  PAW double counting   =      1316.52052793    -1319.38093578
  entropy T*S    EENTRO =         0.00000000
  eigenvalues    EBANDS =      -208.66946213
  atomic energy  EATOM  =       596.16534815
  Solvation  Ediel_sol  =         0.00000000
  ---------------------------------------------------
  free energy    TOTEN  =       -35.63091228 eV

  energy without entropy =      -35.63091228  energy(sigma->0) =      -35.63091228


--------------------------------------------------------------------------------------------------------




----------------------------------------- Iteration    1(  14)  ---------------------------------------


    POTLOK:  cpu time   31.5652: real time   31.6359
    SETDIJ:  cpu time    0.0070: real time    0.0065
     EDDAV:  cpu time  116.3883: real time  116.6490
       DOS:  cpu time    0.0000: real time    0.0002
    CHARGE:  cpu time    9.0046: real time    9.0250
    MIXING:  cpu time    1.7877: real time    1.7908
    --------------------------------------------
      LOOP:  cpu time  158.7539: real time  159.1126

 eigenvalue-minimisations  :   128
 total energy-change (2. order) :-0.3845924E-02  (-0.4667082E-04)
 number of electron      16.0000017 magnetization 
 augmentation part        0.4471370 magnetization 

 Broyden mixing:
  rms(total) = 0.18666E-02    rms(broyden)= 0.18660E-02
  rms(prec ) = 0.27284E-02
  weight for this iteration     100.00

 eigenvalues of (default mixing * dielectric matrix)
  average eigenvalue GAMMA=   1.9734
  5.1160  2.7137  2.4791  1.9074  1.5656  1.1078  1.1078  0.8816  0.8816

 Free energy of the ion-electron system (eV)
  ---------------------------------------------------
  alpha Z        PSCENC =         0.04144063
  Ewald energy   TEWEN  =       699.82272266
  -Hartree energ DENC   =     -1175.10734438
  -exchange      EXHF   =         0.00000000
  -V(xc)+E(xc)   XCENC  =        54.79659428
  PAW double counting   =      1314.93930931    -1317.79957733
  entropy T*S    EENTRO =         0.00000000
  eigenvalues    EBANDS =      -208.49325152
  atomic energy  EATOM  =       596.16534815
  Solvation  Ediel_sol  =         0.00000000
  ---------------------------------------------------
  free energy    TOTEN  =       -35.63475821 eV

  energy without entropy =      -35.63475821  energy(sigma->0) =      -35.63475821


--------------------------------------------------------------------------------------------------------




----------------------------------------- Iteration    1(  15)  ---------------------------------------


    POTLOK:  cpu time   31.0803: real time   31.1521
    SETDIJ:  cpu time    0.0070: real time    0.0066
     EDDAV:  cpu time  118.3510: real time  118.6154
       DOS:  cpu time    0.0000: real time    0.0002
    CHARGE:  cpu time    9.0586: real time    9.0789
    MIXING:  cpu time    1.9297: real time    1.9331
    --------------------------------------------
      LOOP:  cpu time  160.4276: real time  160.7913

 eigenvalue-minimisations  :   128
 total energy-change (2. order) :-0.3364046E-02  (-0.3651733E-04)
 number of electron      16.0000017 magnetization 
 augmentation part        0.4471827 magnetization 

 Broyden mixing:
  rms(total) = 0.12248E-02    rms(broyden)= 0.12246E-02
  rms(prec ) = 0.16344E-02
  weight for this iteration     100.00

 eigenvalues of (default mixing * dielectric matrix)
  average eigenvalue GAMMA=   2.0847
  6.4679  3.4883  2.3619  1.6369  1.6369  1.5202  0.9189  0.9189  1.0169  0.8802

 Free energy of the ion-electron system (eV)
  ---------------------------------------------------
  alpha Z        PSCENC =         0.04144063
  Ewald energy   TEWEN  =       699.82272266
  -Hartree energ DENC   =     -1175.13708514
  -exchange      EXHF   =         0.00000000
  -V(xc)+E(xc)   XCENC  =        54.79033743
  PAW double counting   =      1315.82871509    -1318.68920656
  entropy T*S    EENTRO =         0.00000000
  eigenvalues    EBANDS =      -208.46039451
  atomic energy  EATOM  =       596.16534815
  Solvation  Ediel_sol  =         0.00000000
  ---------------------------------------------------
  free energy    TOTEN  =       -35.63812225 eV

  energy without entropy =      -35.63812225  energy(sigma->0) =      -35.63812225


--------------------------------------------------------------------------------------------------------




----------------------------------------- Iteration    1(  16)  ---------------------------------------


    POTLOK:  cpu time   31.1633: real time   31.2337
    SETDIJ:  cpu time    0.0070: real time    0.0067
     EDDAV:  cpu time  115.7764: real time  116.0314
       DOS:  cpu time    0.0000: real time    0.0002
    CHARGE:  cpu time    8.8577: real time    8.8779
    MIXING:  cpu time    2.0447: real time    2.0485
    --------------------------------------------
      LOOP:  cpu time  157.8510: real time  158.2030

 eigenvalue-minimisations  :   128
 total energy-change (2. order) :-0.1213941E-02  (-0.1107160E-04)
 number of electron      16.0000017 magnetization 
 augmentation part        0.4471527 magnetization 

 Broyden mixing:
  rms(total) = 0.66814E-03    rms(broyden)= 0.66790E-03
  rms(prec ) = 0.91781E-03
  weight for this iteration     100.00

 eigenvalues of (default mixing * dielectric matrix)
  average eigenvalue GAMMA=   2.1197
  7.1310  3.4225  2.1853  2.1853  1.6450  1.6450  1.3351  0.9970  0.9970  0.8867
  0.8867

 Free energy of the ion-electron system (eV)
  ---------------------------------------------------
  alpha Z        PSCENC =         0.04144063
  Ewald energy   TEWEN  =       699.82272266
  -Hartree energ DENC   =     -1175.16888367
  -exchange      EXHF   =         0.00000000
  -V(xc)+E(xc)   XCENC  =        54.78830064
  PAW double counting   =      1315.70758467    -1318.56813068
  entropy T*S    EENTRO =         0.00000000
  eigenvalues    EBANDS =      -208.42771859
  atomic energy  EATOM  =       596.16534815
  Solvation  Ediel_sol  =         0.00000000
  ---------------------------------------------------
  free energy    TOTEN  =       -35.63933619 eV

  energy without entropy =      -35.63933619  energy(sigma->0) =      -35.63933619


--------------------------------------------------------------------------------------------------------




----------------------------------------- Iteration    1(  17)  ---------------------------------------


    POTLOK:  cpu time   27.6618: real time   27.7229
    SETDIJ:  cpu time    0.0060: real time    0.0064
     EDDAV:  cpu time   93.2638: real time   93.4701
       DOS:  cpu time    0.0000: real time    0.0002
    CHARGE:  cpu time    9.0026: real time    9.0232
    MIXING:  cpu time    2.2827: real time    2.2866
    --------------------------------------------
      LOOP:  cpu time  132.2179: real time  132.5142

 eigenvalue-minimisations  :    92
 total energy-change (2. order) :-0.7683569E-03  (-0.2340161E-05)
 number of electron      16.0000017 magnetization 
 augmentation part        0.4471265 magnetization 

 Broyden mixing:
  rms(total) = 0.40187E-03    rms(broyden)= 0.40172E-03
  rms(prec ) = 0.54755E-03
  weight for this iteration     100.00

 eigenvalues of (default mixing * dielectric matrix)
  average eigenvalue GAMMA=   2.2490
  8.0724  4.2365  2.7253  2.3576  1.6130  1.6130  1.5646  0.9898  0.9898  1.0656
  0.8800  0.8800

 Free energy of the ion-electron system (eV)
  ---------------------------------------------------
  alpha Z        PSCENC =         0.04144063
  Ewald energy   TEWEN  =       699.82272266
  -Hartree energ DENC   =     -1175.17924357
  -exchange      EXHF   =         0.00000000
  -V(xc)+E(xc)   XCENC  =        54.78731454
  PAW double counting   =      1315.53062782    -1318.39094048
  entropy T*S    EENTRO =         0.00000000
  eigenvalues    EBANDS =      -208.41737429
  atomic energy  EATOM  =       596.16534815
  Solvation  Ediel_sol  =         0.00000000
  ---------------------------------------------------
  free energy    TOTEN  =       -35.64010455 eV

  energy without entropy =      -35.64010455  energy(sigma->0) =      -35.64010455


--------------------------------------------------------------------------------------------------------




----------------------------------------- Iteration    1(  18)  ---------------------------------------


    POTLOK:  cpu time   24.8032: real time   24.8582
    SETDIJ:  cpu time    0.0060: real time    0.0064
     EDDAV:  cpu time   70.4623: real time   70.6176
       DOS:  cpu time    0.0000: real time    0.0002
    CHARGE:  cpu time    8.5207: real time    8.5398
    MIXING:  cpu time    1.7867: real time    1.7895
    --------------------------------------------
      LOOP:  cpu time  105.5799: real time  105.8158

 eigenvalue-minimisations  :    64
 total energy-change (2. order) :-0.4281926E-03  (-0.2969548E-05)
 number of electron      16.0000017 magnetization 
 augmentation part        0.4471280 magnetization 

 Broyden mixing:
  rms(total) = 0.26924E-03    rms(broyden)= 0.26919E-03
  rms(prec ) = 0.33440E-03
  weight for this iteration     100.00

 eigenvalues of (default mixing * dielectric matrix)
  average eigenvalue GAMMA=   2.3219
  8.3558  4.6931  2.6178  2.4850  2.4850  1.6506  1.6506  1.4684  1.0035  1.0035
  0.8883  0.8883  0.9952

 Free energy of the ion-electron system (eV)
  ---------------------------------------------------
  alpha Z        PSCENC =         0.04144063
  Ewald energy   TEWEN  =       699.82272266
  -Hartree energ DENC   =     -1175.17266903
  -exchange      EXHF   =         0.00000000
  -V(xc)+E(xc)   XCENC  =        54.78648048
  PAW double counting   =      1315.74732738    -1318.60763205
  entropy T*S    EENTRO =         0.00000000
  eigenvalues    EBANDS =      -208.42355096
  atomic energy  EATOM  =       596.16534815
  Solvation  Ediel_sol  =         0.00000000
  ---------------------------------------------------
  free energy    TOTEN  =       -35.64053274 eV

  energy without entropy =      -35.64053274  energy(sigma->0) =      -35.64053274


--------------------------------------------------------------------------------------------------------




----------------------------------------- Iteration    1(  19)  ---------------------------------------


    POTLOK:  cpu time   26.9489: real time   27.0109
    SETDIJ:  cpu time    0.0070: real time    0.0067
     EDDAV:  cpu time   81.0787: real time   81.2561
       DOS:  cpu time    0.0000: real time    0.0002
    CHARGE:  cpu time    7.7688: real time    7.7866
    MIXING:  cpu time    2.0897: real time    2.0935
    --------------------------------------------
      LOOP:  cpu time  117.8951: real time  118.1580

 eigenvalue-minimisations  :    84
 total energy-change (2. order) :-0.2233918E-03  (-0.1007386E-05)
 number of electron      16.0000017 magnetization 
 augmentation part        0.4471412 magnetization 

 Broyden mixing:
  rms(total) = 0.24961E-03    rms(broyden)= 0.24954E-03
  rms(prec ) = 0.27375E-03
  weight for this iteration     100.00

 eigenvalues of (default mixing * dielectric matrix)
  average eigenvalue GAMMA=   2.3246
  8.6399  5.3141  3.2071  2.6025  2.0871  1.7577  1.6023  1.6023  1.0256  1.0256
  1.0664  0.8759  0.8759  0.8620

 Free energy of the ion-electron system (eV)
  ---------------------------------------------------
  alpha Z        PSCENC =         0.04144063
  Ewald energy   TEWEN  =       699.82272266
  -Hartree energ DENC   =     -1175.16599904
  -exchange      EXHF   =         0.00000000
  -V(xc)+E(xc)   XCENC  =        54.78599350
  PAW double counting   =      1315.73557514    -1318.59599259
  entropy T*S    EENTRO =         0.00000000
  eigenvalues    EBANDS =      -208.42984458
  atomic energy  EATOM  =       596.16534815
  Solvation  Ediel_sol  =         0.00000000
  ---------------------------------------------------
  free energy    TOTEN  =       -35.64075613 eV

  energy without entropy =      -35.64075613  energy(sigma->0) =      -35.64075613


--------------------------------------------------------------------------------------------------------




----------------------------------------- Iteration    1(  20)  ---------------------------------------


    POTLOK:  cpu time   25.6961: real time   25.7508
    SETDIJ:  cpu time    0.0070: real time    0.0065
     EDDAV:  cpu time   90.2103: real time   90.4078
       DOS:  cpu time    0.0000: real time    0.0002
    --------------------------------------------
      LOOP:  cpu time  115.9164: real time  116.1853

 eigenvalue-minimisations  :    88
 total energy-change (2. order) :-0.5129769E-04  (-0.2877788E-06)
 number of electron      16.0000017 magnetization 
 augmentation part        0.4471412 magnetization 

 Free energy of the ion-electron system (eV)
  ---------------------------------------------------
  alpha Z        PSCENC =         0.04144063
  Ewald energy   TEWEN  =       699.82272266
  -Hartree energ DENC   =     -1175.16623779
  -exchange      EXHF   =         0.00000000
  -V(xc)+E(xc)   XCENC  =        54.78585605
  PAW double counting   =      1315.63355689    -1318.49392867
  entropy T*S    EENTRO =         0.00000000
  eigenvalues    EBANDS =      -208.42956535
  atomic energy  EATOM  =       596.16534815
  Solvation  Ediel_sol  =         0.00000000
  ---------------------------------------------------
  free energy    TOTEN  =       -35.64080743 eV

  energy without entropy =      -35.64080743  energy(sigma->0) =      -35.64080743


--------------------------------------------------------------------------------------------------------




 average (electrostatic) potential at core
  the test charge radii are     0.5201  0.6991  0.7089
  (the norm of the test charge is              1.0000)
       1 -43.0546       2 -43.0517       3 -43.0491       4 -60.5586       5 -59.3550
       6 -74.8200
 
 
 
 E-fermi :  -6.1760     XC(G=0):  -0.0952     alpha+bet : -0.0137


 k-point     1 :       0.2500    0.2500    0.2500
  band No.  band energies     occupation 
      1     -23.8420      2.00000
      2     -19.2542      2.00000
      3     -13.8418      2.00000
      4     -11.7707      2.00000
      5     -11.7508      2.00000
      6      -8.3044      2.00000
      7      -8.3007      2.00000
      8      -7.1502      2.00000
      9      -0.7785      0.00000
     10      -0.6712      0.00000
     11      -0.6624      0.00000
     12      -0.0136      0.00000

 k-point     2 :      -0.2500    0.2500    0.2500
  band No.  band energies     occupation 
      1     -23.8420      2.00000
      2     -19.2542      2.00000
      3     -13.8418      2.00000
      4     -11.7707      2.00000
      5     -11.7508      2.00000
      6      -8.3044      2.00000
      7      -8.3007      2.00000
      8      -7.1502      2.00000
      9      -0.7785      0.00000
     10      -0.6712      0.00000
     11      -0.6624      0.00000
     12      -0.0135      0.00000

 k-point     3 :       0.2500   -0.2500    0.2500
  band No.  band energies     occupation 
      1     -23.8420      2.00000
      2     -19.2542      2.00000
      3     -13.8418      2.00000
      4     -11.7707      2.00000
      5     -11.7508      2.00000
      6      -8.3044      2.00000
      7      -8.3007      2.00000
      8      -7.1502      2.00000
      9      -0.7785      0.00000
     10      -0.6712      0.00000
     11      -0.6624      0.00000
     12      -0.0133      0.00000

 k-point     4 :      -0.2500   -0.2500    0.2500
  band No.  band energies     occupation 
      1     -23.8420      2.00000
      2     -19.2543      2.00000
      3     -13.8418      2.00000
      4     -11.7707      2.00000
      5     -11.7508      2.00000
      6      -8.3044      2.00000
      7      -8.3006      2.00000
      8      -7.1502      2.00000
      9      -0.7785      0.00000
     10      -0.6712      0.00000
     11      -0.6624      0.00000
     12      -0.0137      0.00000


--------------------------------------------------------------------------------------------------------


 soft charge-density along one line, spin component           1
         0         1         2         3         4         5         6         7         8         9
 total charge-density along one line
 
 pseudopotential strength for first ion, spin component:           1
 -2.362  -4.075  -0.002   0.001   0.000
 -4.075  -6.942  -0.005   0.003   0.000
 -0.002  -0.005  -0.331  -0.002   0.000
  0.001   0.003  -0.002  -0.333   0.000
  0.000   0.000   0.000   0.000  -0.334
 total augmentation occupancy for first ion, spin component:           1
  3.505  -0.632   0.374  -0.231  -0.002
 -0.632   0.131  -0.069   0.043   0.001
  0.374  -0.069   0.043  -0.021   0.000
 -0.231   0.043  -0.021   0.022   0.000
 -0.002   0.001   0.000   0.000   0.006


------------------------ aborting loop because EDIFF is reached ----------------------------------------


    CHARGE:  cpu time    8.8896: real time    8.9092
    FORLOC:  cpu time    2.8466: real time    2.8524
    FORNL :  cpu time   24.5823: real time   24.6370
    STRESS:  cpu time   73.5738: real time   73.7347
    FORCOR:  cpu time   29.0466: real time   29.1088
    FORHAR:  cpu time    9.7495: real time    9.7709
    MIXING:  cpu time    2.5016: real time    2.5070
    OFIELD:  cpu time    0.0000: real time    0.0000

  FORCE on cell =-STRESS in cart. coord.  units (eV):
  Direction    XX          YY          ZZ          XY          YZ          ZX
  --------------------------------------------------------------------------------------
  Alpha Z     0.04144     0.04144     0.04144
  Ewald     559.03118    78.66497    62.12653   142.85716   -30.51722  -109.34703
  Hartree   562.49741   310.87992   301.79337    75.68943   -16.17109   -57.46313
  E(xc)     -58.83675   -60.02438   -60.06200     0.34563    -0.07368    -0.26754
  Local   -1263.98007  -562.16199  -537.44846  -209.86905    44.82795   160.02528
  n-local   -26.32147   -24.31663   -24.29467    -0.46921     0.09299     0.42291
  augment     0.52394     0.96445     0.98151    -0.13059     0.02799     0.10028
  Kinetic   225.63899   254.75312   255.66491    -8.45259     1.82984     6.52104
  Fock        0.00000     0.00000     0.00000     0.00000     0.00000     0.00000
  -------------------------------------------------------------------------------------
  Total      -1.40533    -1.19909    -1.19738    -0.02922     0.01677    -0.00819
  in kB      -0.08339    -0.07115    -0.07105    -0.00173     0.00100    -0.00049
  external pressure =       -0.08 kB  Pullay stress =        0.00 kB


 VOLUME and BASIS-vectors are now :
 -----------------------------------------------------------------------------
  energy-cutoff  :      400.00
  volume of cell :    27000.00
      direct lattice vectors                 reciprocal lattice vectors
    30.000000000  0.000000000  0.000000000     0.033333333  0.000000000  0.000000000
     0.000000000 30.000000000  0.000000000     0.000000000  0.033333333  0.000000000
     0.000000000  0.000000000 30.000000000     0.000000000  0.000000000  0.033333333

  length of vectors
    30.000000000 30.000000000 30.000000000     0.033333333  0.033333333  0.033333333


 FORCES acting on ions
    electron-ion (+dipol)            ewald-force                    non-local-force                 convergence-correction
 -----------------------------------------------------------------------------------------------
   0.122E+02 0.556E+02 -.347E+02   -.123E+02 -.602E+02 0.376E+02   -.944E-02 0.478E+01 -.296E+01   -.138E-03 0.235E-03 -.135E-03
   0.434E+02 0.122E+02 0.490E+02   -.462E+02 -.129E+02 -.537E+02   0.289E+01 0.796E+00 0.475E+01   0.227E-04 0.127E-04 0.299E-03
   0.403E+02 -.397E+02 -.353E+02   -.428E+02 0.436E+02 0.382E+02   0.260E+01 -.398E+01 -.301E+01   0.112E-04 -.263E-03 -.144E-03
   0.113E+03 0.328E+02 -.239E+02   -.120E+03 -.349E+02 0.254E+02   0.713E+01 0.215E+01 -.153E+01   -.153E-02 -.393E-03 0.342E-03
   -.218E+03 -.575E+02 0.456E+02   0.243E+03 0.640E+02 -.508E+02   -.253E+02 -.645E+01 0.525E+01   0.174E-02 0.426E-03 -.346E-03
   0.183E+02 -.822E+00 -.269E+01   -.215E+02 0.588E+00 0.326E+01   0.318E+01 0.152E+00 -.573E+00   -.183E-02 -.463E-03 0.394E-03
 -----------------------------------------------------------------------------------------------
   0.946E+01 0.254E+01 -.194E+01   0.000E+00 -.711E-14 -.711E-14   -.947E+01 -.254E+01 0.193E+01   -.172E-02 -.446E-03 0.410E-03
 
 
 POSITION                                       TOTAL-FORCE (eV/Angst)
 -----------------------------------------------------------------------------------
     14.57860     13.88354     15.70952        -0.022839      0.115577     -0.080504
     14.00987     14.66717     14.19163         0.102741      0.011412      0.123451
     14.06725     15.60646     15.72019         0.065701     -0.094982     -0.062517
     14.57030     14.82212     15.12973         0.089963      0.054212     -0.002891
     17.02983     15.50721     14.60878        -0.135072     -0.004717      0.025142
     15.90830     15.21636     14.84245        -0.100494     -0.081501     -0.002682
 -----------------------------------------------------------------------------------
    total drift:                               -0.012779     -0.005743     -0.011886


--------------------------------------------------------------------------------------------------------



  FREE ENERGIE OF THE ION-ELECTRON SYSTEM (eV)
  ---------------------------------------------------
  free  energy   TOTEN  =       -35.64080743 eV

  energy  without entropy=      -35.64080743  energy(sigma->0) =      -35.64080743
 


--------------------------------------------------------------------------------------------------------


    POTLOK:  cpu time   24.9222: real time   24.9745


--------------------------------------------------------------------------------------------------------


 NEB: the previous image is higher in energy: F
 NEB: the next image is higher in energy    : T
 NEB: only next energy greater

 NEB: Tangent
 ----------------------------------------------
     -0.35935      0.10431     -0.24371
     -0.03646      0.54319     -0.00334
      0.22181      0.15699      0.13156
     -0.02995      0.16455     -0.01852
      0.06968     -0.56716     -0.01006
      0.04252     -0.23533      0.03023

 NEB: forces: par spring, perp REAL, dneb     0.199274    0.328584    0.000000
 NEB: distance to prev, next image, angle between     0.824497    0.864351  110.131036
 NEB: projections on to tangent (spring, REAL)     0.199274    0.047477

 stress matrix after NEB project (eV)
     -1.40533     -0.02922     -0.00819
     -0.02922     -1.19909      0.01677
     -0.00819      0.01677     -1.19738
  FORCES: max atom, RMS     0.192519    0.156885
  FORCE total and by dimension    0.384288    0.131411
  Stress total and by dimension    2.202025    1.405334
 
 OPT: Flag T
 OPT: FIRE Step
 OPT: FIRE, TIMESTEP      0.10000
 OPT: FIRE, alpha         0.10000


--------------------------------------------------------------------------------------------------------


    WAVPRE:  cpu time    8.1998: real time    8.2172
 FEWALD executed in parallel
    FEWALD:  cpu time    0.0010: real time    0.0003
    ORTHCH:  cpu time    6.2530: real time    7.4487
     LOOP+:  cpu time 3187.0465: real time 3195.4626


----------------------------------------- Iteration    2(   1)  ---------------------------------------


    POTLOK:  cpu time   35.5546: real time   36.0336
    SETDIJ:  cpu time    0.0060: real time    0.0065
     EDDAV:  cpu time   76.0564: real time   80.3394
       DOS:  cpu time    0.0000: real time    0.0002
    CHARGE:  cpu time    5.7391: real time    6.2934
    MIXING:  cpu time    0.8949: real time    0.9071
    --------------------------------------------
      LOOP:  cpu time  118.2540: real time  123.5824

 eigenvalue-minimisations  :   104
 total energy-change (2. order) :-0.1140800E-02  (-0.1978976E-02)
 number of electron      16.0000019 magnetization 
 augmentation part        0.4479862 magnetization 

 Broyden mixing:
  rms(total) = 0.46557E-02    rms(broyden)= 0.46431E-02
  rms(prec ) = 0.47845E-02
  weight for this iteration     100.00

 Free energy of the ion-electron system (eV)
  ---------------------------------------------------
  alpha Z        PSCENC =         0.04144063
  Ewald energy   TEWEN  =       700.63465488
  -Hartree energ DENC   =     -1175.75605392
  -exchange      EXHF   =         0.00000000
  -V(xc)+E(xc)   XCENC  =        54.79923867
  PAW double counting   =      1315.66264722    -1318.52301615
  entropy T*S    EENTRO =         0.00000000
  eigenvalues    EBANDS =      -208.66615642
  atomic energy  EATOM  =       596.16534815
  Solvation  Ediel_sol  =         0.00000000
  ---------------------------------------------------
  free energy    TOTEN  =       -35.64189693 eV

  energy without entropy =      -35.64189693  energy(sigma->0) =      -35.64189693


--------------------------------------------------------------------------------------------------------




----------------------------------------- Iteration    2(   2)  ---------------------------------------


    POTLOK:  cpu time   31.8062: real time   35.1417
    SETDIJ:  cpu time    0.0070: real time    0.0072
     EDDAV:  cpu time   95.2875: real time   96.8503
       DOS:  cpu time    0.0000: real time    0.0002
    CHARGE:  cpu time    5.7111: real time    5.7230
    MIXING:  cpu time    1.0148: real time    1.0171
    --------------------------------------------
      LOOP:  cpu time  133.8287: real time  138.7499

 eigenvalue-minimisations  :   128
 total energy-change (2. order) : 0.1582200E-04  (-0.3164405E-04)
 number of electron      16.0000019 magnetization 
 augmentation part        0.4479467 magnetization 

 Broyden mixing:
  rms(total) = 0.25051E-02    rms(broyden)= 0.25037E-02
  rms(prec ) = 0.25661E-02
  weight for this iteration     100.00

 eigenvalues of (default mixing * dielectric matrix)
  average eigenvalue GAMMA=   1.4759
  1.4759

 Free energy of the ion-electron system (eV)
  ---------------------------------------------------
  alpha Z        PSCENC =         0.04144063
  Ewald energy   TEWEN  =       700.63465488
  -Hartree energ DENC   =     -1175.84223746
  -exchange      EXHF   =         0.00000000
  -V(xc)+E(xc)   XCENC  =        54.80327398
  PAW double counting   =      1316.80969451    -1319.67122486
  entropy T*S    EENTRO =         0.00000000
  eigenvalues    EBANDS =      -208.58283094
  atomic energy  EATOM  =       596.16534815
  Solvation  Ediel_sol  =         0.00000000
  ---------------------------------------------------
  free energy    TOTEN  =       -35.64188111 eV

  energy without entropy =      -35.64188111  energy(sigma->0) =      -35.64188111


--------------------------------------------------------------------------------------------------------




----------------------------------------- Iteration    2(   3)  ---------------------------------------


    POTLOK:  cpu time   33.4059: real time   33.4778
    SETDIJ:  cpu time    0.0070: real time    0.0075
     EDDAV:  cpu time   56.8934: real time   57.0146
       DOS:  cpu time    0.0000: real time    0.0002
    CHARGE:  cpu time    5.6001: real time    5.6129
    MIXING:  cpu time    1.0088: real time    1.0104
    --------------------------------------------
      LOOP:  cpu time   96.9173: real time   97.1271

 eigenvalue-minimisations  :    64
 total energy-change (2. order) :-0.7083943E-05  (-0.7329786E-05)
 number of electron      16.0000019 magnetization 
 augmentation part        0.4478307 magnetization 

 Broyden mixing:
  rms(total) = 0.10160E-02    rms(broyden)= 0.10148E-02
  rms(prec ) = 0.10329E-02
  weight for this iteration     100.00

 eigenvalues of (default mixing * dielectric matrix)
  average eigenvalue GAMMA=   1.3170
  1.0685  1.5655

 Free energy of the ion-electron system (eV)
  ---------------------------------------------------
  alpha Z        PSCENC =         0.04144063
  Ewald energy   TEWEN  =       700.63465488
  -Hartree energ DENC   =     -1175.89679222
  -exchange      EXHF   =         0.00000000
  -V(xc)+E(xc)   XCENC  =        54.80595106
  PAW double counting   =      1318.06681294    -1320.92916909
  entropy T*S    EENTRO =         0.00000000
  eigenvalues    EBANDS =      -208.53013454
  atomic energy  EATOM  =       596.16534815
  Solvation  Ediel_sol  =         0.00000000
  ---------------------------------------------------
  free energy    TOTEN  =       -35.64188819 eV

  energy without entropy =      -35.64188819  energy(sigma->0) =      -35.64188819


--------------------------------------------------------------------------------------------------------




----------------------------------------- Iteration    2(   4)  ---------------------------------------


    POTLOK:  cpu time   27.3838: real time   28.8528
    SETDIJ:  cpu time    0.0080: real time    0.0074
     EDDAV:  cpu time   70.7033: real time   73.7298
[...]
  Solvation  Ediel_sol  =         0.00000000
  ---------------------------------------------------
  free energy    TOTEN  =       -35.64301698 eV

  energy without entropy =      -35.64301698  energy(sigma->0) =      -35.64301698


--------------------------------------------------------------------------------------------------------




----------------------------------------- Iteration   74(   2)  ---------------------------------------


    POTLOK:  cpu time   22.6126: real time   22.6559
    SETDIJ:  cpu time    0.0060: real time    0.0064
     EDDAV:  cpu time   43.1654: real time   43.2492
       DOS:  cpu time    0.0000: real time    0.0002
    CHARGE:  cpu time    4.9043: real time    4.9140
    MIXING:  cpu time    0.5609: real time    0.5621
    --------------------------------------------
      LOOP:  cpu time   71.2512: real time   71.3935

 eigenvalue-minimisations  :    64
 total energy-change (2. order) :-0.6503127E-06  (-0.1810084E-05)
 number of electron      15.9999988 magnetization 
 augmentation part        0.4497748 magnetization 

 Broyden mixing:
  rms(total) = 0.50157E-03    rms(broyden)= 0.50135E-03
  rms(prec ) = 0.51221E-03
  weight for this iteration     100.00

 eigenvalues of (default mixing * dielectric matrix)
  average eigenvalue GAMMA=   1.5217
  1.5217

 Free energy of the ion-electron system (eV)
  ---------------------------------------------------
  alpha Z        PSCENC =         0.04144063
  Ewald energy   TEWEN  =       702.77287773
  -Hartree energ DENC   =     -1177.78147114
  -exchange      EXHF   =         0.00000000
  -V(xc)+E(xc)   XCENC  =        54.86014874
  PAW double counting   =      1328.15510823    -1331.02270439
  entropy T*S    EENTRO =         0.00000000
  eigenvalues    EBANDS =      -208.83376558
  atomic energy  EATOM  =       596.16534815
  Solvation  Ediel_sol  =         0.00000000
  ---------------------------------------------------
  free energy    TOTEN  =       -35.64301763 eV

  energy without entropy =      -35.64301763  energy(sigma->0) =      -35.64301763


--------------------------------------------------------------------------------------------------------




----------------------------------------- Iteration   74(   3)  ---------------------------------------


    POTLOK:  cpu time   21.2138: real time   21.2555
    SETDIJ:  cpu time    0.0070: real time    0.0065
     EDDAV:  cpu time   35.7956: real time   35.8632
       DOS:  cpu time    0.0000: real time    0.0002
    CHARGE:  cpu time    4.7933: real time    4.8025
    MIXING:  cpu time    0.6509: real time    0.6515
    --------------------------------------------
      LOOP:  cpu time   62.4625: real time   62.5826

 eigenvalue-minimisations  :    48
 total energy-change (2. order) :-0.1407745E-06  (-0.2805921E-06)
 number of electron      15.9999988 magnetization 
 augmentation part        0.4497721 magnetization 

 Broyden mixing:
  rms(total) = 0.18725E-03    rms(broyden)= 0.18714E-03
  rms(prec ) = 0.19007E-03
  weight for this iteration     100.00

 eigenvalues of (default mixing * dielectric matrix)
  average eigenvalue GAMMA=   1.5888
  1.0802  2.0974

 Free energy of the ion-electron system (eV)
  ---------------------------------------------------
  alpha Z        PSCENC =         0.04144063
  Ewald energy   TEWEN  =       702.77287773
  -Hartree energ DENC   =     -1177.78393221
  -exchange      EXHF   =         0.00000000
  -V(xc)+E(xc)   XCENC  =        54.86026661
  PAW double counting   =      1328.20449964    -1331.07212176
  entropy T*S    EENTRO =         0.00000000
  eigenvalues    EBANDS =      -208.83139655
  atomic energy  EATOM  =       596.16534815
  Solvation  Ediel_sol  =         0.00000000
  ---------------------------------------------------
  free energy    TOTEN  =       -35.64301777 eV

  energy without entropy =      -35.64301777  energy(sigma->0) =      -35.64301777


--------------------------------------------------------------------------------------------------------




----------------------------------------- Iteration   74(   4)  ---------------------------------------


    POTLOK:  cpu time   19.9890: real time   20.0296
    SETDIJ:  cpu time    0.0060: real time    0.0062
     EDDAV:  cpu time   36.8684: real time   36.9397
       DOS:  cpu time    0.0000: real time    0.0002
    CHARGE:  cpu time    5.0002: real time    5.0093
    MIXING:  cpu time    0.7719: real time    0.7741
    --------------------------------------------
      LOOP:  cpu time   62.6365: real time   63.2471

 eigenvalue-minimisations  :    48
 total energy-change (2. order) :-0.1313315E-06  (-0.8316131E-07)
 number of electron      15.9999988 magnetization 
 augmentation part        0.4497735 magnetization 

 Broyden mixing:
  rms(total) = 0.76682E-04    rms(broyden)= 0.76629E-04
  rms(prec ) = 0.78071E-04
  weight for this iteration     100.00

 eigenvalues of (default mixing * dielectric matrix)
  average eigenvalue GAMMA=   1.6842
  2.3771  1.1774  1.4980

 Free energy of the ion-electron system (eV)
  ---------------------------------------------------
  alpha Z        PSCENC =         0.04144063
  Ewald energy   TEWEN  =       702.77287773
  -Hartree energ DENC   =     -1177.78397182
  -exchange      EXHF   =         0.00000000
  -V(xc)+E(xc)   XCENC  =        54.86028472
  PAW double counting   =      1328.23424902    -1331.10187377
  entropy T*S    EENTRO =         0.00000000
  eigenvalues    EBANDS =      -208.83137256
  atomic energy  EATOM  =       596.16534815
  Solvation  Ediel_sol  =         0.00000000
  ---------------------------------------------------
  free energy    TOTEN  =       -35.64301790 eV

  energy without entropy =      -35.64301790  energy(sigma->0) =      -35.64301790


--------------------------------------------------------------------------------------------------------




----------------------------------------- Iteration   74(   5)  ---------------------------------------


    POTLOK:  cpu time   19.7650: real time   19.8035
    SETDIJ:  cpu time    0.0070: real time    0.0063
     EDDAV:  cpu time   36.5015: real time   36.5731
       DOS:  cpu time    0.0000: real time    0.0002
    CHARGE:  cpu time    5.1382: real time    5.1482
    MIXING:  cpu time    0.7259: real time    0.7283
    --------------------------------------------
      LOOP:  cpu time   62.1396: real time   62.2632

 eigenvalue-minimisations  :    48
 total energy-change (2. order) :-0.2697607E-07  (-0.2343256E-07)
 number of electron      15.9999988 magnetization 
 augmentation part        0.4497729 magnetization 

 Broyden mixing:
  rms(total) = 0.33026E-04    rms(broyden)= 0.33009E-04
  rms(prec ) = 0.33870E-04
  weight for this iteration     100.00

 eigenvalues of (default mixing * dielectric matrix)
  average eigenvalue GAMMA=   1.6674
  2.5602  1.9889  0.8989  1.2217

 Free energy of the ion-electron system (eV)
  ---------------------------------------------------
  alpha Z        PSCENC =         0.04144063
  Ewald energy   TEWEN  =       702.77287773
  -Hartree energ DENC   =     -1177.78366255
  -exchange      EXHF   =         0.00000000
  -V(xc)+E(xc)   XCENC  =        54.86028021
  PAW double counting   =      1328.25283310    -1331.12045623
  entropy T*S    EENTRO =         0.00000000
  eigenvalues    EBANDS =      -208.83167896
  atomic energy  EATOM  =       596.16534815
  Solvation  Ediel_sol  =         0.00000000
  ---------------------------------------------------
  free energy    TOTEN  =       -35.64301793 eV

  energy without entropy =      -35.64301793  energy(sigma->0) =      -35.64301793


--------------------------------------------------------------------------------------------------------




----------------------------------------- Iteration   74(   6)  ---------------------------------------


    POTLOK:  cpu time   20.4199: real time   20.4597
    SETDIJ:  cpu time    0.0060: real time    0.0063
     EDDAV:  cpu time   35.5396: real time   35.6103
       DOS:  cpu time    0.0000: real time    0.0002
    --------------------------------------------
      LOOP:  cpu time   55.9685: real time   56.0801

 eigenvalue-minimisations  :    48
 total energy-change (2. order) :-0.2793490E-07  (-0.9438607E-08)
 number of electron      15.9999988 magnetization 
 augmentation part        0.4497729 magnetization 

 Free energy of the ion-electron system (eV)
  ---------------------------------------------------
  alpha Z        PSCENC =         0.04144063
  Ewald energy   TEWEN  =       702.77287773
  -Hartree energ DENC   =     -1177.78336170
  -exchange      EXHF   =         0.00000000
  -V(xc)+E(xc)   XCENC  =        54.86027019
  PAW double counting   =      1328.26176584    -1331.12938672
  entropy T*S    EENTRO =         0.00000000
  eigenvalues    EBANDS =      -208.83197208
  atomic energy  EATOM  =       596.16534815
  Solvation  Ediel_sol  =         0.00000000
  ---------------------------------------------------
  free energy    TOTEN  =       -35.64301795 eV

  energy without entropy =      -35.64301795  energy(sigma->0) =      -35.64301795


--------------------------------------------------------------------------------------------------------




 average (electrostatic) potential at core
  the test charge radii are     0.5201  0.6991  0.7089
  (the norm of the test charge is              1.0000)
       1 -43.0798       2 -43.0796       3 -43.0800       4 -60.5348       5 -59.3483
       6 -74.8317
 
 
 
 E-fermi :  -6.1632     XC(G=0):  -0.0604     alpha+bet : -0.0137


 k-point     1 :       0.2500    0.2500    0.2500
  band No.  band energies     occupation 
      1     -23.8891      2.00000
      2     -19.2983      2.00000
      3     -13.8853      2.00000
      4     -11.7987      2.00000
      5     -11.7943      2.00000
      6      -8.3053      2.00000
      7      -8.3008      2.00000
      8      -7.1442      2.00000
      9      -0.7660      0.00000
     10      -0.6644      0.00000
     11      -0.6594      0.00000
     12       0.0242      0.00000

 k-point     2 :      -0.2500    0.2500    0.2500
  band No.  band energies     occupation 
      1     -23.8891      2.00000
      2     -19.2983      2.00000
      3     -13.8853      2.00000
      4     -11.7987      2.00000
      5     -11.7943      2.00000
      6      -8.3053      2.00000
      7      -8.3008      2.00000
      8      -7.1442      2.00000
      9      -0.7660      0.00000
     10      -0.6644      0.00000
     11      -0.6594      0.00000
     12       0.0245      0.00000

 k-point     3 :       0.2500   -0.2500    0.2500
  band No.  band energies     occupation 
      1     -23.8891      2.00000
      2     -19.2983      2.00000
      3     -13.8853      2.00000
      4     -11.7987      2.00000
      5     -11.7943      2.00000
      6      -8.3053      2.00000
      7      -8.3008      2.00000
      8      -7.1442      2.00000
      9      -0.7660      0.00000
     10      -0.6644      0.00000
     11      -0.6594      0.00000
     12       0.0244      0.00000

 k-point     4 :      -0.2500   -0.2500    0.2500
  band No.  band energies     occupation 
      1     -23.8891      2.00000
      2     -19.2983      2.00000
      3     -13.8853      2.00000
      4     -11.7987      2.00000
      5     -11.7943      2.00000
      6      -8.3053      2.00000
      7      -8.3008      2.00000
      8      -7.1442      2.00000
      9      -0.7660      0.00000
     10      -0.6644      0.00000
     11      -0.6594      0.00000
     12       0.0240      0.00000


--------------------------------------------------------------------------------------------------------


 soft charge-density along one line, spin component           1
         0         1         2         3         4         5         6         7         8         9
 total charge-density along one line
 
 pseudopotential strength for first ion, spin component:           1
 -2.363  -4.075  -0.001   0.001   0.000
 -4.075  -6.942  -0.004   0.003   0.001
 -0.001  -0.004  -0.331  -0.002  -0.001
  0.001   0.003  -0.002  -0.332   0.000
  0.000   0.001  -0.001   0.000  -0.334
 total augmentation occupancy for first ion, spin component:           1
  3.521  -0.634   0.346  -0.271  -0.067
 -0.634   0.131  -0.064   0.050   0.013
  0.346  -0.064   0.037  -0.023  -0.006
 -0.271   0.050  -0.023   0.027   0.004
 -0.067   0.013  -0.006   0.004   0.007


------------------------ aborting loop because EDIFF is reached ----------------------------------------


    CHARGE:  cpu time    5.1762: real time    5.1870
    FORLOC:  cpu time    2.3126: real time    2.3164
    FORNL :  cpu time   16.4855: real time   16.5193
    STRESS:  cpu time   50.2474: real time   50.3452
    FORCOR:  cpu time   21.0868: real time   21.1251
    FORHAR:  cpu time    7.1219: real time    7.1353
    MIXING:  cpu time    0.7519: real time    0.7534
    OFIELD:  cpu time    0.0000: real time    0.0000

  FORCE on cell =-STRESS in cart. coord.  units (eV):
  Direction    XX          YY          ZZ          XY          YZ          ZX
  --------------------------------------------------------------------------------------
  Alpha Z     0.04144     0.04144     0.04144
  Ewald     486.17861   153.99508    62.59887   225.66596   -51.70515  -101.90231
  Hartree   524.19784   351.05069   302.53480   118.42099   -27.13087   -53.16390
  E(xc)     -59.09515   -59.91998   -60.13989     0.55251    -0.12662    -0.25208
  Local   -1157.21203  -673.00000  -538.65639  -330.02984    75.61802   148.62713
  n-local   -26.20855   -24.76150   -24.47445    -0.85263     0.19215     0.41863
  augment     0.58534     0.89258     0.97738    -0.20886     0.04796     0.09471
  Kinetic   230.62915   250.76216   256.13340   -13.46492     3.08752     6.15519
  Fock        0.00000     0.00000     0.00000     0.00000     0.00000     0.00000
  -------------------------------------------------------------------------------------
  Total      -0.88335    -0.93953    -0.98485     0.08321    -0.01699    -0.02263
  in kB      -0.05242    -0.05575    -0.05844     0.00494    -0.00101    -0.00134
  external pressure =       -0.06 kB  Pullay stress =        0.00 kB


 VOLUME and BASIS-vectors are now :
 -----------------------------------------------------------------------------
  energy-cutoff  :      400.00
  volume of cell :    27000.00
      direct lattice vectors                 reciprocal lattice vectors
    30.000000000  0.000000000  0.000000000     0.033333333  0.000000000  0.000000000
     0.000000000 30.000000000  0.000000000     0.000000000  0.033333333  0.000000000
     0.000000000  0.000000000 30.000000000     0.000000000  0.000000000  0.033333333

  length of vectors
    30.000000000 30.000000000 30.000000000     0.033333333  0.033333333  0.033333333


 FORCES acting on ions
    electron-ion (+dipol)            ewald-force                    non-local-force                 convergence-correction
 -----------------------------------------------------------------------------------------------
   0.222E+01 0.537E+02 -.401E+02   -.139E+01 -.581E+02 0.436E+02   -.844E+00 0.442E+01 -.346E+01   0.679E-05 0.464E-05 0.334E-04
   0.370E+02 0.263E+02 0.493E+02   -.394E+02 -.282E+02 -.541E+02   0.238E+01 0.190E+01 0.480E+01   -.136E-04 0.182E-04 -.209E-04
   0.502E+02 -.331E+02 -.296E+02   -.538E+02 0.367E+02 0.321E+02   0.362E+01 -.360E+01 -.250E+01   -.391E-06 0.464E-04 0.180E-04
   0.105E+03 0.544E+02 -.242E+02   -.112E+03 -.578E+02 0.257E+02   0.658E+01 0.344E+01 -.151E+01   0.403E-04 0.176E-03 0.491E-04
   -.202E+03 -.100E+03 0.462E+02   0.226E+03 0.112E+03 -.516E+02   -.234E+02 -.115E+02 0.535E+01   -.123E-03 0.260E-03 0.134E-03
   0.161E+02 0.354E+01 -.364E+01   -.190E+02 -.449E+01 0.429E+01   0.291E+01 0.935E+00 -.662E+00   0.986E-04 0.300E-03 0.731E-04
 -----------------------------------------------------------------------------------------------
   0.876E+01 0.436E+01 -.201E+01   0.284E-13 -.142E-13 0.711E-14   -.876E+01 -.436E+01 0.200E+01   0.827E-05 0.805E-03 0.287E-03
 
 
 POSITION                                       TOTAL-FORCE (eV/Angst)
 -----------------------------------------------------------------------------------
     14.78759     13.86406     15.81439        -0.008156     -0.002075      0.006301
     14.16264     14.35401     14.21153        -0.004693     -0.002518     -0.004667
     13.92334     15.41977     15.62756         0.012165      0.011993      0.003187
     14.61693     14.71789     15.14369        -0.000334     -0.008459     -0.000154
     16.88495     15.87163     14.62459        -0.008038      0.017119      0.002045
     15.84758     15.36044     14.86175         0.009057     -0.016060     -0.006712
 -----------------------------------------------------------------------------------
    total drift:                               -0.003872      0.001380     -0.007768


--------------------------------------------------------------------------------------------------------



  FREE ENERGIE OF THE ION-ELECTRON SYSTEM (eV)
  ---------------------------------------------------
  free  energy   TOTEN  =       -35.64301795 eV

  energy  without entropy=      -35.64301795  energy(sigma->0) =      -35.64301795
 
 d Force = 0.1227448E-04[ 0.108E-04, 0.137E-04]  d Energy = 0.1239913E-04-0.125E-06
 d Force =-0.5108488E-01[-0.511E-01,-0.511E-01]  d Ewald  =-0.5108488E-01 0.573E-08


--------------------------------------------------------------------------------------------------------


    POTLOK:  cpu time   18.5932: real time   18.6279


--------------------------------------------------------------------------------------------------------


 NEB: the previous image is higher in energy: F
 NEB: the next image is higher in energy    : T
 NEB: only next energy greater

 NEB: Tangent
 ----------------------------------------------
     -0.25918      0.05774     -0.06236
     -0.23123      0.42922      0.09690
      0.31239      0.24927      0.19234
     -0.03302      0.13820      0.03813
      0.12819     -0.56739     -0.20327
      0.06081     -0.25981     -0.09629

 NEB: forces: par spring, perp REAL, dneb     0.111717    0.035758    0.000000
 NEB: distance to prev, next image, angle between     1.100759    1.123103   61.457197
 NEB: projections on to tangent (spring, REAL)     0.111717    0.001603

 stress matrix after NEB project (eV)
     -0.88335      0.08321     -0.02263
      0.08321     -0.93953     -0.01699
     -0.02263     -0.01699     -0.98485
  FORCES: max atom, RMS     0.065707    0.047888
  FORCE total and by dimension    0.117300    0.046563
  Stress total and by dimension    1.627389    0.984847
 OPT: skip step - force has converged


--------------------------------------------------------------------------------------------------------


  
 reached required accuracy - stopping structural energy minimisation
     LOOP+:  cpu time  579.1170: real time  580.7980
    4ORBIT:  cpu time    0.0000: real time    0.0000

 total amount of memory used by VASP on root node  3203888. kBytes
========================================================================

   base      :      30000. kBytes
   nonlr-proj:        692. kBytes
   fftplans  :     924480. kBytes
   grid      :    1872000. kBytes
   one-center:         18. kBytes
   wavefun   :     376698. kBytes
 
  
  
 General timing and accounting informations for this job:
 ========================================================
  
                  Total CPU time used (sec):    49631.570
                            User time (sec):    48957.215
                          System time (sec):      674.353
                         Elapsed time (sec):    49851.795
  
                   Maximum memory used (kb):     4762472.
                   Average memory used (kb):           0.
  
                          Minor page faults:      7430577
                          Major page faults:            9
                 Voluntary context switches:         9248
