 vasp.5.4.1 24Jun15 (build Jan 13 2020 12:58:22) complex                        
  
 POSCAR found type information on POSCAR  H  C  N 
 05/POSCAR found :  3 types and       6 ions
 scaLAPACK will be used

 ----------------------------------------------------------------------------- 
|                                                                             |
|  ADVICE TO THIS USER RUNNING 'VASP/VAMP'   (HEAR YOUR MASTER'S VOICE ...):  |
|                                                                             |
|      You have a (more or less) 'small supercell' and for smaller cells      |
|      it is recommended  to use the reciprocal-space projection scheme!      |
|      The real space optimization is not  efficient for small cells and it   |
|      is also less accurate ...                                              |
|      Therefore set LREAL=.FALSE. in the  INCAR file                         |
|                                                                             |
 ----------------------------------------------------------------------------- 

 LDA part: xc-table for Pade appr. of Perdew
 POSCAR found type information on POSCAR  H  C  N 
 00/POSCAR found :  3 types and       6 ions
 POSCAR found type information on POSCAR  H  C  N 
 16/POSCAR found :  3 types and       6 ions
 Jacobian:    40.4401846379183     
 POSCAR, INCAR and KPOINTS ok, starting setup
 WARNING: small aliasing (wrap around) errors must be expected
 FFT: planning ...
 WAVECAR not read
 entering main loop
       N       E                     dE             d eps       ncg     rms          rms(c)
DAV:   1     0.112339346036E+03    0.11234E+03   -0.21436E+03   160   0.366E+02
DAV:   2    -0.139802706267E+01   -0.11374E+03   -0.11157E+03   192   0.109E+02
DAV:   3    -0.343696372431E+02   -0.32972E+02   -0.32878E+02   144   0.856E+01
DAV:   4    -0.388793496528E+02   -0.45097E+01   -0.44659E+01   128   0.288E+01
DAV:   5    -0.390349851208E+02   -0.15564E+00   -0.15344E+00   112   0.579E+00    0.103E+01
DAV:   6    -0.363973334277E+02    0.26377E+01   -0.43019E+00   120   0.146E+01    0.558E+00
DAV:   7    -0.357037982468E+02    0.69354E+00   -0.18463E+00   120   0.930E+00    0.221E+00
DAV:   8    -0.356360909884E+02    0.67707E-01   -0.13170E-01   128   0.279E+00    0.869E-01
DAV:   9    -0.356176462842E+02    0.18445E-01   -0.21225E-02   128   0.123E+00    0.214E-01
DAV:  10    -0.356174674077E+02    0.17888E-03   -0.43253E-03   128   0.508E-01    0.130E-01
DAV:  11    -0.356191320332E+02   -0.16646E-02   -0.16328E-03   128   0.331E-01    0.813E-02
DAV:  12    -0.356248703744E+02   -0.57383E-02   -0.31198E-03   120   0.427E-01    0.457E-02
DAV:  13    -0.356309122807E+02   -0.60419E-02   -0.16418E-03   128   0.251E-01    0.289E-02
DAV:  14    -0.356347582050E+02   -0.38459E-02   -0.46671E-04   128   0.117E-01    0.187E-02
DAV:  15    -0.356381222507E+02   -0.33640E-02   -0.36517E-04   128   0.894E-02    0.122E-02
DAV:  16    -0.356393361915E+02   -0.12139E-02   -0.11072E-04   128   0.541E-02    0.668E-03
DAV:  17    -0.356401045484E+02   -0.76836E-03   -0.23402E-05    92   0.356E-02    0.402E-03
DAV:  18    -0.356405327410E+02   -0.42819E-03   -0.29695E-05    64   0.250E-02    0.269E-03
DAV:  19    -0.356407561327E+02   -0.22339E-03   -0.10074E-05    84   0.209E-02    0.250E-03
DAV:  20    -0.356408074304E+02   -0.51298E-04   -0.28778E-06    88   0.117E-02
   1 F= -.35640807E+02 E0= -.35640807E+02  d E =-.356408E+02
damped:  g(F)=  0.000E+00 g(S)=  0.000E+00 dE (1.order)= 0.000E+00
 bond charge predicted
       N       E                     dE             d eps       ncg     rms          rms(c)
DAV:   1    -0.356418969323E+02   -0.11408E-02   -0.19790E-02   104   0.135E+00    0.466E-02
DAV:   2    -0.356418811103E+02    0.15822E-04   -0.31644E-04   128   0.162E-01    0.251E-02
DAV:   3    -0.356418881942E+02   -0.70839E-05   -0.73298E-05    64   0.611E-02    0.102E-02
DAV:   4    -0.356418943715E+02   -0.61772E-05   -0.82904E-06    88   0.275E-02    0.606E-03
DAV:   5    -0.356419025681E+02   -0.81966E-05   -0.13605E-06    64   0.111E-02    0.141E-03
DAV:   6    -0.356419059319E+02   -0.33639E-05   -0.34794E-07    72   0.506E-03
   2 F= -.35641906E+02 E0= -.35641906E+02  d E =-.109850E-02
damped:  g(F)=  0.000E+00 g(S)=  0.000E+00 dE (1.order)= 0.000E+00
 bond charge predicted
       N       E                     dE             d eps       ncg     rms          rms(c)
DAV:   1    -0.356429817605E+02   -0.10792E-02   -0.55687E-02    96   0.226E+00    0.780E-02
DAV:   2    -0.356429180960E+02    0.63665E-04   -0.86231E-04   112   0.268E-01    0.427E-02
DAV:   3    -0.356429132037E+02    0.48923E-05   -0.22029E-04   128   0.998E-02    0.190E-02
DAV:   4    -0.356429133654E+02   -0.16172E-06   -0.12129E-05    64   0.296E-02    0.109E-02
DAV:   5    -0.356429167802E+02   -0.34148E-05   -0.32523E-06    80   0.170E-02    0.178E-03
DAV:   6    -0.356429175405E+02   -0.76031E-06   -0.11342E-06    60   0.875E-03
   3 F= -.35642918E+02 E0= -.35642918E+02  d E =-.101161E-02
damped:  g(F)=  0.000E+00 g(S)=  0.000E+00 dE (1.order)= 0.000E+00
 bond charge predicted
       N       E                     dE             d eps       ncg     rms          rms(c)
DAV:   1    -0.356430476915E+02   -0.13091E-03   -0.64817E-02    96   0.245E+00    0.848E-02
DAV:   2    -0.356429654811E+02    0.82210E-04   -0.97466E-04   112   0.283E-01    0.470E-02
DAV:   3    -0.356429571972E+02    0.82839E-05   -0.25787E-04   128   0.107E-01    0.213E-02
DAV:   4    -0.356429568056E+02    0.39153E-06   -0.14971E-05    76   0.324E-02    0.123E-02
DAV:   5    -0.356429598595E+02   -0.30539E-05   -0.35555E-06    68   0.182E-02    0.164E-03
DAV:   6    -0.356429605042E+02   -0.64466E-06   -0.10476E-06    48   0.861E-03
   4 F= -.35642961E+02 E0= -.35642961E+02  d E =-.429637E-04
damped:  g(F)=  0.000E+00 g(S)=  0.000E+00 dE (1.order)= 0.000E+00
 bond charge predicted
       N       E                     dE             d eps       ncg     rms          rms(c)
DAV:   1    -0.356429956911E+02   -0.35832E-04   -0.47223E-04   128   0.199E-01    0.600E-03
DAV:   2    -0.356429954057E+02    0.28540E-06   -0.52716E-06    64   0.208E-02    0.368E-03
DAV:   3    -0.356429962946E+02   -0.88893E-06   -0.16734E-06    64   0.105E-02    0.104E-03
DAV:   4    -0.356429965331E+02   -0.23855E-06   -0.30294E-07    48   0.480E-03    0.660E-04
DAV:   5    -0.356429968495E+02   -0.31637E-06   -0.88437E-08    96   0.200E-03    0.214E-04
DAV:   6    -0.356429970656E+02   -0.21605E-06   -0.44637E-08    48   0.109E-03
   5 F= -.35642997E+02 E0= -.35642997E+02  d E =-.365614E-04
damped:  g(F)=  0.000E+00 g(S)=  0.000E+00 dE (1.order)= 0.000E+00
 bond charge predicted
       N       E                     dE             d eps       ncg     rms          rms(c)
DAV:   1    -0.356430533849E+02   -0.56535E-04   -0.36448E-03    96   0.548E-01    0.154E-02
DAV:   2    -0.356430513869E+02    0.19980E-05   -0.40614E-05    80   0.570E-02    0.953E-03
DAV:   3    -0.356430534913E+02   -0.21044E-05   -0.91283E-06    64   0.262E-02    0.246E-03
DAV:   4    -0.356430538498E+02   -0.35844E-06   -0.17707E-06    48   0.117E-02    0.145E-03
DAV:   5    -0.356430540391E+02   -0.18930E-06   -0.42534E-07    64   0.499E-03    0.546E-04
DAV:   6    -0.356430541224E+02   -0.83355E-07   -0.16899E-07    64   0.280E-03
   6 F= -.35643054E+02 E0= -.35643054E+02  d E =-.570569E-04
damped:  g(F)=  0.000E+00 g(S)=  0.000E+00 dE (1.order)= 0.000E+00
 bond charge predicted
       N       E                     dE             d eps       ncg     rms          rms(c)
DAV:   1    -0.356431094963E+02   -0.55457E-04   -0.13997E-02    96   0.107E+00    0.289E-02
DAV:   2    -0.356431058970E+02    0.35993E-05   -0.15512E-04    80   0.110E-01    0.179E-02
DAV:   3    -0.356431119958E+02   -0.60988E-05   -0.29530E-05    80   0.484E-02    0.443E-03
DAV:   4    -0.356431132856E+02   -0.12898E-05   -0.62659E-06    64   0.215E-02    0.242E-03
DAV:   5    -0.356431137805E+02   -0.49494E-06   -0.15757E-06    64   0.974E-03    0.911E-04
DAV:   6    -0.356431140403E+02   -0.25974E-06   -0.59085E-07    48   0.550E-03
   7 F= -.35643114E+02 E0= -.35643114E+02  d E =-.599178E-04
damped:  g(F)=  0.000E+00 g(S)=  0.000E+00 dE (1.order)= 0.000E+00
 bond charge predicted
       N       E                     dE             d eps       ncg     rms          rms(c)
DAV:   1    -0.356431378643E+02   -0.24084E-04   -0.38474E-02    96   0.177E+00    0.469E-02
DAV:   2    -0.356431426405E+02   -0.47762E-05   -0.49097E-04   128   0.181E-01    0.304E-02
DAV:   3    -0.356431483126E+02   -0.56720E-05   -0.28945E-05    80   0.535E-02    0.866E-03
DAV:   4    -0.356431533484E+02   -0.50358E-05   -0.94156E-06    64   0.262E-02    0.387E-03
DAV:   5    -0.356431542453E+02   -0.89692E-06   -0.15747E-06    64   0.108E-02    0.162E-03
DAV:   6    -0.356431549418E+02   -0.69652E-06   -0.46179E-07    48   0.539E-03
   8 F= -.35643155E+02 E0= -.35643155E+02  d E =-.409016E-04
damped:  g(F)=  0.000E+00 g(S)=  0.000E+00 dE (1.order)= 0.000E+00
 bond charge predicted
       N       E                     dE             d eps       ncg     rms          rms(c)
DAV:   1    -0.356431066757E+02    0.47570E-04   -0.86939E-02    96   0.265E+00    0.695E-02
DAV:   2    -0.356431303241E+02   -0.23648E-04   -0.11014E-03   128   0.270E-01    0.453E-02
DAV:   3    -0.356431370197E+02   -0.66956E-05   -0.57438E-05    80   0.777E-02    0.131E-02
DAV:   4    -0.356431474991E+02   -0.10479E-04   -0.21481E-05    64   0.389E-02    0.562E-03
DAV:   5    -0.356431495516E+02   -0.20525E-05   -0.36674E-06    64   0.168E-02    0.213E-03
DAV:   6    -0.356431511123E+02   -0.15607E-05   -0.96915E-07    48   0.780E-03
   9 F= -.35643151E+02 E0= -.35643151E+02  d E =0.382950E-05
damped:  g(F)=  0.000E+00 g(S)=  0.000E+00 dE (1.order)= 0.000E+00
 bond charge predicted
       N       E                     dE             d eps       ncg     rms          rms(c)
DAV:   1    -0.356429924289E+02    0.15712E-03   -0.15141E-01    96   0.349E+00    0.911E-02
DAV:   2    -0.356430472092E+02   -0.54780E-04   -0.19136E-03   112   0.355E-01    0.596E-02
DAV:   3    -0.356430535536E+02   -0.63444E-05   -0.93570E-05    80   0.101E-01    0.173E-02
DAV:   4    -0.356430701626E+02   -0.16609E-04   -0.37505E-05    64   0.510E-02    0.727E-03
DAV:   5    -0.356430737997E+02   -0.36371E-05   -0.64289E-06    64   0.224E-02    0.256E-03
DAV:   6    -0.356430763669E+02   -0.25672E-05   -0.15762E-06    48   0.989E-03
  10 F= -.35643076E+02 E0= -.35643076E+02  d E =0.747455E-04
damped:  g(F)=  0.000E+00 g(S)=  0.000E+00 dE (1.order)= 0.000E+00
 bond charge predicted
       N       E                     dE             d eps       ncg     rms          rms(c)
DAV:   1    -0.356427545750E+02    0.31922E-03   -0.28541E-01    96   0.480E+00    0.124E-01
DAV:   2    -0.356428748612E+02   -0.12029E-03   -0.36012E-03   112   0.485E-01    0.815E-02
DAV:   3    -0.356428820235E+02   -0.71623E-05   -0.19472E-04   112   0.136E-01    0.235E-02
DAV:   4    -0.356429084052E+02   -0.26382E-04   -0.41855E-05    88   0.533E-02    0.950E-03
DAV:   5    -0.356429143386E+02   -0.59334E-05   -0.61978E-06    64   0.219E-02    0.345E-03
DAV:   6    -0.356429184336E+02   -0.40950E-05   -0.13569E-06    48   0.976E-03
  11 F= -.35642918E+02 E0= -.35642918E+02  d E =0.157933E-03
damped:  g(F)=  0.000E+00 g(S)=  0.000E+00 dE (1.order)= 0.000E+00
 bond charge predicted
       N       E                     dE             d eps       ncg     rms          rms(c)
DAV:   1    -0.356423796071E+02    0.53473E-03   -0.49452E-01    96   0.632E+00    0.163E-01
DAV:   2    -0.356426075854E+02   -0.22798E-03   -0.62288E-03   112   0.637E-01    0.107E-01
DAV:   3    -0.356426126599E+02   -0.50745E-05   -0.32324E-04   112   0.177E-01    0.307E-02
DAV:   4    -0.356426544773E+02   -0.41817E-04   -0.73346E-05    80   0.704E-02    0.123E-02
DAV:   5    -0.356426639130E+02   -0.94357E-05   -0.10592E-05    64   0.288E-02    0.436E-03
DAV:   6    -0.356426704713E+02   -0.65583E-05   -0.21718E-06    64   0.123E-02
  12 F= -.35642670E+02 E0= -.35642670E+02  d E =0.247962E-03
damped:  g(F)=  0.000E+00 g(S)=  0.000E+00 dE (1.order)= 0.000E+00
 bond charge predicted
       N       E                     dE             d eps       ncg     rms          rms(c)
DAV:   1    -0.356418580049E+02    0.80591E-03   -0.79650E-01    96   0.803E+00    0.206E-01
DAV:   2    -0.356422476289E+02   -0.38962E-03   -0.10041E-02   112   0.807E-01    0.135E-01
DAV:   3    -0.356422527757E+02   -0.51468E-05   -0.50369E-04   120   0.221E-01    0.387E-02
DAV:   4    -0.356423164144E+02   -0.63639E-04   -0.11979E-04    80   0.898E-02    0.154E-02
DAV:   5    -0.356423311322E+02   -0.14718E-04   -0.17075E-05    64   0.369E-02    0.528E-03
DAV:   6    -0.356423410953E+02   -0.99631E-05   -0.32944E-06    64   0.151E-02
  13 F= -.35642341E+02 E0= -.35642341E+02  d E =0.329376E-03
damped:  g(F)=  0.000E+00 g(S)=  0.000E+00 dE (1.order)= 0.000E+00
 bond charge predicted
       N       E                     dE             d eps       ncg     rms          rms(c)
DAV:   1    -0.356412534692E+02    0.10777E-02   -0.11999E+00    96   0.986E+00    0.252E-01
DAV:   2    -0.356418760498E+02   -0.62258E-03   -0.15148E-02   112   0.999E-01    0.165E-01
DAV:   3    -0.356418658824E+02    0.10167E-04   -0.74239E-04   120   0.272E-01    0.474E-02
DAV:   4    -0.356419653697E+02   -0.99487E-04   -0.20817E-04   120   0.110E-01    0.206E-02
DAV:   5    -0.356419816813E+02   -0.16312E-04   -0.11094E-05    64   0.331E-02    0.647E-03
DAV:   6    -0.356419962490E+02   -0.14568E-04   -0.40904E-06    64   0.164E-02
  14 F= -.35641996E+02 E0= -.35641996E+02  d E =0.344846E-03
damped:  g(F)=  0.000E+00 g(S)=  0.000E+00 dE (1.order)= 0.000E+00
 bond charge predicted
       N       E                     dE             d eps       ncg     rms          rms(c)
DAV:   1    -0.356409125378E+02    0.10691E-02   -0.16817E+00    96   0.117E+01    0.298E-01
DAV:   2    -0.356418258224E+02   -0.91328E-03   -0.21267E-02   112   0.119E+00    0.196E-01
DAV:   3    -0.356417785926E+02    0.47230E-04   -0.10499E-03   128   0.323E-01    0.558E-02
DAV:   4    -0.356419170869E+02   -0.13849E-03   -0.29308E-04   112   0.129E-01    0.244E-02
DAV:   5    -0.356419400763E+02   -0.22989E-04   -0.16237E-05    64   0.395E-02    0.708E-03
DAV:   6    -0.356419598707E+02   -0.19794E-04   -0.56101E-06    80   0.189E-02
  15 F= -.35641960E+02 E0= -.35641960E+02  d E =0.363783E-04
damped:  g(F)=  0.000E+00 g(S)=  0.000E+00 dE (1.order)= 0.000E+00
 bond charge predicted
       N       E                     dE             d eps       ncg     rms          rms(c)
DAV:   1    -0.356411652230E+02    0.77485E-03   -0.21338E+00    96   0.131E+01    0.340E-01
DAV:   2    -0.356423216234E+02   -0.11564E-02   -0.27169E-02   112   0.135E+00    0.223E-01
DAV:   3    -0.356422229132E+02    0.98710E-04   -0.14461E-03   128   0.371E-01    0.630E-02
DAV:   4    -0.356423923044E+02   -0.16939E-03   -0.36161E-04   120   0.144E-01    0.284E-02
DAV:   5    -0.356424217249E+02   -0.29421E-04   -0.23405E-05    64   0.456E-02    0.796E-03
DAV:   6    -0.356424450056E+02   -0.23281E-04   -0.73007E-06    80   0.227E-02
  16 F= -.35642445E+02 E0= -.35642445E+02  d E =-.485135E-03
damped:  g(F)=  0.000E+00 g(S)=  0.000E+00 dE (1.order)= 0.000E+00
 bond charge predicted
       N       E                     dE             d eps       ncg     rms          rms(c)
DAV:   1    -0.356424938880E+02   -0.72163E-04   -0.98960E-05    64   0.938E-02    0.364E-03
DAV:   2    -0.356425071170E+02   -0.13229E-04   -0.59102E-06    96   0.225E-02    0.250E-03
DAV:   3    -0.356425211542E+02   -0.14037E-04   -0.11684E-06    64   0.842E-03    0.157E-03
DAV:   4    -0.356425422149E+02   -0.21061E-04   -0.13390E-06    80   0.746E-03    0.820E-04
DAV:   5    -0.356425507054E+02   -0.84904E-05   -0.42795E-07    80   0.389E-03    0.565E-04
DAV:   6    -0.356425679443E+02   -0.17239E-04   -0.94776E-07    88   0.386E-03
  17 F= -.35642568E+02 E0= -.35642568E+02  d E =-.122939E-03
damped:  g(F)=  0.000E+00 g(S)=  0.000E+00 dE (1.order)= 0.000E+00
 bond charge predicted
       N       E                     dE             d eps       ncg     rms          rms(c)
DAV:   1    -0.356426207387E+02   -0.70033E-04   -0.28927E-04   112   0.157E-01    0.620E-03
DAV:   2    -0.356426225484E+02   -0.18096E-05   -0.45764E-06    80   0.189E-02    0.373E-03
DAV:   3    -0.356426249403E+02   -0.23920E-05   -0.13618E-06    80   0.107E-02    0.157E-03
DAV:   4    -0.356426271070E+02   -0.21667E-05   -0.44006E-07    64   0.575E-03    0.770E-04
DAV:   5    -0.356426290769E+02   -0.19699E-05   -0.10742E-07    80   0.246E-03    0.247E-04
DAV:   6    -0.356426305158E+02   -0.14389E-05   -0.52385E-08    80   0.118E-03
  18 F= -.35642631E+02 E0= -.35642631E+02  d E =-.625715E-04
damped:  g(F)=  0.000E+00 g(S)=  0.000E+00 dE (1.order)= 0.000E+00
 bond charge predicted
       N       E                     dE             d eps       ncg     rms          rms(c)
DAV:   1    -0.356426787974E+02   -0.49720E-04   -0.51690E-04    96   0.209E-01    0.711E-03
DAV:   2    -0.356426788482E+02   -0.50870E-07   -0.58875E-06    48   0.218E-02    0.449E-03
DAV:   3    -0.356426794967E+02   -0.64851E-06   -0.23239E-06    88   0.132E-02    0.138E-03
DAV:   4    -0.356426797922E+02   -0.29544E-06   -0.37749E-07    48   0.565E-03    0.896E-04
DAV:   5    -0.356426802084E+02   -0.41623E-06   -0.80821E-08    48   0.229E-03    0.318E-04
DAV:   6    -0.356426805843E+02   -0.37591E-06   -0.35171E-08    64   0.114E-03
  19 F= -.35642681E+02 E0= -.35642681E+02  d E =-.500685E-04
damped:  g(F)=  0.000E+00 g(S)=  0.000E+00 dE (1.order)= 0.000E+00
 bond charge predicted
       N       E                     dE             d eps       ncg     rms          rms(c)
DAV:   1    -0.356427303860E+02   -0.50178E-04   -0.11919E-03    96   0.315E-01    0.935E-03
DAV:   2    -0.356427303735E+02    0.12507E-07   -0.12934E-05    64   0.324E-02    0.562E-03
DAV:   3    -0.356427308010E+02   -0.42752E-06   -0.31325E-06    64   0.152E-02    0.143E-03
DAV:   4    -0.356427309212E+02   -0.12018E-06   -0.59356E-07    48   0.679E-03    0.829E-04
DAV:   5    -0.356427310577E+02   -0.13654E-06   -0.15317E-07    48   0.296E-03    0.346E-04
DAV:   6    -0.356427312032E+02   -0.14551E-06   -0.70563E-08    48   0.173E-03
  20 F= -.35642731E+02 E0= -.35642731E+02  d E =-.506189E-04
damped:  g(F)=  0.000E+00 g(S)=  0.000E+00 dE (1.order)= 0.000E+00
 bond charge predicted
       N       E                     dE             d eps       ncg     rms          rms(c)
DAV:   1    -0.356427796226E+02   -0.48565E-04   -0.32125E-03    96   0.513E-01    0.142E-02
DAV:   2    -0.356427801050E+02   -0.48240E-06   -0.37299E-05    64   0.542E-02    0.860E-03
DAV:   3    -0.356427806701E+02   -0.56504E-06   -0.64114E-06    64   0.228E-02    0.238E-03
DAV:   4    -0.356427809388E+02   -0.26871E-06   -0.15228E-06    48   0.104E-02    0.109E-03
DAV:   5    -0.356427810400E+02   -0.10125E-06   -0.41511E-07    48   0.500E-03    0.433E-04
DAV:   6    -0.356427811367E+02   -0.96697E-07   -0.16914E-07    48   0.283E-03
  21 F= -.35642781E+02 E0= -.35642781E+02  d E =-.499335E-04
damped:  g(F)=  0.000E+00 g(S)=  0.000E+00 dE (1.order)= 0.000E+00
 bond charge predicted
       N       E                     dE             d eps       ncg     rms          rms(c)
DAV:   1    -0.356428180176E+02   -0.36978E-04   -0.80381E-03    96   0.806E-01    0.215E-02
DAV:   2    -0.356428198774E+02   -0.18598E-05   -0.90724E-05    64   0.838E-02    0.132E-02
DAV:   3    -0.356428210607E+02   -0.11832E-05   -0.14418E-05    64   0.347E-02    0.363E-03
DAV:   4    -0.356428216829E+02   -0.62221E-06   -0.36617E-06    48   0.159E-02    0.154E-03
DAV:   5    -0.356428218888E+02   -0.20591E-06   -0.10004E-06    48   0.769E-03    0.586E-04
DAV:   6    -0.356428220704E+02   -0.18161E-06   -0.37571E-07    48   0.427E-03
  22 F= -.35642822E+02 E0= -.35642822E+02  d E =-.409337E-04
damped:  g(F)=  0.000E+00 g(S)=  0.000E+00 dE (1.order)= 0.000E+00
 bond charge predicted
       N       E                     dE             d eps       ncg     rms          rms(c)
DAV:   1    -0.356428413745E+02   -0.19486E-04   -0.23436E-02    96   0.138E+00    0.351E-02
DAV:   2    -0.356428523267E+02   -0.10952E-04   -0.29459E-04   112   0.140E-01    0.229E-02
DAV:   3    -0.356428521045E+02    0.22216E-06   -0.12995E-05    80   0.385E-02    0.665E-03
DAV:   4    -0.356428536316E+02   -0.15271E-05   -0.58135E-06    48   0.198E-02    0.273E-03
DAV:   5    -0.356428540729E+02   -0.44128E-06   -0.10239E-06    56   0.907E-03    0.750E-04
DAV:   6    -0.356428543853E+02   -0.31235E-06   -0.21365E-07    48   0.354E-03
  23 F= -.35642854E+02 E0= -.35642854E+02  d E =-.323149E-04
damped:  g(F)=  0.000E+00 g(S)=  0.000E+00 dE (1.order)= 0.000E+00
 bond charge predicted
       N       E                     dE             d eps       ncg     rms          rms(c)
DAV:   1    -0.356428479424E+02    0.61305E-05   -0.59391E-02    96   0.220E+00    0.544E-02
DAV:   2    -0.356428772063E+02   -0.29264E-04   -0.73124E-04   112   0.222E-01    0.356E-02
DAV:   3    -0.356428774783E+02   -0.27196E-06   -0.32079E-05    96   0.609E-02    0.102E-02
DAV:   4    -0.356428812853E+02   -0.38070E-05   -0.14276E-05    64   0.312E-02    0.425E-03
DAV:   5    -0.356428824160E+02   -0.11307E-05   -0.24446E-06    64   0.142E-02    0.115E-03
DAV:   6    -0.356428831772E+02   -0.76125E-06   -0.49676E-07    48   0.563E-03
  24 F= -.35642883E+02 E0= -.35642883E+02  d E =-.287920E-04
damped:  g(F)=  0.000E+00 g(S)=  0.000E+00 dE (1.order)= 0.000E+00
 bond charge predicted
       N       E                     dE             d eps       ncg     rms          rms(c)
DAV:   1    -0.356428064400E+02    0.75976E-04   -0.13671E-01    96   0.334E+00    0.812E-02
DAV:   2    -0.356428753790E+02   -0.68939E-04   -0.16843E-03   112   0.338E-01    0.533E-02
DAV:   3    -0.356428768762E+02   -0.14972E-05   -0.73584E-05    80   0.925E-02    0.160E-02
DAV:   4    -0.356428860951E+02   -0.92189E-05   -0.33767E-05    64   0.486E-02    0.652E-03
DAV:   5    -0.356428885501E+02   -0.24550E-05   -0.60686E-06    64   0.228E-02    0.184E-03
DAV:   6    -0.356428901531E+02   -0.16029E-05   -0.12376E-06    48   0.909E-03
  25 F= -.35642890E+02 E0= -.35642890E+02  d E =-.697581E-05
damped:  g(F)=  0.000E+00 g(S)=  0.000E+00 dE (1.order)= 0.000E+00
 bond charge predicted
       N       E                     dE             d eps       ncg     rms          rms(c)
DAV:   1    -0.356426592797E+02    0.22927E-03   -0.27272E-01    96   0.473E+00    0.114E-01
DAV:   2    -0.356427966236E+02   -0.13734E-03   -0.33572E-03   112   0.475E-01    0.745E-02
DAV:   3    -0.356428062526E+02   -0.96290E-05   -0.16804E-04   112   0.128E-01    0.225E-02
DAV:   4    -0.356428236482E+02   -0.17396E-04   -0.40950E-05    88   0.528E-02    0.892E-03
DAV:   5    -0.356428279168E+02   -0.42686E-05   -0.60506E-06    64   0.226E-02    0.283E-03
DAV:   6    -0.356428309637E+02   -0.30469E-05   -0.11494E-06    48   0.913E-03
  26 F= -.35642831E+02 E0= -.35642831E+02  d E =0.591893E-04
damped:  g(F)=  0.000E+00 g(S)=  0.000E+00 dE (1.order)= 0.000E+00
 bond charge predicted
       N       E                     dE             d eps       ncg     rms          rms(c)
DAV:   1    -0.356423412068E+02    0.48671E-03   -0.49119E-01    96   0.633E+00    0.151E-01
DAV:   2    -0.356425959942E+02   -0.25479E-03   -0.60131E-03   112   0.635E-01    0.996E-02
DAV:   3    -0.356426090622E+02   -0.13068E-04   -0.29431E-04   112   0.170E-01    0.301E-02
DAV:   4    -0.356426430600E+02   -0.33998E-04   -0.72701E-05    80   0.699E-02    0.118E-02
DAV:   5    -0.356426507421E+02   -0.76820E-05   -0.10366E-05    64   0.291E-02    0.390E-03
DAV:   6    -0.356426560045E+02   -0.52624E-05   -0.18846E-06    64   0.116E-02
  27 F= -.35642656E+02 E0= -.35642656E+02  d E =0.174959E-03
damped:  g(F)=  0.000E+00 g(S)=  0.000E+00 dE (1.order)= 0.000E+00
 bond charge predicted
       N       E                     dE             d eps       ncg     rms          rms(c)
DAV:   1    -0.356418392539E+02    0.81149E-03   -0.81690E-01    96   0.815E+00    0.194E-01
DAV:   2    -0.356423003125E+02   -0.46106E-03   -0.99931E-03   112   0.819E-01    0.128E-01
DAV:   3    -0.356422911214E+02    0.91911E-05   -0.48008E-04   120   0.217E-01    0.388E-02
DAV:   4    -0.356423561713E+02   -0.65050E-04   -0.13793E-04   120   0.903E-02    0.167E-02
DAV:   5    -0.356423660645E+02   -0.98932E-05   -0.75023E-06    64   0.272E-02    0.537E-03
DAV:   6    -0.356423747375E+02   -0.86730E-05   -0.26688E-06    64   0.134E-02
  28 F= -.35642375E+02 E0= -.35642375E+02  d E =0.281267E-03
damped:  g(F)=  0.000E+00 g(S)=  0.000E+00 dE (1.order)= 0.000E+00
 bond charge predicted
       N       E                     dE             d eps       ncg     rms          rms(c)
DAV:   1    -0.356412656952E+02    0.11004E-02   -0.12655E+00    96   0.101E+01    0.241E-01
DAV:   2    -0.356420394838E+02   -0.77379E-03   -0.15501E-02   112   0.102E+00    0.159E-01
DAV:   3    -0.356419807982E+02    0.58686E-04   -0.74029E-04   120   0.270E-01    0.483E-02
DAV:   4    -0.356420824450E+02   -0.10165E-03   -0.21927E-04   120   0.114E-01    0.208E-02
DAV:   5    -0.356420979774E+02   -0.15532E-04   -0.12631E-05    64   0.354E-02    0.657E-03
DAV:   6    -0.356421115999E+02   -0.13623E-04   -0.43220E-06    64   0.171E-02
  29 F= -.35642112E+02 E0= -.35642112E+02  d E =0.263138E-03
damped:  g(F)=  0.000E+00 g(S)=  0.000E+00 dE (1.order)= 0.000E+00
 bond charge predicted
       N       E                     dE             d eps       ncg     rms          rms(c)
DAV:   1    -0.356407845796E+02    0.13134E-02   -0.18243E+00    96   0.121E+01    0.290E-01
DAV:   2    -0.356419777603E+02   -0.11932E-02   -0.22386E-02   112   0.123E+00    0.191E-01
DAV:   3    -0.356418671646E+02    0.11060E-03   -0.10784E-03   128   0.324E-01    0.575E-02
DAV:   4    -0.356419920972E+02   -0.12493E-03   -0.31406E-04   112   0.135E-01    0.251E-02
DAV:   5    -0.356420140945E+02   -0.21997E-04   -0.17392E-05    64   0.411E-02    0.793E-03
DAV:   6    -0.356420335996E+02   -0.19505E-04   -0.60423E-06    80   0.200E-02
  30 F= -.35642034E+02 E0= -.35642034E+02  d E =0.780003E-04
damped:  g(F)=  0.000E+00 g(S)=  0.000E+00 dE (1.order)= 0.000E+00
 bond charge predicted
       N       E                     dE             d eps       ncg     rms          rms(c)
DAV:   1    -0.356405519721E+02    0.14621E-02   -0.24202E+00    96   0.140E+01    0.337E-01
DAV:   2    -0.356421747285E+02   -0.16228E-02   -0.29958E-02   112   0.142E+00    0.222E-01
DAV:   3    -0.356420091339E+02    0.16559E-03   -0.15095E-03   128   0.377E-01    0.675E-02
DAV:   4    -0.356421715052E+02   -0.16237E-03   -0.41082E-04   112   0.156E-01    0.296E-02
DAV:   5    -0.356421994080E+02   -0.27903E-04   -0.24201E-05    64   0.474E-02    0.984E-03
DAV:   6    -0.356422236158E+02   -0.24208E-04   -0.85291E-06    80   0.244E-02
  31 F= -.35642224E+02 E0= -.35642224E+02  d E =-.190016E-03
damped:  g(F)=  0.000E+00 g(S)=  0.000E+00 dE (1.order)= 0.000E+00
 bond charge predicted
       N       E                     dE             d eps       ncg     rms          rms(c)
DAV:   1    -0.356404263367E+02    0.17731E-02   -0.26759E+00    96   0.147E+01    0.363E-01
DAV:   2    -0.356421116081E+02   -0.16853E-02   -0.34075E-02   112   0.152E+00    0.237E-01
DAV:   3    -0.356419405153E+02    0.17109E-03   -0.17945E-03   128   0.404E-01    0.758E-02
DAV:   4    -0.356421390584E+02   -0.19854E-03   -0.44697E-04   112   0.165E-01    0.320E-02
DAV:   5    -0.356421761300E+02   -0.37072E-04   -0.30861E-05    80   0.529E-02    0.106E-02
DAV:   6    -0.356422030850E+02   -0.26955E-04   -0.99237E-06    80   0.275E-02
  32 F= -.35642203E+02 E0= -.35642203E+02  d E =0.205309E-04
damped:  g(F)=  0.000E+00 g(S)=  0.000E+00 dE (1.order)= 0.000E+00
 bond charge predicted
       N       E                     dE             d eps       ncg     rms          rms(c)
DAV:   1    -0.356423496218E+02   -0.17349E-03   -0.26104E-03    96   0.490E-01    0.228E-02
DAV:   2    -0.356423609056E+02   -0.11284E-04   -0.61307E-05    96   0.740E-02    0.109E-02
DAV:   3    -0.356423757290E+02   -0.14823E-04   -0.15542E-05    64   0.386E-02    0.481E-03
DAV:   4    -0.356423948052E+02   -0.19076E-04   -0.74589E-06    96   0.251E-02    0.190E-03
DAV:   5    -0.356424072387E+02   -0.12433E-04   -0.16865E-06    64   0.118E-02    0.112E-03
DAV:   6    -0.356424176674E+02   -0.10429E-04   -0.68053E-07    96   0.624E-03
  33 F= -.35642418E+02 E0= -.35642418E+02  d E =-.214582E-03
damped:  g(F)=  0.000E+00 g(S)=  0.000E+00 dE (1.order)= 0.000E+00
 bond charge predicted
       N       E                     dE             d eps       ncg     rms          rms(c)
DAV:   1    -0.356424685672E+02   -0.61329E-04   -0.44846E-03    96   0.643E-01    0.277E-02
DAV:   2    -0.356424658267E+02    0.27404E-05   -0.99406E-05    96   0.941E-02    0.133E-02
DAV:   3    -0.356424685011E+02   -0.26744E-05   -0.25919E-05    64   0.489E-02    0.575E-03
DAV:   4    -0.356424739863E+02   -0.54852E-05   -0.10058E-05    96   0.300E-02    0.235E-03
DAV:   5    -0.356424775262E+02   -0.35399E-05   -0.20364E-06    64   0.136E-02    0.142E-03
DAV:   6    -0.356424805938E+02   -0.30677E-05   -0.49178E-07    96   0.672E-03
  34 F= -.35642481E+02 E0= -.35642481E+02  d E =-.629265E-04
damped:  g(F)=  0.000E+00 g(S)=  0.000E+00 dE (1.order)= 0.000E+00
 bond charge predicted
       N       E                     dE             d eps       ncg     rms          rms(c)
DAV:   1    -0.356425030027E+02   -0.25477E-04   -0.55182E-05    64   0.721E-02    0.330E-03
DAV:   2    -0.356425044848E+02   -0.14820E-05   -0.34057E-06    48   0.176E-02    0.185E-03
DAV:   3    -0.356425056482E+02   -0.11635E-05   -0.38981E-07    48   0.599E-03    0.117E-03
DAV:   4    -0.356425076124E+02   -0.19642E-05   -0.28698E-07    96   0.522E-03    0.386E-04
DAV:   5    -0.356425082005E+02   -0.58809E-06   -0.76256E-08    48   0.241E-03    0.271E-04
DAV:   6    -0.356425089673E+02   -0.76675E-06   -0.34708E-08    48   0.123E-03
  35 F= -.35642509E+02 E0= -.35642509E+02  d E =-.283734E-04
damped:  g(F)=  0.000E+00 g(S)=  0.000E+00 dE (1.order)= 0.000E+00
 bond charge predicted
       N       E                     dE             d eps       ncg     rms          rms(c)
DAV:   1    -0.356425400532E+02   -0.31853E-04   -0.18964E-04    96   0.130E-01    0.670E-03
DAV:   2    -0.356425399100E+02    0.14324E-06   -0.45119E-06    92   0.196E-02    0.337E-03
DAV:   3    -0.356425401343E+02   -0.22440E-06   -0.12000E-06    48   0.106E-02    0.148E-03
DAV:   4    -0.356425406188E+02   -0.48444E-06   -0.53658E-07    72   0.670E-03    0.508E-04
DAV:   5    -0.356425409052E+02   -0.28644E-06   -0.10894E-07    48   0.304E-03    0.254E-04
DAV:   6    -0.356425411449E+02   -0.23963E-06   -0.37133E-08    84   0.140E-03
  36 F= -.35642541E+02 E0= -.35642541E+02  d E =-.321776E-04
damped:  g(F)=  0.000E+00 g(S)=  0.000E+00 dE (1.order)= 0.000E+00
 bond charge predicted
       N       E                     dE             d eps       ncg     rms          rms(c)
DAV:   1    -0.356425680496E+02   -0.27144E-04   -0.34198E-04    96   0.173E-01    0.804E-03
DAV:   2    -0.356425673545E+02    0.69507E-06   -0.70384E-06    84   0.243E-02    0.431E-03
DAV:   3    -0.356425671763E+02    0.17824E-06   -0.17535E-06    88   0.128E-02    0.186E-03
DAV:   4    -0.356425673172E+02   -0.14093E-06   -0.72724E-07    72   0.781E-03    0.631E-04
DAV:   5    -0.356425674185E+02   -0.10125E-06   -0.14003E-07    48   0.337E-03    0.264E-04
DAV:   6    -0.356425674904E+02   -0.71927E-07   -0.41839E-08    48   0.133E-03
  37 F= -.35642567E+02 E0= -.35642567E+02  d E =-.263455E-04
damped:  g(F)=  0.000E+00 g(S)=  0.000E+00 dE (1.order)= 0.000E+00
 bond charge predicted
       N       E                     dE             d eps       ncg     rms          rms(c)
DAV:   1    -0.356425843332E+02   -0.16915E-04   -0.60316E-04    96   0.226E-01    0.818E-03
DAV:   2    -0.356425835172E+02    0.81599E-06   -0.90035E-06    64   0.273E-02    0.490E-03
DAV:   3    -0.356425832800E+02    0.23720E-06   -0.21498E-06    48   0.138E-02    0.204E-03
DAV:   4    -0.356425833833E+02   -0.10324E-06   -0.75447E-07    48   0.780E-03    0.858E-04
DAV:   5    -0.356425834686E+02   -0.85326E-07   -0.15507E-07    48   0.325E-03    0.241E-04
DAV:   6    -0.356425835272E+02   -0.58638E-07   -0.51333E-08    48   0.129E-03
  38 F= -.35642584E+02 E0= -.35642584E+02  d E =-.160368E-04
damped:  g(F)=  0.000E+00 g(S)=  0.000E+00 dE (1.order)= 0.000E+00
 bond charge predicted
       N       E                     dE             d eps       ncg     rms          rms(c)
DAV:   1    -0.356425930962E+02   -0.96276E-05   -0.12766E-03    96   0.324E-01    0.912E-03
DAV:   2    -0.356425925181E+02    0.57812E-06   -0.14761E-05    64   0.343E-02    0.578E-03
DAV:   3    -0.356425925214E+02   -0.32721E-08   -0.33543E-06    64   0.163E-02    0.183E-03
DAV:   4    -0.356425926736E+02   -0.15227E-06   -0.79546E-07    48   0.770E-03    0.108E-03
DAV:   5    -0.356425927742E+02   -0.10056E-06   -0.18892E-07    48   0.328E-03    0.392E-04
DAV:   6    -0.356425928556E+02   -0.81404E-07   -0.78191E-08    48   0.166E-03
  39 F= -.35642593E+02 E0= -.35642593E+02  d E =-.932836E-05
damped:  g(F)=  0.000E+00 g(S)=  0.000E+00 dE (1.order)= 0.000E+00
 bond charge predicted
       N       E                     dE             d eps       ncg     rms          rms(c)
DAV:   1    -0.356426015435E+02   -0.87693E-05   -0.23780E-03    96   0.440E-01    0.114E-02
DAV:   2    -0.356426013569E+02    0.18658E-06   -0.26297E-05    64   0.455E-02    0.711E-03
DAV:   3    -0.356426017406E+02   -0.38367E-06   -0.54028E-06    64   0.202E-02    0.191E-03
DAV:   4    -0.356426019506E+02   -0.21005E-06   -0.11820E-06    48   0.919E-03    0.113E-03
DAV:   5    -0.356426020662E+02   -0.11557E-06   -0.30922E-07    48   0.416E-03    0.431E-04
DAV:   6    -0.356426021557E+02   -0.89524E-07   -0.12623E-07    48   0.230E-03
  40 F= -.35642602E+02 E0= -.35642602E+02  d E =-.930016E-05
damped:  g(F)=  0.000E+00 g(S)=  0.000E+00 dE (1.order)= 0.000E+00
 bond charge predicted
       N       E                     dE             d eps       ncg     rms          rms(c)
DAV:   1    -0.356426120412E+02   -0.99750E-05   -0.50175E-03    96   0.640E-01    0.163E-02
DAV:   2    -0.356426123162E+02   -0.27498E-06   -0.57639E-05    72   0.675E-02    0.100E-02
DAV:   3    -0.356426131960E+02   -0.87980E-06   -0.10756E-05    72   0.291E-02    0.296E-03
DAV:   4    -0.356426136885E+02   -0.49248E-06   -0.26065E-06    48   0.137E-02    0.154E-03
DAV:   5    -0.356426138471E+02   -0.15855E-06   -0.65025E-07    68   0.644E-03    0.564E-04
DAV:   6    -0.356426139609E+02   -0.11387E-06   -0.24679E-07    48   0.353E-03
  41 F= -.35642614E+02 E0= -.35642614E+02  d E =-.118052E-04
damped:  g(F)=  0.000E+00 g(S)=  0.000E+00 dE (1.order)= 0.000E+00
 bond charge predicted
       N       E                     dE             d eps       ncg     rms          rms(c)
DAV:   1    -0.356426118557E+02    0.19914E-05   -0.98204E-03    96   0.897E-01    0.228E-02
DAV:   2    -0.356426128911E+02   -0.10354E-05   -0.11661E-04    64   0.960E-02    0.139E-02
DAV:   3    -0.356426144081E+02   -0.15170E-05   -0.20810E-05    92   0.412E-02    0.462E-03
DAV:   4    -0.356426154931E+02   -0.10850E-05   -0.55745E-06    48   0.203E-02    0.222E-03
DAV:   5    -0.356426157683E+02   -0.27519E-06   -0.13347E-06    64   0.960E-03    0.787E-04
DAV:   6    -0.356426159649E+02   -0.19662E-06   -0.47899E-07    48   0.512E-03
  42 F= -.35642616E+02 E0= -.35642616E+02  d E =-.200401E-05
damped:  g(F)=  0.000E+00 g(S)=  0.000E+00 dE (1.order)= 0.000E+00
 bond charge predicted
       N       E                     dE             d eps       ncg     rms          rms(c)
DAV:   1    -0.356425753440E+02    0.40424E-04   -0.17793E-02    96   0.121E+00    0.303E-02
DAV:   2    -0.356425813329E+02   -0.59888E-05   -0.24032E-04    96   0.128E-01    0.192E-02
DAV:   3    -0.356425810760E+02    0.25684E-06   -0.13324E-05    68   0.368E-02    0.735E-03
DAV:   4    -0.356425829953E+02   -0.19193E-05   -0.59402E-06    56   0.219E-02    0.282E-03
DAV:   5    -0.356425833828E+02   -0.38746E-06   -0.11907E-06    56   0.103E-02    0.116E-03
DAV:   6    -0.356425836964E+02   -0.31362E-06   -0.34538E-07    48   0.480E-03
  43 F= -.35642584E+02 E0= -.35642584E+02  d E =0.322686E-04
damped:  g(F)=  0.000E+00 g(S)=  0.000E+00 dE (1.order)= 0.000E+00
 bond charge predicted
       N       E                     dE             d eps       ncg     rms          rms(c)
DAV:   1    -0.356424905875E+02    0.92795E-04   -0.30293E-02    96   0.157E+00    0.384E-02
DAV:   2    -0.356425023070E+02   -0.11720E-04   -0.38945E-04   112   0.162E-01    0.246E-02
DAV:   3    -0.356425029745E+02   -0.66750E-06   -0.20012E-05    80   0.453E-02    0.862E-03
DAV:   4    -0.356425059868E+02   -0.30123E-05   -0.85566E-06    48   0.255E-02    0.341E-03
DAV:   5    -0.356425067466E+02   -0.75977E-06   -0.17006E-06    64   0.120E-02    0.128E-03
DAV:   6    -0.356425072862E+02   -0.53960E-06   -0.44495E-07    48   0.535E-03
  44 F= -.35642507E+02 E0= -.35642507E+02  d E =0.764102E-04
damped:  g(F)=  0.000E+00 g(S)=  0.000E+00 dE (1.order)= 0.000E+00
 bond charge predicted
       N       E                     dE             d eps       ncg     rms          rms(c)
DAV:   1    -0.356423745298E+02    0.13222E-03   -0.49952E-02    96   0.201E+00    0.482E-02
DAV:   2    -0.356423953043E+02   -0.20774E-04   -0.61525E-04   112   0.203E-01    0.314E-02
DAV:   3    -0.356423972752E+02   -0.19709E-05   -0.29893E-05    80   0.557E-02    0.988E-03
DAV:   4    -0.356424015166E+02   -0.42414E-05   -0.12196E-05    64   0.294E-02    0.413E-03
DAV:   5    -0.356424027725E+02   -0.12559E-05   -0.22691E-06    48   0.133E-02    0.143E-03
DAV:   6    -0.356424036490E+02   -0.87656E-06   -0.52014E-07    48   0.572E-03
  45 F= -.35642404E+02 E0= -.35642404E+02  d E =0.103637E-03
damped:  g(F)=  0.000E+00 g(S)=  0.000E+00 dE (1.order)= 0.000E+00
 bond charge predicted
       N       E                     dE             d eps       ncg     rms          rms(c)
DAV:   1    -0.356422384836E+02    0.16429E-03   -0.80991E-02    96   0.255E+00    0.611E-02
DAV:   2    -0.356422735358E+02   -0.35052E-04   -0.98602E-04   112   0.256E-01    0.401E-02
DAV:   3    -0.356422760646E+02   -0.25288E-05   -0.46460E-05    80   0.710E-02    0.125E-02
DAV:   4    -0.356422826547E+02   -0.65901E-05   -0.19700E-05    64   0.373E-02    0.514E-03
DAV:   5    -0.356422844820E+02   -0.18273E-05   -0.35400E-06    56   0.166E-02    0.184E-03
DAV:   6    -0.356422858561E+02   -0.13741E-05   -0.76531E-07    56   0.703E-03
  46 F= -.35642286E+02 E0= -.35642286E+02  d E =0.117793E-03
damped:  g(F)=  0.000E+00 g(S)=  0.000E+00 dE (1.order)= 0.000E+00
 bond charge predicted
       N       E                     dE             d eps       ncg     rms          rms(c)
DAV:   1    -0.356420720182E+02    0.21246E-03   -0.12770E-01    96   0.320E+00    0.762E-02
DAV:   2    -0.356421315976E+02   -0.59579E-04   -0.15509E-03   112   0.320E-01    0.500E-02
DAV:   3    -0.356421357191E+02   -0.41214E-05   -0.68678E-05    80   0.876E-02    0.153E-02
DAV:   4    -0.356421460345E+02   -0.10315E-04   -0.30701E-05    64   0.461E-02    0.626E-03
DAV:   5    -0.356421487588E+02   -0.27243E-05   -0.55015E-06    64   0.208E-02    0.202E-03
DAV:   6    -0.356421506026E+02   -0.18437E-05   -0.11173E-06    48   0.847E-03
  47 F= -.35642151E+02 E0= -.35642151E+02  d E =0.135254E-03
damped:  g(F)=  0.000E+00 g(S)=  0.000E+00 dE (1.order)= 0.000E+00
 bond charge predicted
       N       E                     dE             d eps       ncg     rms          rms(c)
DAV:   1    -0.356419365241E+02    0.21223E-03   -0.19604E-01    96   0.396E+00    0.942E-02
DAV:   2    -0.356420337517E+02   -0.97228E-04   -0.23879E-03   112   0.396E-01    0.618E-02
DAV:   3    -0.356420393386E+02   -0.55869E-05   -0.10043E-04    80   0.107E-01    0.190E-02
DAV:   4    -0.356420552753E+02   -0.15937E-04   -0.47039E-05    64   0.565E-02    0.760E-03
DAV:   5    -0.356420593851E+02   -0.41098E-05   -0.85790E-06    64   0.261E-02    0.212E-03
DAV:   6    -0.356420617170E+02   -0.23319E-05   -0.16484E-06    48   0.102E-02
  48 F= -.35642062E+02 E0= -.35642062E+02  d E =0.888856E-04
damped:  g(F)=  0.000E+00 g(S)=  0.000E+00 dE (1.order)= 0.000E+00
 bond charge predicted
       N       E                     dE             d eps       ncg     rms          rms(c)
DAV:   1    -0.356418578503E+02    0.20153E-03   -0.29516E-01    96   0.486E+00    0.116E-01
DAV:   2    -0.356420053528E+02   -0.14750E-03   -0.36072E-03   112   0.486E-01    0.765E-02
DAV:   3    -0.356420136630E+02   -0.83102E-05   -0.17918E-04   112   0.132E-01    0.233E-02
DAV:   4    -0.356420358037E+02   -0.22141E-04   -0.45664E-05    84   0.550E-02    0.913E-03
DAV:   5    -0.356420406499E+02   -0.48462E-05   -0.64895E-06    64   0.230E-02    0.320E-03
DAV:   6    -0.356420443412E+02   -0.36914E-05   -0.11775E-06    48   0.916E-03
  49 F= -.35642044E+02 E0= -.35642044E+02  d E =0.173757E-04
damped:  g(F)=  0.000E+00 g(S)=  0.000E+00 dE (1.order)= 0.000E+00
 bond charge predicted
       N       E                     dE             d eps       ncg     rms          rms(c)
DAV:   1    -0.356418909444E+02    0.14971E-03   -0.43252E-01    96   0.588E+00    0.142E-01
DAV:   2    -0.356421058235E+02   -0.21488E-03   -0.53130E-03   112   0.590E-01    0.931E-02
DAV:   3    -0.356421162818E+02   -0.10458E-04   -0.27109E-04   112   0.162E-01    0.275E-02
DAV:   4    -0.356421482205E+02   -0.31939E-04   -0.65766E-05    68   0.660E-02    0.112E-02
DAV:   5    -0.356421556756E+02   -0.74550E-05   -0.94699E-06    64   0.275E-02    0.370E-03
DAV:   6    -0.356421604975E+02   -0.48219E-05   -0.17551E-06    48   0.112E-02
  50 F= -.35642160E+02 E0= -.35642160E+02  d E =-.116156E-03
damped:  g(F)=  0.000E+00 g(S)=  0.000E+00 dE (1.order)= 0.000E+00
 bond charge predicted
       N       E                     dE             d eps       ncg     rms          rms(c)
DAV:   1    -0.356419512575E+02    0.20442E-03   -0.62309E-01    96   0.706E+00    0.173E-01
DAV:   2    -0.356422642845E+02   -0.31303E-03   -0.77652E-03   112   0.714E-01    0.113E-01
DAV:   3    -0.356422707112E+02   -0.64267E-05   -0.40420E-04   116   0.195E-01    0.340E-02
DAV:   4    -0.356423182360E+02   -0.47525E-04   -0.93851E-05    76   0.793E-02    0.137E-02
DAV:   5    -0.356423292324E+02   -0.10996E-04   -0.13851E-05    64   0.331E-02    0.467E-03
DAV:   6    -0.356423362207E+02   -0.69883E-05   -0.27008E-06    64   0.140E-02
  51 F= -.35642336E+02 E0= -.35642336E+02  d E =-.175723E-03
damped:  g(F)=  0.000E+00 g(S)=  0.000E+00 dE (1.order)= 0.000E+00
 bond charge predicted
       N       E                     dE             d eps       ncg     rms          rms(c)
DAV:   1    -0.356419366060E+02    0.39263E-03   -0.87063E-01    96   0.832E+00    0.206E-01
DAV:   2    -0.356423763648E+02   -0.43976E-03   -0.10815E-02   112   0.839E-01    0.136E-01
DAV:   3    -0.356423701760E+02    0.61888E-05   -0.58108E-04   112   0.234E-01    0.405E-02
DAV:   4    -0.356424400363E+02   -0.69860E-04   -0.15095E-04   128   0.949E-02    0.178E-02
DAV:   5    -0.356424515536E+02   -0.11517E-04   -0.75645E-06    64   0.269E-02    0.670E-03
DAV:   6    -0.356424627396E+02   -0.11186E-04   -0.32441E-06    64   0.152E-02
  52 F= -.35642463E+02 E0= -.35642463E+02  d E =-.126519E-03
damped:  g(F)=  0.000E+00 g(S)=  0.000E+00 dE (1.order)= 0.000E+00
 bond charge predicted
       N       E                     dE             d eps       ncg     rms          rms(c)
DAV:   1    -0.356417529855E+02    0.69857E-03   -0.11793E+00    96   0.970E+00    0.245E-01
DAV:   2    -0.356423584116E+02   -0.60543E-03   -0.15205E-02   112   0.996E-01    0.159E-01
DAV:   3    -0.356423127704E+02    0.45641E-04   -0.77721E-04   128   0.274E-01    0.513E-02
DAV:   4    -0.356424235367E+02   -0.11077E-03   -0.21912E-04   108   0.116E-01    0.208E-02
DAV:   5    -0.356424419184E+02   -0.18382E-04   -0.16812E-05    80   0.407E-02    0.636E-03
DAV:   6    -0.356424553928E+02   -0.13474E-04   -0.47819E-06    80   0.191E-02
  53 F= -.35642455E+02 E0= -.35642455E+02  d E =0.734680E-05
damped:  g(F)=  0.000E+00 g(S)=  0.000E+00 dE (1.order)= 0.000E+00
 bond charge predicted
       N       E                     dE             d eps       ncg     rms          rms(c)
DAV:   1    -0.356412776026E+02    0.11643E-02   -0.15382E+00    96   0.111E+01    0.289E-01
DAV:   2    -0.356420495867E+02   -0.77198E-03   -0.20610E-02   112   0.116E+00    0.190E-01
DAV:   3    -0.356418725432E+02    0.17704E-03   -0.11676E-03   128   0.339E-01    0.738E-02
DAV:   4    -0.356420501917E+02   -0.17765E-03   -0.36137E-04   128   0.158E-01    0.257E-02
DAV:   5    -0.356420737106E+02   -0.23519E-04   -0.38096E-05    80   0.632E-02    0.947E-03
DAV:   6    -0.356420936708E+02   -0.19960E-04   -0.11553E-05    64   0.297E-02
  54 F= -.35642094E+02 E0= -.35642094E+02  d E =0.361722E-03
damped:  g(F)=  0.000E+00 g(S)=  0.000E+00 dE (1.order)= 0.000E+00
 bond charge predicted
       N       E                     dE             d eps       ncg     rms          rms(c)
DAV:   1    -0.356391616735E+02    0.29120E-02   -0.20662E+00    96   0.130E+01    0.373E-01
DAV:   2    -0.356398582578E+02   -0.69658E-03   -0.32102E-02   128   0.147E+00    0.239E-01
DAV:   3    -0.356393936686E+02    0.46459E-03   -0.20959E-03   128   0.450E-01    0.116E-01
DAV:   4    -0.356396031214E+02   -0.20945E-03   -0.75756E-04   128   0.255E-01    0.338E-02
DAV:   5    -0.356396398821E+02   -0.36761E-04   -0.10181E-04    80   0.101E-01    0.152E-02
DAV:   6    -0.356396661419E+02   -0.26260E-04   -0.27957E-05    96   0.457E-02
  55 F= -.35639666E+02 E0= -.35639666E+02  d E =0.242753E-02
damped:  g(F)=  0.000E+00 g(S)=  0.000E+00 dE (1.order)= 0.000E+00
 bond charge predicted
       N       E                     dE             d eps       ncg     rms          rms(c)
DAV:   1    -0.356429594852E+02   -0.33196E-02   -0.83967E-02    96   0.275E+00    0.149E-01
DAV:   2    -0.356427932420E+02    0.16624E-03   -0.23013E-03   128   0.435E-01    0.676E-02
DAV:   3    -0.356427306939E+02    0.62548E-04   -0.34691E-04   128   0.179E-01    0.324E-02
DAV:   4    -0.356427455750E+02   -0.14881E-04   -0.89024E-05    96   0.100E-01    0.997E-03
DAV:   5    -0.356427581656E+02   -0.12591E-04   -0.14506E-05    96   0.381E-02    0.395E-03
DAV:   6    -0.356427664100E+02   -0.82445E-05   -0.27066E-06    64   0.162E-02
  56 F= -.35642766E+02 E0= -.35642766E+02  d E =-.310027E-02
damped:  g(F)=  0.000E+00 g(S)=  0.000E+00 dE (1.order)= 0.000E+00
 bond charge predicted
       N       E                     dE             d eps       ncg     rms          rms(c)
DAV:   1    -0.356414811841E+02    0.12770E-02   -0.11971E-01    96   0.329E+00    0.174E-01
DAV:   2    -0.356412102229E+02    0.27096E-03   -0.32662E-03   128   0.518E-01    0.804E-02
DAV:   3    -0.356411038622E+02    0.10636E-03   -0.51533E-04   128   0.217E-01    0.379E-02
DAV:   4    -0.356411046877E+02   -0.82553E-06   -0.12129E-04    80   0.117E-01    0.121E-02
DAV:   5    -0.356411082105E+02   -0.35228E-05   -0.19158E-05    96   0.443E-02    0.487E-03
DAV:   6    -0.356411117417E+02   -0.35312E-05   -0.36339E-06    64   0.189E-02
  57 F= -.35641112E+02 E0= -.35641112E+02  d E =0.165467E-02
damped:  g(F)=  0.000E+00 g(S)=  0.000E+00 dE (1.order)= 0.000E+00
 bond charge predicted
       N       E                     dE             d eps       ncg     rms          rms(c)
DAV:   1    -0.356418059964E+02   -0.69779E-03   -0.31824E-03    96   0.536E-01    0.290E-02
DAV:   2    -0.356418019824E+02    0.40140E-05   -0.72152E-05    96   0.840E-02    0.134E-02
DAV:   3    -0.356418038523E+02   -0.18699E-05   -0.21465E-05    64   0.465E-02    0.584E-03
DAV:   4    -0.356418092904E+02   -0.54381E-05   -0.93273E-06    64   0.290E-02    0.205E-03
DAV:   5    -0.356418131293E+02   -0.38389E-05   -0.18033E-06    64   0.130E-02    0.916E-04
DAV:   6    -0.356418158045E+02   -0.26753E-05   -0.36262E-07    48   0.590E-03
  58 F= -.35641816E+02 E0= -.35641816E+02  d E =-.704063E-03
damped:  g(F)=  0.000E+00 g(S)=  0.000E+00 dE (1.order)= 0.000E+00
 bond charge predicted
       N       E                     dE             d eps       ncg     rms          rms(c)
DAV:   1    -0.356426638422E+02   -0.85071E-03   -0.10280E-02    96   0.964E-01    0.522E-02
DAV:   2    -0.356426398805E+02    0.23962E-04   -0.27455E-04   128   0.152E-01    0.238E-02
DAV:   3    -0.356426306127E+02    0.92679E-05   -0.38389E-05    64   0.645E-02    0.115E-02
DAV:   4    -0.356426323135E+02   -0.17008E-05   -0.26769E-05    88   0.511E-02    0.404E-03
DAV:   5    -0.356426331813E+02   -0.86781E-06   -0.46385E-06    80   0.211E-02    0.215E-03
DAV:   6    -0.356426338132E+02   -0.63188E-06   -0.88785E-07    80   0.936E-03
  59 F= -.35642634E+02 E0= -.35642634E+02  d E =-.818009E-03
damped:  g(F)=  0.000E+00 g(S)=  0.000E+00 dE (1.order)= 0.000E+00
 bond charge predicted
       N       E                     dE             d eps       ncg     rms          rms(c)
DAV:   1    -0.356429906534E+02   -0.35747E-03   -0.15514E-02    96   0.118E+00    0.638E-02
DAV:   2    -0.356429520292E+02    0.38624E-04   -0.41824E-04   120   0.186E-01    0.291E-02
DAV:   3    -0.356429359135E+02    0.16116E-04   -0.56184E-05    96   0.784E-02    0.142E-02
DAV:   4    -0.356429354252E+02    0.48834E-06   -0.41740E-05    64   0.636E-02    0.504E-03
DAV:   5    -0.356429358179E+02   -0.39276E-06   -0.72972E-06    96   0.266E-02    0.274E-03
DAV:   6    -0.356429362955E+02   -0.47760E-06   -0.13991E-06    64   0.117E-02
  60 F= -.35642936E+02 E0= -.35642936E+02  d E =-.302482E-03
damped:  g(F)=  0.000E+00 g(S)=  0.000E+00 dE (1.order)= 0.000E+00
 bond charge predicted
       N       E                     dE             d eps       ncg     rms          rms(c)
DAV:   1    -0.356429376631E+02   -0.18452E-05   -0.13807E-06    64   0.114E-02    0.650E-04
DAV:   2    -0.356429381798E+02   -0.51666E-06   -0.16131E-07    48   0.369E-03    0.444E-04
DAV:   3    -0.356429390028E+02   -0.82301E-06   -0.68764E-08    64   0.168E-03    0.212E-04
DAV:   4    -0.356429397743E+02   -0.77153E-06   -0.51748E-08    80   0.105E-03    0.124E-04
DAV:   5    -0.356429407701E+02   -0.99580E-06   -0.64984E-08    72   0.106E-03    0.718E-05
DAV:   6    -0.356429413318E+02   -0.56168E-06   -0.48061E-08    88   0.792E-04
  61 F= -.35642941E+02 E0= -.35642941E+02  d E =-.503624E-05
damped:  g(F)=  0.000E+00 g(S)=  0.000E+00 dE (1.order)= 0.000E+00
 bond charge predicted
       N       E                     dE             d eps       ncg     rms          rms(c)
DAV:   1    -0.356429432880E+02   -0.25179E-05   -0.39668E-06    72   0.185E-02    0.585E-04
DAV:   2    -0.356429434095E+02   -0.12147E-06   -0.24533E-07    88   0.447E-03    0.366E-04
DAV:   3    -0.356429435084E+02   -0.98946E-07   -0.56412E-08    48   0.143E-03    0.245E-04
DAV:   4    -0.356429436648E+02   -0.15641E-06   -0.42132E-08    72   0.101E-03    0.732E-05
DAV:   5    -0.356429437337E+02   -0.68840E-07   -0.36111E-08    48   0.495E-04    0.577E-05
DAV:   6    -0.356429438032E+02   -0.69549E-07   -0.34261E-08    48   0.253E-04
  62 F= -.35642944E+02 E0= -.35642944E+02  d E =-.247144E-05
damped:  g(F)=  0.000E+00 g(S)=  0.000E+00 dE (1.order)= 0.000E+00
 bond charge predicted
       N       E                     dE             d eps       ncg     rms          rms(c)
DAV:   1    -0.356429457605E+02   -0.20268E-05   -0.70846E-06    72   0.249E-02    0.828E-04
DAV:   2    -0.356429458166E+02   -0.56104E-07   -0.41091E-07    48   0.597E-03    0.520E-04
DAV:   3    -0.356429458455E+02   -0.28895E-07   -0.76746E-08    48   0.188E-03    0.348E-04
DAV:   4    -0.356429458877E+02   -0.42238E-07   -0.52307E-08    72   0.138E-03    0.106E-04
DAV:   5    -0.356429459040E+02   -0.16263E-07   -0.40120E-08    48   0.647E-04    0.825E-05
DAV:   6    -0.356429459194E+02   -0.15399E-07   -0.35524E-08    48   0.314E-04
  63 F= -.35642946E+02 E0= -.35642946E+02  d E =-.211614E-05
damped:  g(F)=  0.000E+00 g(S)=  0.000E+00 dE (1.order)= 0.000E+00
 bond charge predicted
       N       E                     dE             d eps       ncg     rms          rms(c)
DAV:   1    -0.356429484049E+02   -0.25009E-05   -0.94755E-06    48   0.291E-02    0.101E-03
DAV:   2    -0.356429484470E+02   -0.42116E-07   -0.54067E-07    48   0.691E-03    0.640E-04
DAV:   3    -0.356429484546E+02   -0.76564E-08   -0.87431E-08    48   0.220E-03    0.425E-04
DAV:   4    -0.356429484648E+02   -0.10141E-07   -0.59577E-08    48   0.174E-03    0.130E-04
DAV:   5    -0.356429484681E+02   -0.33635E-08   -0.40040E-08    48   0.804E-04    0.102E-04
DAV:   6    -0.356429484721E+02   -0.39954E-08   -0.34026E-08    48   0.382E-04
  64 F= -.35642948E+02 E0= -.35642948E+02  d E =-.255277E-05
damped:  g(F)=  0.000E+00 g(S)=  0.000E+00 dE (1.order)= 0.000E+00
 bond charge predicted
       N       E                     dE             d eps       ncg     rms          rms(c)
DAV:   1    -0.356429513326E+02   -0.28645E-05   -0.10346E-05    48   0.309E-02    0.107E-03
DAV:   2    -0.356429513719E+02   -0.39287E-07   -0.58051E-07    48   0.725E-03    0.694E-04
DAV:   3    -0.356429513733E+02   -0.13783E-08   -0.89183E-08    48   0.233E-03    0.452E-04
DAV:   4    -0.356429513766E+02   -0.32874E-08   -0.66457E-08    48   0.195E-03    0.146E-04
DAV:   5    -0.356429513770E+02   -0.44247E-09   -0.40208E-08    48   0.896E-04    0.108E-04
DAV:   6    -0.356429513790E+02   -0.19443E-08   -0.33679E-08    48   0.412E-04
  65 F= -.35642951E+02 E0= -.35642951E+02  d E =-.290684E-05
damped:  g(F)=  0.000E+00 g(S)=  0.000E+00 dE (1.order)= 0.000E+00
 bond charge predicted
       N       E                     dE             d eps       ncg     rms          rms(c)
DAV:   1    -0.356429544500E+02   -0.30730E-05   -0.11699E-05    48   0.333E-02    0.105E-03
DAV:   2    -0.356429544949E+02   -0.44886E-07   -0.62519E-07    48   0.773E-03    0.705E-04
DAV:   3    -0.356429544959E+02   -0.93632E-09   -0.93776E-08    48   0.246E-03    0.464E-04
DAV:   4    -0.356429545001E+02   -0.42160E-08   -0.69689E-08    48   0.200E-03    0.157E-04
DAV:   5    -0.356429544999E+02    0.16030E-09   -0.40161E-08    48   0.929E-04    0.116E-04
DAV:   6    -0.356429545020E+02   -0.21025E-08   -0.33490E-08    48   0.414E-04
  66 F= -.35642955E+02 E0= -.35642955E+02  d E =-.312303E-05
damped:  g(F)=  0.000E+00 g(S)=  0.000E+00 dE (1.order)= 0.000E+00
 bond charge predicted
       N       E                     dE             d eps       ncg     rms          rms(c)
DAV:   1    -0.356429581001E+02   -0.36002E-05   -0.21665E-05    48   0.452E-02    0.114E-03
DAV:   2    -0.356429581868E+02   -0.86669E-07   -0.10782E-06    48   0.104E-02    0.811E-04
DAV:   3    -0.356429581928E+02   -0.60493E-08   -0.14829E-07    48   0.326E-03    0.555E-04
DAV:   4    -0.356429581993E+02   -0.64340E-08   -0.79858E-08    48   0.216E-03    0.188E-04
DAV:   5    -0.356429581996E+02   -0.34311E-09   -0.42553E-08    48   0.985E-04    0.151E-04
DAV:   6    -0.356429582021E+02   -0.25518E-08   -0.33451E-08    48   0.440E-04
  67 F= -.35642958E+02 E0= -.35642958E+02  d E =-.370014E-05
damped:  g(F)=  0.000E+00 g(S)=  0.000E+00 dE (1.order)= 0.000E+00
 bond charge predicted
       N       E                     dE             d eps       ncg     rms          rms(c)
DAV:   1    -0.356429623728E+02   -0.41732E-05   -0.45044E-05    48   0.641E-02    0.141E-03
DAV:   2    -0.356429625615E+02   -0.18866E-06   -0.21860E-06    48   0.150E-02    0.994E-04
DAV:   3    -0.356429625818E+02   -0.20324E-07   -0.28124E-07    48   0.461E-03    0.687E-04
DAV:   4    -0.356429625922E+02   -0.10328E-07   -0.10519E-07    48   0.249E-03    0.267E-04
DAV:   5    -0.356429625945E+02   -0.23120E-08   -0.50848E-08    48   0.116E-03    0.173E-04
DAV:   6    -0.356429625976E+02   -0.31564E-08   -0.35693E-08    48   0.564E-04
  68 F= -.35642963E+02 E0= -.35642963E+02  d E =-.439547E-05
damped:  g(F)=  0.000E+00 g(S)=  0.000E+00 dE (1.order)= 0.000E+00
 bond charge predicted
       N       E                     dE             d eps       ncg     rms          rms(c)
DAV:   1    -0.356429674695E+02   -0.48750E-05   -0.91771E-05    48   0.903E-02    0.189E-03
DAV:   2    -0.356429678662E+02   -0.39669E-06   -0.44502E-06    48   0.214E-02    0.127E-03
DAV:   3    -0.356429679168E+02   -0.50641E-07   -0.55184E-07    48   0.649E-03    0.862E-04
DAV:   4    -0.356429679354E+02   -0.18557E-07   -0.16619E-07    48   0.318E-03    0.349E-04
DAV:   5    -0.356429679398E+02   -0.44031E-08   -0.70240E-08    48   0.153E-03    0.198E-04
DAV:   6    -0.356429679436E+02   -0.37980E-08   -0.42020E-08    48   0.798E-04
  69 F= -.35642968E+02 E0= -.35642968E+02  d E =-.534594E-05
damped:  g(F)=  0.000E+00 g(S)=  0.000E+00 dE (1.order)= 0.000E+00
 bond charge predicted
       N       E                     dE             d eps       ncg     rms          rms(c)
DAV:   1    -0.356429745073E+02   -0.65675E-05   -0.18603E-04    96   0.125E-01    0.272E-03
DAV:   2    -0.356429745730E+02   -0.65711E-07   -0.20212E-06    48   0.126E-02    0.176E-03
DAV:   3    -0.356429746053E+02   -0.32303E-07   -0.38238E-07    48   0.531E-03    0.600E-04
DAV:   4    -0.356429746211E+02   -0.15769E-07   -0.12105E-07    48   0.256E-03    0.324E-04
DAV:   5    -0.356429746266E+02   -0.55431E-08   -0.52637E-08    48   0.119E-03    0.140E-04
DAV:   6    -0.356429746346E+02   -0.79965E-08   -0.37662E-08    48   0.641E-04
  70 F= -.35642975E+02 E0= -.35642975E+02  d E =-.669105E-05
damped:  g(F)=  0.000E+00 g(S)=  0.000E+00 dE (1.order)= 0.000E+00
 bond charge predicted
       N       E                     dE             d eps       ncg     rms          rms(c)
DAV:   1    -0.356429828935E+02   -0.82669E-05   -0.34300E-04    96   0.169E-01    0.364E-03
DAV:   2    -0.356429830274E+02   -0.13395E-06   -0.37512E-06    48   0.171E-02    0.233E-03
DAV:   3    -0.356429830784E+02   -0.50970E-07   -0.63396E-07    48   0.691E-03    0.808E-04
DAV:   4    -0.356429831070E+02   -0.28579E-07   -0.18621E-07    48   0.334E-03    0.387E-04
DAV:   5    -0.356429831149E+02   -0.79265E-08   -0.69612E-08    48   0.158E-03    0.163E-04
DAV:   6    -0.356429831232E+02   -0.83114E-08   -0.42592E-08    48   0.842E-04
  71 F= -.35642983E+02 E0= -.35642983E+02  d E =-.848862E-05
damped:  g(F)=  0.000E+00 g(S)=  0.000E+00 dE (1.order)= 0.000E+00
 bond charge predicted
       N       E                     dE             d eps       ncg     rms          rms(c)
DAV:   1    -0.356429931978E+02   -0.10083E-04   -0.60407E-04    96   0.224E-01    0.488E-03
DAV:   2    -0.356429934301E+02   -0.23229E-06   -0.67519E-06    64   0.228E-02    0.308E-03
DAV:   3    -0.356429935005E+02   -0.70433E-07   -0.10878E-06    48   0.917E-03    0.111E-03
DAV:   4    -0.356429935521E+02   -0.51555E-07   -0.31647E-07    48   0.453E-03    0.487E-04
DAV:   5    -0.356429935635E+02   -0.11474E-07   -0.10254E-07    48   0.216E-03    0.207E-04
DAV:   6    -0.356429935751E+02   -0.11574E-07   -0.52395E-08    48   0.115E-03
  72 F= -.35642994E+02 E0= -.35642994E+02  d E =-.104519E-04
damped:  g(F)=  0.000E+00 g(S)=  0.000E+00 dE (1.order)= 0.000E+00
 bond charge predicted
       N       E                     dE             d eps       ncg     rms          rms(c)
DAV:   1    -0.356430049536E+02   -0.11390E-04   -0.10145E-03    96   0.290E-01    0.637E-03
DAV:   2    -0.356430053370E+02   -0.38343E-06   -0.11472E-05    64   0.297E-02    0.399E-03
DAV:   3    -0.356430054345E+02   -0.97496E-07   -0.18099E-06    48   0.119E-02    0.149E-03
DAV:   4    -0.356430055199E+02   -0.85382E-07   -0.53454E-07    48   0.603E-03    0.623E-04
DAV:   5    -0.356430055367E+02   -0.16774E-07   -0.15738E-07    48   0.287E-03    0.266E-04
DAV:   6    -0.356430055546E+02   -0.17894E-07   -0.69522E-08    48   0.152E-03
  73 F= -.35643006E+02 E0= -.35643006E+02  d E =-.119795E-04
damped:  g(F)=  0.000E+00 g(S)=  0.000E+00 dE (1.order)= 0.000E+00
 bond charge predicted
       N       E                     dE             d eps       ncg     rms          rms(c)
DAV:   1    -0.356430169764E+02   -0.11440E-04   -0.16200E-03    96   0.365E-01    0.799E-03
DAV:   2    -0.356430176267E+02   -0.65031E-06   -0.18101E-05    64   0.373E-02    0.502E-03
DAV:   3    -0.356430177675E+02   -0.14077E-06   -0.28059E-06    48   0.149E-02    0.187E-03
DAV:   4    -0.356430178988E+02   -0.13133E-06   -0.83161E-07    48   0.756E-03    0.767E-04
DAV:   5    -0.356430179258E+02   -0.26976E-07   -0.23433E-07    48   0.360E-03    0.330E-04
DAV:   6    -0.356430179537E+02   -0.27935E-07   -0.94386E-08    48   0.191E-03
  74 F= -.35643018E+02 E0= -.35643018E+02  d E =-.123991E-04
damped:  g(F)=  0.000E+00 g(S)=  0.000E+00 dE (1.order)= 0.000E+00
 reached required accuracy - stopping structural energy minimisation
