unknown system                          
           1
    30.000000    0.000000    0.000000
     0.000000   30.000000    0.000000
     0.000000    0.000000   30.000000
   H    C    N 
   3   2   1
Direct configuration=     1
   0.48592760  0.46282834  0.52361142
   0.46702801  0.48893685  0.47309545
   0.46894142  0.52019158  0.52399230
   0.48570519  0.49409715  0.50432242
   0.56761956  0.51687659  0.48696714
   0.53024538  0.50717292  0.49474903
Direct configuration=     2
   0.48588449  0.46290365  0.52354540
   0.46708657  0.48898569  0.47316647
   0.46899701  0.52015188  0.52396864
   0.48575307  0.49413830  0.50431978
   0.56754301  0.51683102  0.48698106
   0.53019583  0.50710592  0.49474751
Direct configuration=     3
   0.48584332  0.46298650  0.52347799
   0.46716302  0.48901923  0.47324758
   0.46905430  0.52010963  0.52394283
   0.48580423  0.49417084  0.50431901
   0.56744751  0.51680944  0.48699621
   0.53014303  0.50702912  0.49473956
Direct configuration=     4
   0.48584886  0.46298135  0.52348389
   0.46716298  0.48900913  0.47324505
   0.46905044  0.52011034  0.52394384
   0.48580220  0.49416591  0.50432054
   0.56744946  0.51682218  0.48699449
   0.53014361  0.50703171  0.49473827
Direct configuration=     5
   0.48586756  0.46296860  0.52349960
   0.46716326  0.48897939  0.47324237
   0.46904045  0.52010707  0.52394529
   0.48579952  0.49415274  0.50432476
   0.56744986  0.51685723  0.48698979
   0.53014439  0.50704082  0.49473474
Direct configuration=     6
   0.48590768  0.46294564  0.52352903
   0.46716421  0.48891998  0.47324280
   0.46902242  0.52009416  0.52394698
   0.48579804  0.49412776  0.50433315
   0.56744425  0.51692454  0.48698041
   0.53014503  0.50706054  0.49472785
Direct configuration=     7
   0.48597777  0.46290984  0.52357573
   0.46716620  0.48882117  0.47325050
   0.46899518  0.52006529  0.52394923
   0.48580003  0.49408717  0.50434748
   0.56742788  0.51703391  0.48696414
   0.53014462  0.50709460  0.49471651
Direct configuration=     8
   0.48608715  0.46285806  0.52364295
   0.46716944  0.48867313  0.47327112
   0.46895861  0.52001284  0.52395368
   0.48580849  0.49402678  0.50437005
   0.56739589  0.51719543  0.48693758
   0.53014094  0.50714623  0.49469965
Direct configuration=     9
   0.48623285  0.46279380  0.52372939
   0.46717570  0.48847749  0.47330323
   0.46891139  0.51993810  0.52395629
   0.48582359  0.49394852  0.50439915
   0.56734924  0.51740747  0.48690345
   0.53013262  0.50721485  0.49467843
Direct configuration=    10
   0.48643263  0.46271301  0.52384550
   0.46718875  0.48820792  0.47335069
   0.46884538  0.51983088  0.52395213
   0.48584846  0.49384343  0.50443670
   0.56728104  0.51769860  0.48686038
   0.53011616  0.50730956  0.49465133
Direct configuration=    11
   0.48669193  0.46262039  0.52399495
   0.46721478  0.48785124  0.47341356
   0.46875299  0.51968689  0.52393049
   0.48588546  0.49370912  0.50448079
   0.56718677  0.51808340  0.48681281
   0.53008828  0.50743522  0.49461928
Direct configuration=    12
   0.48701356  0.46252510  0.52417940
   0.46726290  0.48739673  0.47349271
   0.46862675  0.51950164  0.52387814
   0.48593706  0.49354393  0.50452811
   0.56705786  0.51857301  0.48676762
   0.53004747  0.50759644  0.49458322
Direct configuration=    13
   0.48740075  0.46243730  0.52439619
   0.46734354  0.48683972  0.47359818
   0.46846772  0.51926415  0.52378958
   0.48600895  0.49334607  0.50457824
   0.56687811  0.51917112  0.48672627
   0.52999121  0.50779357  0.49454248
Direct configuration=    14
   0.48785055  0.46237204  0.52463796
   0.46747208  0.48618586  0.47374139
   0.46828209  0.51896228  0.52366024
   0.48610950  0.49311860  0.50463007
   0.56663561  0.51987341  0.48668949
   0.52990466  0.50801871  0.49449842
Direct configuration=    15
   0.48834980  0.46233989  0.52488825
   0.46766492  0.48546985  0.47394533
   0.46810075  0.51857592  0.52351284
   0.48624846  0.49287077  0.50468991
   0.56631448  0.52065415  0.48664022
   0.52976835  0.50824176  0.49444902
Direct configuration=    16
   0.48834852  0.46234208  0.52488804
   0.46766894  0.48547138  0.47394579
   0.46810172  0.51857393  0.52351316
   0.48624893  0.49287161  0.50469029
   0.56630915  0.52065319  0.48664028
   0.52976945  0.50824026  0.49444794
Direct configuration=    17
   0.48834751  0.46234597  0.52488856
   0.46767719  0.48547217  0.47394674
   0.46810268  0.51856930  0.52351333
   0.48625021  0.49287254  0.50469112
   0.56629922  0.52065401  0.48664008
   0.52977020  0.50823789  0.49444608
Direct configuration=    18
   0.48834900  0.46235068  0.52489104
   0.46768968  0.48546904  0.47394811
   0.46810215  0.51856140  0.52351266
   0.48625269  0.49287249  0.50469244
   0.56628623  0.52066037  0.48663910
   0.52976849  0.50823563  0.49444412
Direct configuration=    19
   0.48835560  0.46235513  0.52489683
   0.46770632  0.48545829  0.47394977
   0.46809821  0.51854954  0.52351033
   0.48625662  0.49287019  0.50469435
   0.56627136  0.52067627  0.48663691
   0.52976284  0.50823510  0.49444281
Direct configuration=    20
   0.48837048  0.46235814  0.52490740
   0.46772746  0.48543553  0.47395155
   0.46808842  0.51853270  0.52350529
   0.48626214  0.49286414  0.50469702
   0.56625432  0.52070589  0.48663327
   0.52975309  0.50823888  0.49444287
Direct configuration=    21
   0.48839737  0.46235842  0.52492422
   0.46775398  0.48539567  0.47395319
   0.46806953  0.51850942  0.52349622
   0.48626925  0.49285267  0.50470076
   0.56623339  0.52075367  0.48662812
   0.52974031  0.50825061  0.49444515
Direct configuration=    22
   0.48844660  0.46235387  0.52495194
   0.46779169  0.48532442  0.47395444
   0.46803284  0.51847367  0.52347968
   0.48627893  0.49283138  0.50470673
   0.56620252  0.52083369  0.48662046
   0.52972456  0.50827843  0.49445175
Direct configuration=    23
   0.48852696  0.46234232  0.52499361
   0.46784592  0.48520984  0.47395412
   0.46796889  0.51842061  0.52345246
   0.48629145  0.49279652  0.50471599
   0.56615681  0.52095693  0.48660989
   0.52970744  0.50833105  0.49446544
Direct configuration=    24
   0.48864966  0.46232123  0.52505265
   0.46792469  0.48503677  0.47395053
   0.46786429  0.51834306  0.52341046
   0.48630738  0.49274416  0.50472981
   0.56609169  0.52113765  0.48659570
   0.52968898  0.50841938  0.49449059
Direct configuration=    25
   0.48882274  0.46229008  0.52513253
   0.46803434  0.48479356  0.47394442
   0.46771213  0.51823361  0.52334947
   0.48632800  0.49267161  0.50474906
   0.56600584  0.52138891  0.48657660
   0.52966366  0.50854905  0.49453010
Direct configuration=    26
   0.48905353  0.46225018  0.52523643
   0.46818296  0.48446899  0.47393813
   0.46750708  0.51808186  0.52326391
   0.48635546  0.49257710  0.50477448
   0.56589874  0.52172495  0.48655136
   0.52962169  0.50872426  0.49458705
Direct configuration=    27
   0.48934743  0.46220634  0.52536691
   0.46838081  0.48405382  0.47393639
   0.46724619  0.51787421  0.52314694
   0.48639273  0.49245905  0.50480619
   0.56575846  0.52215554  0.48652206
   0.52956122  0.50895124  0.49466129
Direct configuration=    28
   0.48970492  0.46216813  0.52552517
   0.46864049  0.48354460  0.47394684
   0.46693260  0.51759453  0.52299211
   0.48644478  0.49231519  0.50484295
   0.56555886  0.52268437  0.48649424
   0.52948846  0.50923615  0.49474784
Direct configuration=    29
   0.49011798  0.46215127  0.52571155
   0.46897623  0.48294801  0.47397816
   0.46657772  0.51722713  0.52279572
   0.48652574  0.49214490  0.50488027
   0.56530287  0.52331783  0.48646877
   0.52936896  0.50956609  0.49484530
Direct configuration=    30
   0.49056096  0.46217471  0.52592908
   0.46939875  0.48228985  0.47403329
   0.46620829  0.51676303  0.52256301
   0.48664714  0.49194384  0.50491419
   0.56496077  0.52403695  0.48645722
   0.52920703  0.50993254  0.49493209
Direct configuration=    31
   0.49096115  0.46224091  0.52620727
   0.46989686  0.48164884  0.47408237
   0.46589788  0.51622533  0.52233330
   0.48679907  0.49172565  0.50492956
   0.56457297  0.52480709  0.48646513
   0.52897274  0.51027063  0.49496607
Direct configuration=    32
   0.49095369  0.46223928  0.52620994
   0.46989199  0.48165635  0.47407675
   0.46590416  0.51623196  0.52233885
   0.48679340  0.49172436  0.50493030
   0.56456489  0.52479742  0.48646818
   0.52899134  0.51027134  0.49495811
Direct configuration=    33
   0.49094103  0.46223546  0.52621629
   0.46988347  0.48166836  0.47406530
   0.46591496  0.51624412  0.52234923
   0.48678428  0.49172160  0.50493131
   0.56455819  0.52478554  0.48647173
   0.52901561  0.51026928  0.49494571
Direct configuration=    34
   0.49094058  0.46223489  0.52621729
   0.46988310  0.48166845  0.47406410
   0.46591534  0.51624489  0.52234998
   0.48678416  0.49172127  0.50493123
   0.56456077  0.52478703  0.48647121
   0.52901357  0.51026789  0.49494572
Direct configuration=    35
   0.49094065  0.46223357  0.52621962
   0.46988296  0.48166726  0.47406158
   0.46591505  0.51624579  0.52235108
   0.48678398  0.49172021  0.50493114
   0.56456512  0.52479115  0.48647031
   0.52900988  0.51026622  0.49494596
Direct configuration=    36
   0.49094240  0.46223131  0.52622351
   0.46988388  0.48166324  0.47405767
   0.46591272  0.51624594  0.52235199
   0.48678377  0.49171799  0.50493109
   0.56456986  0.52479908  0.48646936
   0.52900545  0.51026580  0.49494666
Direct configuration=    37
   0.49094700  0.46222798  0.52622908
   0.46988686  0.48165480  0.47405219
   0.46590680  0.51624435  0.52235207
   0.48678354  0.49171420  0.50493112
   0.56457347  0.52481195  0.48646885
   0.52900130  0.51026837  0.49494816
Direct configuration=    38
   0.49095552  0.46222343  0.52623638
   0.46989299  0.48164038  0.47404481
   0.46589567  0.51623993  0.52235068
   0.48678328  0.49170846  0.50493118
   0.56457463  0.52483106  0.48646944
   0.52899827  0.51027565  0.49495092
Direct configuration=    39
   0.49096788  0.46221776  0.52624534
   0.46990228  0.48162012  0.47403570
   0.46587953  0.51623261  0.52234775
   0.48678292  0.49170079  0.50493128
   0.56457260  0.52485603  0.48647131
   0.52899708  0.51028783  0.49495471
Direct configuration=    40
   0.49098601  0.46221032  0.52625710
   0.46991635  0.48159087  0.47402382
   0.46585599  0.51622090  0.52234253
   0.48678238  0.49169010  0.50493143
   0.56456616  0.52489043  0.48647499
   0.52899813  0.51030714  0.49496002
Direct configuration=    41
   0.49101135  0.46220093  0.52627225
   0.46993660  0.48155040  0.47400885
   0.46582350  0.51620331  0.52233416
   0.48678175  0.49167580  0.50493156
   0.56455434  0.52493686  0.48648098
   0.52900124  0.51033504  0.49496734
Direct configuration=    42
   0.49104562  0.46218952  0.52629138
   0.46996489  0.48149604  0.47399066
   0.46578039  0.51617781  0.52232144
   0.48678146  0.49165732  0.50493150
   0.56453703  0.52499903  0.48648962
   0.52900450  0.51037260  0.49497764
Direct configuration=    43
   0.49109083  0.46217630  0.52631502
   0.47000356  0.48142474  0.47396942
   0.46572505  0.51614171  0.52230264
   0.48678231  0.49163416  0.50493100
   0.56451502  0.52508186  0.48650118
   0.52900384  0.51042028  0.49499236
Direct configuration=    44
   0.49114918  0.46216193  0.52634357
   0.47005553  0.48133317  0.47394575
   0.46565608  0.51609161  0.52227556
   0.48678548  0.49160581  0.50492972
   0.56448887  0.52519086  0.48651616
   0.52899426  0.51047839  0.49501310
Direct configuration=    45
   0.49122294  0.46214761  0.52637726
   0.47012432  0.48121768  0.47392099
   0.46557235  0.51602314  0.52223733
   0.48679200  0.49157123  0.50492726
   0.56445576  0.52533134  0.48653604
   0.52897329  0.51054859  0.49504069
Direct configuration=    46
   0.49131437  0.46213525  0.52641608
   0.47021402  0.48107425  0.47389711
   0.46547310  0.51593102  0.52218438
   0.48680278  0.49152864  0.50492344
   0.56440622  0.52550687  0.48656431
   0.52894447  0.51063542  0.49507416
Direct configuration=    47
   0.49142539  0.46212747  0.52645975
   0.47032898  0.48089919  0.47387658
   0.46535827  0.51580974  0.52211277
   0.48681926  0.49147565  0.50491825
   0.56432743  0.52571991  0.48660555
   0.52891352  0.51074431  0.49511146
Direct configuration=    48
   0.49155810  0.46212712  0.52650843
   0.47047409  0.48068859  0.47386198
   0.46522813  0.51565370  0.52201831
   0.48684569  0.49141041  0.50491086
   0.56421599  0.52597803  0.48666236
   0.52887293  0.51087503  0.49515314
Direct configuration=    49
   0.49171448  0.46213600  0.52656324
   0.47065382  0.48043923  0.47385448
   0.46508344  0.51545896  0.52189742
   0.48688837  0.49133122  0.50490015
   0.56408166  0.52629515  0.48673483
   0.52879996  0.51101963  0.49520223
Direct configuration=    50
   0.49189724  0.46215227  0.52662856
   0.47087202  0.48014670  0.47385230
   0.46492387  0.51522343  0.52174779
   0.48694838  0.49123438  0.50488514
   0.56390984  0.52667794  0.48682944
   0.52870243  0.51118253  0.49525367
Direct configuration=    51
   0.49210940  0.46216767  0.52671341
   0.47112899  0.47980580  0.47384775
   0.46474685  0.51494976  0.52157038
   0.48701832  0.49111474  0.50486591
   0.56367531  0.52712764  0.48695526
   0.52861247  0.51137775  0.49529644
Direct configuration=    52
   0.49235517  0.46217034  0.52682824
   0.47142170  0.47941195  0.47382658
   0.46454899  0.51464716  0.52136951
   0.48709675  0.49097382  0.50484144
   0.56345280  0.52768601  0.48709792
   0.52845890  0.51156953  0.49534532
Direct configuration=    53
   0.49263165  0.46215410  0.52697375
   0.47174064  0.47896251  0.47377966
   0.46432321  0.51432417  0.52115111
   0.48715107  0.49079650  0.50482098
   0.56311502  0.52829206  0.48728908
   0.52842032  0.51183563  0.49536091
Direct configuration=    54
   0.49293725  0.46212688  0.52714018
   0.47208517  0.47846501  0.47371013
   0.46407408  0.51398793  0.52091757
   0.48723801  0.49061084  0.50479139
   0.56296428  0.52907484  0.48745571
   0.52813423  0.51199842  0.49543216
Direct configuration=    55
   0.49294234  0.46212565  0.52714251
   0.47209080  0.47845275  0.47370828
   0.46406681  0.51398119  0.52091257
   0.48722625  0.49059941  0.50479294
   0.56287961  0.52905348  0.48747995
   0.52822791  0.51204998  0.49541194
Direct configuration=    56
   0.49295296  0.46212382  0.52714713
   0.47210302  0.47842888  0.47370456
   0.46405408  0.51396822  0.52090238
   0.48721408  0.49058250  0.50479318
   0.56277380  0.52904283  0.48751391
   0.52833717  0.51211331  0.49538915
Direct configuration=    57
   0.49295419  0.46212363  0.52714742
   0.47210416  0.47842717  0.47370453
   0.46405385  0.51396710  0.52090184
   0.48721700  0.49058307  0.50479246
   0.56278785  0.52905330  0.48751118
   0.52831843  0.51210445  0.49539350
Direct configuration=    58
   0.49295669  0.46212313  0.52714799
   0.47210628  0.47842384  0.47370468
   0.46405360  0.51396476  0.52090106
   0.48722235  0.49058389  0.50479124
   0.56281258  0.52907248  0.48750627
   0.52828490  0.51208858  0.49540122
Direct configuration=    59
   0.49296001  0.46212269  0.52714896
   0.47210966  0.47841873  0.47370446
   0.46405281  0.51396150  0.52089926
   0.48722909  0.49058465  0.50478943
   0.56284214  0.52909769  0.48750110
   0.52824364  0.51206928  0.49541081
Direct configuration=    60
   0.49296015  0.46212269  0.52714903
   0.47210987  0.47841840  0.47370441
   0.46405272  0.51396131  0.52089909
   0.48722913  0.49058451  0.50478938
   0.56284170  0.52909818  0.48750135
   0.52824378  0.51206941  0.49541079
Direct configuration=    61
   0.49296038  0.46212271  0.52714917
   0.47211026  0.47841782  0.47370434
   0.46405262  0.51396098  0.52089880
   0.48722922  0.49058428  0.50478928
   0.56284086  0.52909903  0.48750180
   0.52824407  0.51206961  0.49541072
Direct configuration=    62
   0.49296059  0.46212276  0.52714936
   0.47211074  0.47841713  0.47370428
   0.46405261  0.51396059  0.52089843
   0.48722934  0.49058398  0.50478915
   0.56283964  0.52910010  0.48750239
   0.52824452  0.51206979  0.49541057
Direct configuration=    63
   0.49296068  0.46212288  0.52714956
   0.47211123  0.47841653  0.47370428
   0.46405284  0.51396024  0.52089807
   0.48722948  0.49058368  0.50478898
   0.56283812  0.52910114  0.48750304
   0.52824513  0.51206978  0.49541032
Direct configuration=    64
   0.49296052  0.46212309  0.52714973
   0.47211159  0.47841624  0.47370436
   0.46405345  0.51396008  0.52089782
   0.48722964  0.49058346  0.50478882
   0.56283647  0.52910186  0.48750361
   0.52824585  0.51206947  0.49540992
Direct configuration=    65
   0.49296001  0.46212340  0.52714985
   0.47211172  0.47841643  0.47370457
   0.46405451  0.51396019  0.52089778
   0.48722978  0.49058338  0.50478868
   0.56283485  0.52910205  0.48750400
   0.52824662  0.51206875  0.49540939
Direct configuration=    66
   0.49295894  0.46212388  0.52714989
   0.47211148  0.47841742  0.47370499
   0.46405635  0.51396076  0.52089806
   0.48722993  0.49058354  0.50478856
   0.56283325  0.52910136  0.48750409
   0.52824752  0.51206735  0.49540862
Direct configuration=    67
   0.49295716  0.46212456  0.52714982
   0.47211079  0.47841937  0.47370565
   0.46405913  0.51396189  0.52089873
   0.48723007  0.49058398  0.50478848
   0.56283172  0.52909963  0.48750381
   0.52824850  0.51206508  0.49540757
Direct configuration=    68
   0.49295452  0.46212548  0.52714963
   0.47210952  0.47842252  0.47370661
   0.46406308  0.51396375  0.52089991
   0.48723022  0.49058476  0.50478844
   0.56283037  0.52909667  0.48750304
   0.52824949  0.51206166  0.49540619
Direct configuration=    69
   0.49295080  0.46212671  0.52714929
   0.47210754  0.47842715  0.47370793
   0.46406848  0.51396650  0.52090170
   0.48723040  0.49058596  0.50478845
   0.56282936  0.52909225  0.48750165
   0.52825039  0.51205678  0.49540442
Direct configuration=    70
   0.49294577  0.46212828  0.52714879
   0.47210465  0.47843356  0.47370966
   0.46407566  0.51397040  0.52090427
   0.48723060  0.49058766  0.50478854
   0.56282886  0.52908611  0.48749946
   0.52825110  0.51205005  0.49540219
Direct configuration=    71
   0.49293915  0.46213024  0.52714812
   0.47210065  0.47844210  0.47371186
   0.46408495  0.51397573  0.52090780
   0.48723082  0.49058991  0.50478873
   0.56282904  0.52907797  0.48749630
   0.52825158  0.51204105  0.49539942
Direct configuration=    72
   0.49293061  0.46213261  0.52714728
   0.47209524  0.47845315  0.47371457
   0.46409676  0.51398286  0.52091250
   0.48723102  0.49059276  0.50478906
   0.56283002  0.52906747  0.48749197
   0.52825195  0.51202938  0.49539595
Direct configuration=    73
   0.49291983  0.46213538  0.52714632
   0.47208811  0.47846707  0.47371777
   0.46411149  0.51399224  0.52091864
   0.48723112  0.49059620  0.50478960
   0.56283170  0.52905418  0.48748632
   0.52825261  0.51201472  0.49539156
Direct configuration=    74
   0.49291983  0.46213538  0.52714632
   0.47208811  0.47846707  0.47371777
   0.46411149  0.51399224  0.52091864
   0.48723112  0.49059620  0.50478960
   0.56283170  0.52905418  0.48748632
   0.52825261  0.51201472  0.49539156
