   6   6   0   0
  0.4500000E+04  0.3000000E-08  0.3000000E-08  0.3000000E-08  0.0000000E+00
  1.000000000000000E-004
  CAR 
 unknown system                          
      2.02870427    -25.70041462  301     -6.47453114      1.00000000
    -25.700  0.0000E+00  0.0000E+00
    -25.608  0.0000E+00  0.0000E+00
    -25.516  0.0000E+00  0.0000E+00
    -25.423  0.0000E+00  0.0000E+00
    -25.331  0.0000E+00  0.0000E+00
    -25.238  0.0000E+00  0.0000E+00
    -25.146  0.0000E+00  0.0000E+00
    -25.053  0.0000E+00  0.0000E+00
    -24.961  0.0000E+00  0.0000E+00
    -24.869  0.4004E-17  0.3701E-18
    -24.776  0.1013E-14  0.9400E-16
    -24.684  0.1282E-12  0.1194E-13
    -24.591  0.1066E-10  0.9975E-12
    -24.499  0.5829E-09  0.5488E-10
    -24.406  0.2096E-07  0.1992E-08
    -24.314  0.4960E-06  0.4784E-07
    -24.222  0.7736E-05  0.7628E-06
    -24.129  0.7958E-04  0.8118E-05
    -24.037  0.5405E-03  0.5807E-04
    -23.944  0.2426E-02  0.2823E-03
    -23.852  0.7202E-02  0.9480E-03
    -23.759  0.1415E-01  0.2256E-02
    -23.667  0.1840E-01  0.3957E-02
    -23.575  0.1585E-01  0.5422E-02
    -23.482  0.9041E-02  0.6258E-02
    -23.390  0.3413E-02  0.6573E-02
    -23.297  0.8523E-03  0.6652E-02
    -23.205  0.1407E-03  0.6665E-02
    -23.112  0.1534E-04  0.6667E-02
    -23.020  0.1103E-05  0.6667E-02
    -22.928  0.5230E-07  0.6667E-02
    -22.835  0.1632E-08  0.6667E-02
    -22.743  0.3353E-10  0.6667E-02
    -22.650  0.4525E-12  0.6667E-02
    -22.558  0.4012E-14  0.6667E-02
    -22.465  0.2402E-16  0.6667E-02
    -22.373  0.0000E+00  0.6667E-02
    -22.280  0.0000E+00  0.6667E-02
    -22.188  0.0000E+00  0.6667E-02
    -22.096  0.0000E+00  0.6667E-02
    -22.003  0.0000E+00  0.6667E-02
    -21.911  0.0000E+00  0.6667E-02
    -21.818  0.0000E+00  0.6667E-02
    -21.726  0.0000E+00  0.6667E-02
    -21.633  0.0000E+00  0.6667E-02
    -21.541  0.0000E+00  0.6667E-02
    -21.449  0.0000E+00  0.6667E-02
    -21.356  0.0000E+00  0.6667E-02
    -21.264  0.0000E+00  0.6667E-02
    -21.171  0.0000E+00  0.6667E-02
    -21.079  0.0000E+00  0.6667E-02
    -20.986  0.0000E+00  0.6667E-02
    -20.894  0.0000E+00  0.6667E-02
    -20.802  0.0000E+00  0.6667E-02
    -20.709  0.0000E+00  0.6667E-02
    -20.617  0.0000E+00  0.6667E-02
    -20.524  0.0000E+00  0.6667E-02
    -20.432  0.0000E+00  0.6667E-02
    -20.339  0.0000E+00  0.6667E-02
    -20.247  0.0000E+00  0.6667E-02
    -20.155  0.0000E+00  0.6667E-02
    -20.062  0.0000E+00  0.6667E-02
    -19.970  0.0000E+00  0.6667E-02
    -19.877  0.0000E+00  0.6667E-02
    -19.785  0.0000E+00  0.6667E-02
    -19.692  0.0000E+00  0.6667E-02
    -19.600  0.0000E+00  0.6667E-02
    -19.508  0.0000E+00  0.6667E-02
    -19.415  0.0000E+00  0.6667E-02
    -19.323  0.0000E+00  0.6667E-02
    -19.230  0.0000E+00  0.6667E-02
    -19.138  0.1121E-15  0.6667E-02
    -19.045  0.1692E-13  0.6667E-02
    -18.953  0.1686E-11  0.6667E-02
    -18.861  0.1103E-09  0.6667E-02
    -18.768  0.4747E-08  0.6667E-02
    -18.676  0.1344E-06  0.6667E-02
    -18.583  0.2506E-05  0.6667E-02
    -18.491  0.3082E-04  0.6670E-02
    -18.398  0.2501E-03  0.6693E-02
    -18.306  0.1340E-02  0.6817E-02
    -18.214  0.4751E-02  0.7256E-02
    -18.121  0.1114E-01  0.8286E-02
    -18.029  0.1729E-01  0.9884E-02
    -17.936  0.1778E-01  0.1153E-01
    -17.844  0.1210E-01  0.1265E-01
    -17.751  0.5452E-02  0.1315E-01
    -17.659  0.1626E-02  0.1330E-01
    -17.567  0.3205E-03  0.1333E-01
    -17.474  0.4174E-04  0.1333E-01
    -17.382  0.3589E-05  0.1333E-01
    -17.289  0.2035E-06  0.1333E-01
    -17.197  0.7599E-08  0.1333E-01
    -17.104  0.1868E-09  0.1333E-01
    -17.012  0.3019E-11  0.1333E-01
    -16.920  0.3205E-13  0.1333E-01
    -16.827  0.2242E-15  0.1333E-01
    -16.735  0.0000E+00  0.1333E-01
    -16.642  0.0000E+00  0.1333E-01
    -16.550  0.0000E+00  0.1333E-01
    -16.457  0.0000E+00  0.1333E-01
    -16.365  0.0000E+00  0.1333E-01
    -16.273  0.0000E+00  0.1333E-01
    -16.180  0.0000E+00  0.1333E-01
    -16.088  0.0000E+00  0.1333E-01
    -15.995  0.0000E+00  0.1333E-01
    -15.903  0.0000E+00  0.1333E-01
    -15.810  0.0000E+00  0.1333E-01
    -15.718  0.0000E+00  0.1333E-01
    -15.626  0.0000E+00  0.1333E-01
    -15.533  0.0000E+00  0.1333E-01
    -15.441  0.0000E+00  0.1333E-01
    -15.348  0.0000E+00  0.1333E-01
    -15.256  0.0000E+00  0.1333E-01
    -15.163  0.0000E+00  0.1333E-01
    -15.071  0.0000E+00  0.1333E-01
    -14.978  0.0000E+00  0.1333E-01
    -14.886  0.0000E+00  0.1333E-01
    -14.794  0.0000E+00  0.1333E-01
    -14.701  0.0000E+00  0.1333E-01
    -14.609  0.0000E+00  0.1333E-01
    -14.516  0.0000E+00  0.1333E-01
    -14.424  0.0000E+00  0.1333E-01
    -14.331  0.0000E+00  0.1333E-01
    -14.239  0.0000E+00  0.1333E-01
    -14.147  0.0000E+00  0.1333E-01
    -14.054  0.0000E+00  0.1333E-01
    -13.962  0.0000E+00  0.1333E-01
    -13.869  0.0000E+00  0.1333E-01
    -13.777  0.0000E+00  0.1333E-01
    -13.684  0.0000E+00  0.1333E-01
    -13.592  0.0000E+00  0.1333E-01
    -13.500  0.0000E+00  0.1333E-01
    -13.407  0.0000E+00  0.1333E-01
    -13.315  0.8008E-17  0.1333E-01
    -13.222  0.1381E-14  0.1333E-01
    -13.130  0.1704E-12  0.1333E-01
    -13.037  0.1381E-10  0.1333E-01
    -12.945  0.7359E-09  0.1333E-01
    -12.853  0.2578E-07  0.1333E-01
    -12.760  0.5947E-06  0.1333E-01
    -12.668  0.9040E-05  0.1333E-01
    -12.575  0.9064E-04  0.1334E-01
    -12.483  0.6001E-03  0.1340E-01
    -12.390  0.2626E-02  0.1364E-01
    -12.298  0.7598E-02  0.1434E-01
    -12.206  0.1455E-01  0.1569E-01
    -12.113  0.1846E-01  0.1739E-01
    -12.021  0.1551E-01  0.1883E-01
    -11.928  0.8768E-02  0.1964E-01
    -11.836  0.4073E-02  0.2001E-01
    -11.743  0.4331E-02  0.2042E-01
    -11.651  0.9415E-02  0.2129E-01
    -11.559  0.1607E-01  0.2277E-01
    -11.466  0.1837E-01  0.2447E-01
    -11.374  0.1397E-01  0.2576E-01
    -11.281  0.7429E-02  0.2645E-01
    -11.189  0.4436E-02  0.2686E-01
    -11.096  0.7075E-02  0.2751E-01
    -11.004  0.1353E-01  0.2876E-01
    -10.912  0.1827E-01  0.3045E-01
    -10.819  0.1640E-01  0.3197E-01
    -10.727  0.9759E-02  0.3287E-01
    -10.634  0.3843E-02  0.3322E-01
    -10.542  0.1001E-02  0.3332E-01
    -10.449  0.1724E-03  0.3333E-01
    -10.357  0.1961E-04  0.3333E-01
    -10.265  0.1472E-05  0.3333E-01
    -10.172  0.8182E-07  0.3333E-01
    -10.080  0.2385E-06  0.3333E-01
     -9.987  0.4082E-05  0.3333E-01
     -9.895  0.4653E-04  0.3334E-01
     -9.802  0.3501E-03  0.3337E-01
     -9.710  0.1740E-02  0.3353E-01
     -9.618  0.5721E-02  0.3406E-01
     -9.525  0.1244E-01  0.3521E-01
     -9.433  0.1792E-01  0.3687E-01
     -9.340  0.1709E-01  0.3845E-01
     -9.248  0.1079E-01  0.3944E-01
     -9.155  0.4511E-02  0.3986E-01
     -9.063  0.1248E-02  0.3998E-01
     -8.971  0.2310E-03  0.4000E-01
     -8.878  0.6218E-04  0.4000E-01
     -8.786  0.2774E-03  0.4003E-01
     -8.693  0.1444E-02  0.4016E-01
     -8.601  0.5012E-02  0.4063E-01
     -8.508  0.1151E-01  0.4169E-01
     -8.416  0.1749E-01  0.4331E-01
     -8.324  0.1761E-01  0.4493E-01
     -8.231  0.1173E-01  0.4602E-01
     -8.139  0.5177E-02  0.4650E-01
     -8.046  0.1512E-02  0.4664E-01
     -7.954  0.2966E-03  0.4666E-01
     -7.861  0.9139E-04  0.4667E-01
     -7.769  0.3993E-03  0.4671E-01
     -7.676  0.1914E-02  0.4689E-01
     -7.584  0.6116E-02  0.4745E-01
     -7.492  0.1293E-01  0.4865E-01
     -7.399  0.1810E-01  0.5032E-01
     -7.307  0.1678E-01  0.5187E-01
     -7.214  0.1030E-01  0.5282E-01
     -7.122  0.4184E-02  0.5321E-01
     -7.029  0.1124E-02  0.5331E-01
     -6.937  0.1998E-03  0.5333E-01
     -6.845  0.2345E-04  0.5333E-01
     -6.752  0.1817E-05  0.5333E-01
     -6.660  0.9276E-07  0.5333E-01
     -6.567  0.3119E-08  0.5333E-01
     -6.475  0.6902E-10  0.5333E-01
     -6.382  0.1004E-11  0.5333E-01
     -6.290  0.9587E-14  0.5333E-01
     -6.198  0.6406E-16  0.5333E-01
     -6.105  0.0000E+00  0.5333E-01
     -6.013  0.0000E+00  0.5333E-01
     -5.920  0.0000E+00  0.5333E-01
     -5.828  0.0000E+00  0.5333E-01
     -5.735  0.0000E+00  0.5333E-01
     -5.643  0.0000E+00  0.5333E-01
     -5.551  0.0000E+00  0.5333E-01
     -5.458  0.0000E+00  0.5333E-01
     -5.366  0.0000E+00  0.5333E-01
     -5.273  0.0000E+00  0.5333E-01
     -5.181  0.0000E+00  0.5333E-01
     -5.088  0.0000E+00  0.5333E-01
     -4.996  0.0000E+00  0.5333E-01
     -4.904  0.0000E+00  0.5333E-01
     -4.811  0.0000E+00  0.5333E-01
     -4.719  0.0000E+00  0.5333E-01
     -4.626  0.0000E+00  0.5333E-01
     -4.534  0.0000E+00  0.5333E-01
     -4.441  0.0000E+00  0.5333E-01
     -4.349  0.4004E-17  0.5333E-01
     -4.257  0.7127E-15  0.5333E-01
     -4.164  0.9290E-13  0.5333E-01
     -4.072  0.7956E-11  0.5333E-01
     -3.979  0.4478E-09  0.5333E-01
     -3.887  0.1657E-07  0.5333E-01
     -3.794  0.4037E-06  0.5333E-01
     -3.702  0.6481E-05  0.5333E-01
     -3.610  0.6862E-04  0.5334E-01
     -3.517  0.4797E-03  0.5338E-01
     -3.425  0.2216E-02  0.5359E-01
     -3.332  0.6768E-02  0.5422E-01
     -3.240  0.1368E-01  0.5548E-01
     -3.147  0.1831E-01  0.5717E-01
     -3.055  0.1623E-01  0.5867E-01
     -2.963  0.9526E-02  0.5955E-01
     -2.870  0.3700E-02  0.5990E-01
     -2.778  0.9509E-03  0.5998E-01
     -2.685  0.1615E-03  0.6000E-01
     -2.593  0.1812E-04  0.6000E-01
     -2.500  0.1342E-05  0.6000E-01
     -2.408  0.6547E-07  0.6000E-01
     -2.316  0.2104E-08  0.6000E-01
     -2.223  0.4448E-10  0.6000E-01
     -2.131  0.6182E-12  0.6000E-01
     -2.038  0.5643E-14  0.6000E-01
     -1.946  0.3203E-16  0.6000E-01
     -1.853  0.0000E+00  0.6000E-01
     -1.761  0.1962E-15  0.6000E-01
     -1.669  0.2841E-13  0.6000E-01
     -1.576  0.2705E-11  0.6000E-01
     -1.484  0.1692E-09  0.6000E-01
     -1.391  0.6955E-08  0.6000E-01
     -1.299  0.1882E-06  0.6000E-01
     -1.206  0.3355E-05  0.6000E-01
     -1.114  0.3944E-04  0.6000E-01
     -1.021  0.3062E-03  0.6003E-01
     -0.929  0.1573E-02  0.6018E-01
     -0.837  0.5365E-02  0.6067E-01
     -0.744  0.1229E-01  0.6181E-01
     -0.652  0.1952E-01  0.6361E-01
     -0.559  0.2332E-01  0.6577E-01
     -0.467  0.2404E-01  0.6799E-01
     -0.374  0.2305E-01  0.7012E-01
     -0.282  0.1920E-01  0.7190E-01
     -0.190  0.1428E-01  0.7322E-01
     -0.097  0.1354E-01  0.7447E-01
     -0.005  0.1714E-01  0.7605E-01
      0.088  0.1860E-01  0.7777E-01
      0.180  0.1405E-01  0.7907E-01
      0.273  0.7084E-02  0.7973E-01
      0.365  0.2367E-02  0.7994E-01
      0.457  0.5234E-03  0.7999E-01
      0.550  0.7646E-04  0.8000E-01
      0.642  0.7376E-05  0.8000E-01
      0.735  0.4693E-06  0.8000E-01
      0.827  0.1968E-07  0.8000E-01
      0.920  0.5431E-09  0.8000E-01
      1.012  0.9859E-11  0.8000E-01
      1.104  0.1176E-12  0.8000E-01
      1.197  0.9269E-15  0.8000E-01
      1.289  0.0000E+00  0.8000E-01
      1.382  0.0000E+00  0.8000E-01
      1.474  0.0000E+00  0.8000E-01
      1.567  0.0000E+00  0.8000E-01
      1.659  0.0000E+00  0.8000E-01
      1.751  0.0000E+00  0.8000E-01
      1.844  0.0000E+00  0.8000E-01
      1.936  0.0000E+00  0.8000E-01
      2.029  0.0000E+00  0.8000E-01
