    6    6  300    1
  0.4500000E+04  0.3000000E-08  0.3000000E-08  0.3000000E-08  0.0000000E+00
  1.000000000000000E-004
  CAR 
 unknown system                          
     16      4     12
 
  0.2500000E+00  0.2500000E+00  0.2500000E+00  0.2500000E+00
    1      -23.700415   1.000000
    2      -18.022523   1.000000
    3      -12.152313   1.000000
    4      -11.528401   1.000000
    5      -10.935559   1.000000
    6       -9.443320   1.000000
    7       -8.414469   1.000000
    8       -7.416222   1.000000
    9       -3.174470   0.000000
   10       -0.655611   0.000000
   11       -0.388525   0.000000
   12        0.028704   0.000000
 
 -0.2500000E+00  0.2500000E+00  0.2500000E+00  0.2500000E+00
    1      -23.700413   1.000000
    2      -18.022521   1.000000
    3      -12.152315   1.000000
    4      -11.528402   1.000000
    5      -10.935564   1.000000
    6       -9.443324   1.000000
    7       -8.414474   1.000000
    8       -7.416206   1.000000
    9       -3.174451   0.000000
   10       -0.655600   0.000000
   11       -0.388524   0.000000
   12        0.025711   0.000000
 
  0.2500000E+00 -0.2500000E+00  0.2500000E+00  0.2500000E+00
    1      -23.700414   1.000000
    2      -18.022521   1.000000
    3      -12.152314   1.000000
    4      -11.528407   1.000000
    5      -10.935562   1.000000
    6       -9.443319   1.000000
    7       -8.414477   1.000000
    8       -7.416219   1.000000
    9       -3.174461   0.000000
   10       -0.655615   0.000000
   11       -0.388525   0.000000
   12        0.026877   0.000000
 
 -0.2500000E+00 -0.2500000E+00  0.2500000E+00  0.2500000E+00
    1      -23.700414   1.000000
    2      -18.022521   1.000000
    3      -12.152316   1.000000
    4      -11.528405   1.000000
    5      -10.935563   1.000000
    6       -9.443314   1.000000
    7       -8.414482   1.000000
    8       -7.416219   1.000000
    9       -3.174462   0.000000
   10       -0.655612   0.000000
   11       -0.388525   0.000000
   12        0.026535   0.000000
