       N       E                     dE             d eps       ncg     rms          rms(c)
DAV:   1     0.110047980110E+03    0.11005E+03   -0.21246E+03   160   0.366E+02
DAV:   2     0.153122239538E+01   -0.10852E+03   -0.10508E+03   192   0.987E+01
DAV:   3    -0.342705061746E+02   -0.35802E+02   -0.35411E+02   128   0.934E+01
DAV:   4    -0.374437687670E+02   -0.31733E+01   -0.30961E+01   100   0.319E+01
DAV:   5    -0.375462459703E+02   -0.10248E+00   -0.10226E+00   160   0.538E+00    0.104E+01
DAV:   6    -0.350126281084E+02    0.25336E+01   -0.44542E+00   120   0.144E+01    0.578E+00
DAV:   7    -0.344173849915E+02    0.59524E+00   -0.16098E+00   128   0.909E+00    0.258E+00
DAV:   8    -0.343125731257E+02    0.10481E+00   -0.23113E-01   120   0.459E+00    0.108E+00
DAV:   9    -0.342906005722E+02    0.21973E-01   -0.42804E-02   120   0.178E+00    0.313E-01
DAV:  10    -0.342882106755E+02    0.23899E-02   -0.62905E-03   128   0.742E-01    0.133E-01
DAV:  11    -0.342881805160E+02    0.30159E-04   -0.11181E-03    96   0.270E-01    0.844E-02
DAV:  12    -0.342911737273E+02   -0.29932E-02   -0.16902E-03   112   0.298E-01    0.431E-02
DAV:  13    -0.342950089215E+02   -0.38352E-02   -0.12961E-03   156   0.206E-01    0.298E-02
DAV:  14    -0.342989549253E+02   -0.39460E-02   -0.42617E-04   124   0.123E-01    0.183E-02
DAV:  15    -0.343014378046E+02   -0.24829E-02   -0.22476E-04   128   0.747E-02    0.107E-02
DAV:  16    -0.343034688062E+02   -0.20310E-02   -0.19196E-04    96   0.674E-02    0.655E-03
DAV:  17    -0.343045699585E+02   -0.11012E-02   -0.61670E-05    96   0.424E-02    0.328E-03
DAV:  18    -0.343050061744E+02   -0.43622E-03   -0.39637E-05    96   0.289E-02    0.197E-03
DAV:  19    -0.343052248761E+02   -0.21870E-03   -0.18764E-05    92   0.189E-02    0.100E-03
DAV:  20    -0.343053135090E+02   -0.88633E-04   -0.59676E-06    96   0.131E-02
   1 F= -.34305314E+02 E0= -.34305314E+02  d E =-.343053E+02
       N       E                     dE             d eps       ncg     rms          rms(c)
DAV:   1    -0.343087394280E+02   -0.35146E-02   -0.75736E-03   120   0.833E-01    0.327E-02
DAV:   2    -0.343087286242E+02    0.10804E-04   -0.96127E-05    96   0.873E-02    0.171E-02
DAV:   3    -0.343087420623E+02   -0.13438E-04   -0.26846E-05    88   0.457E-02    0.681E-03
DAV:   4    -0.343087489941E+02   -0.69317E-05   -0.64001E-06    96   0.222E-02    0.353E-03
DAV:   5    -0.343087554760E+02   -0.64820E-05   -0.21457E-06    72   0.116E-02    0.124E-03
DAV:   6    -0.343087589388E+02   -0.34627E-05   -0.54840E-07    84   0.618E-03
   2 F= -.34308759E+02 E0= -.34308759E+02  d E =-.344543E-02
       N       E                     dE             d eps       ncg     rms          rms(c)
DAV:   1    -0.343145961760E+02   -0.58407E-02   -0.23627E-02    96   0.147E+00    0.571E-02
DAV:   2    -0.343145471336E+02    0.49042E-04   -0.35296E-04   116   0.153E-01    0.317E-02
DAV:   3    -0.343145571985E+02   -0.10065E-04   -0.30524E-05    96   0.561E-02    0.134E-02
DAV:   4    -0.343145645104E+02   -0.73119E-05   -0.88025E-06    64   0.301E-02    0.440E-03
DAV:   5    -0.343145664494E+02   -0.19391E-05   -0.19321E-06    96   0.120E-02    0.221E-03
DAV:   6    -0.343145682038E+02   -0.17543E-05   -0.60249E-07    64   0.676E-03
   3 F= -.34314568E+02 E0= -.34314568E+02  d E =-.580926E-02
       N       E                     dE             d eps       ncg     rms          rms(c)
DAV:   1    -0.343208715675E+02   -0.63051E-02   -0.34765E-02    96   0.178E+00    0.669E-02
DAV:   2    -0.343208094136E+02    0.62154E-04   -0.48691E-04   108   0.182E-01    0.380E-02
DAV:   3    -0.343208288604E+02   -0.19447E-04   -0.34228E-05    96   0.604E-02    0.153E-02
DAV:   4    -0.343208400501E+02   -0.11190E-04   -0.10394E-05    64   0.330E-02    0.471E-03
DAV:   5    -0.343208421694E+02   -0.21193E-05   -0.22876E-06    88   0.129E-02    0.258E-03
DAV:   6    -0.343208443302E+02   -0.21608E-05   -0.72814E-07    64   0.724E-03
   4 F= -.34320844E+02 E0= -.34320844E+02  d E =-.627613E-02
       N       E                     dE             d eps       ncg     rms          rms(c)
DAV:   1    -0.343247247194E+02   -0.38826E-02   -0.32155E-02    96   0.170E+00    0.589E-02
DAV:   2    -0.343246866797E+02    0.38040E-04   -0.40197E-04   112   0.166E-01    0.346E-02
DAV:   3    -0.343247138340E+02   -0.27154E-04   -0.23583E-05    96   0.513E-02    0.115E-02
DAV:   4    -0.343247224417E+02   -0.86077E-05   -0.68150E-06    72   0.274E-02    0.373E-03
DAV:   5    -0.343247240077E+02   -0.15659E-05   -0.13902E-06    48   0.110E-02    0.213E-03
DAV:   6    -0.343247262386E+02   -0.22310E-05   -0.41371E-07    64   0.593E-03
   5 F= -.34324726E+02 E0= -.34324726E+02  d E =-.388191E-02
       N       E                     dE             d eps       ncg     rms          rms(c)
DAV:   1    -0.343238360163E+02    0.88799E-03   -0.31613E-04    96   0.169E-01    0.694E-03
DAV:   2    -0.343238362928E+02   -0.27649E-06   -0.40429E-06    48   0.183E-02    0.337E-03
DAV:   3    -0.343238377517E+02   -0.14589E-05   -0.14517E-06    80   0.105E-02    0.143E-03
DAV:   4    -0.343238385809E+02   -0.82915E-06   -0.31725E-07    48   0.512E-03    0.892E-04
DAV:   5    -0.343238397622E+02   -0.11814E-05   -0.12779E-07    80   0.283E-03    0.252E-04
DAV:   6    -0.343238402691E+02   -0.50687E-06   -0.42522E-08    48   0.149E-03
   6 F= -.34323840E+02 E0= -.34323840E+02  d E =0.885970E-03
       N       E                     dE             d eps       ncg     rms          rms(c)
DAV:   1    -0.343211991065E+02    0.26407E-02   -0.25077E-03    96   0.481E-01    0.191E-02
DAV:   2    -0.343211929571E+02    0.61494E-05   -0.31045E-05    68   0.503E-02    0.943E-03
DAV:   3    -0.343211949654E+02   -0.20083E-05   -0.10451E-05    96   0.285E-02    0.374E-03
DAV:   4    -0.343211955531E+02   -0.58770E-06   -0.22326E-06    64   0.137E-02    0.230E-03
DAV:   5    -0.343211958714E+02   -0.31831E-06   -0.79533E-07    80   0.757E-03    0.673E-04
DAV:   6    -0.343211959430E+02   -0.71560E-07   -0.20165E-07    56   0.397E-03
   7 F= -.34321196E+02 E0= -.34321196E+02  d E =0.264433E-02
       N       E                     dE             d eps       ncg     rms          rms(c)
DAV:   1    -0.343159636832E+02    0.52322E-02   -0.95350E-03    96   0.937E-01    0.369E-02
DAV:   2    -0.343159403378E+02    0.23345E-04   -0.11444E-04    64   0.957E-02    0.185E-02
DAV:   3    -0.343159455975E+02   -0.52597E-05   -0.33299E-05    96   0.517E-02    0.704E-03
DAV:   4    -0.343159470861E+02   -0.14886E-05   -0.75527E-06    68   0.247E-02    0.397E-03
DAV:   5    -0.343159475731E+02   -0.48696E-06   -0.25229E-06    80   0.135E-02    0.114E-03
DAV:   6    -0.343159478628E+02   -0.28969E-06   -0.63626E-07    48   0.703E-03
   8 F= -.34315948E+02 E0= -.34315948E+02  d E =0.524808E-02
       N       E                     dE             d eps       ncg     rms          rms(c)
DAV:   1    -0.343083093521E+02    0.76382E-02   -0.19830E-02    96   0.135E+00    0.537E-02
DAV:   2    -0.343082626874E+02    0.46665E-04   -0.26857E-04   112   0.135E-01    0.276E-02
DAV:   3    -0.343082692313E+02   -0.65439E-05   -0.21524E-05    80   0.497E-02    0.120E-02
DAV:   4    -0.343082736502E+02   -0.44189E-05   -0.57808E-06    64   0.243E-02    0.381E-03
DAV:   5    -0.343082748401E+02   -0.11899E-05   -0.12951E-06    64   0.102E-02    0.150E-03
DAV:   6    -0.343082760028E+02   -0.11627E-05   -0.38975E-07    48   0.517E-03
   9 F= -.34308276E+02 E0= -.34308276E+02  d E =0.767186E-02
       N       E                     dE             d eps       ncg     rms          rms(c)
DAV:   1    -0.342985741249E+02    0.97007E-02   -0.32438E-02    96   0.172E+00    0.701E-02
DAV:   2    -0.342984916187E+02    0.82506E-04   -0.42807E-04   104   0.173E-01    0.360E-02
DAV:   3    -0.342985027083E+02   -0.11090E-04   -0.31544E-05    80   0.600E-02    0.170E-02
DAV:   4    -0.342985120997E+02   -0.93915E-05   -0.10083E-05    64   0.312E-02    0.433E-03
DAV:   5    -0.342985142942E+02   -0.21945E-05   -0.21818E-06    48   0.130E-02    0.196E-03
DAV:   6    -0.342985164725E+02   -0.21783E-05   -0.61824E-07    64   0.667E-03
  10 F= -.34298516E+02 E0= -.34298516E+02  d E =0.975953E-02
       N       E                     dE             d eps       ncg     rms          rms(c)
DAV:   1    -0.342871234549E+02    0.11391E-01   -0.46902E-02    96   0.206E+00    0.854E-02
DAV:   2    -0.342869989224E+02    0.12453E-03   -0.61998E-04    96   0.212E-01    0.444E-02
DAV:   3    -0.342870144466E+02   -0.15524E-04   -0.45630E-05    96   0.708E-02    0.216E-02
DAV:   4    -0.342870307073E+02   -0.16261E-04   -0.17422E-05    76   0.397E-02    0.496E-03
DAV:   5    -0.342870339749E+02   -0.32676E-05   -0.35236E-06    48   0.165E-02    0.251E-03
DAV:   6    -0.342870374858E+02   -0.35109E-05   -0.91892E-07    64   0.858E-03
  11 F= -.34287037E+02 E0= -.34287037E+02  d E =0.114790E-01
       N       E                     dE             d eps       ncg     rms          rms(c)
DAV:   1    -0.342728591787E+02    0.14175E-01   -0.76483E-02    96   0.262E+00    0.108E-01
DAV:   2    -0.342726617872E+02    0.19739E-03   -0.10102E-03   108   0.273E-01    0.570E-02
DAV:   3    -0.342726913824E+02   -0.29595E-04   -0.71406E-05    92   0.880E-02    0.274E-02
DAV:   4    -0.342727203742E+02   -0.28992E-04   -0.28436E-05    76   0.507E-02    0.619E-03
DAV:   5    -0.342727254345E+02   -0.50602E-05   -0.56858E-06    52   0.211E-02    0.325E-03
DAV:   6    -0.342727309150E+02   -0.54806E-05   -0.14729E-06    64   0.110E-02
  12 F= -.34272731E+02 E0= -.34272731E+02  d E =0.143066E-01
       N       E                     dE             d eps       ncg     rms          rms(c)
DAV:   1    -0.342558624336E+02    0.16863E-01   -0.11518E-01    96   0.321E+00    0.128E-01
DAV:   2    -0.342556078628E+02    0.25457E-03   -0.15069E-03   124   0.327E-01    0.683E-02
DAV:   3    -0.342556642198E+02   -0.56357E-04   -0.88275E-05    84   0.996E-02    0.306E-02
DAV:   4    -0.342557063784E+02   -0.42159E-04   -0.31418E-05    76   0.548E-02    0.714E-03
DAV:   5    -0.342557137053E+02   -0.73269E-05   -0.68640E-06    64   0.225E-02    0.367E-03
DAV:   6    -0.342557216043E+02   -0.78990E-05   -0.20069E-06    64   0.120E-02
  13 F= -.34255722E+02 E0= -.34255722E+02  d E =0.170093E-01
       N       E                     dE             d eps       ncg     rms          rms(c)
DAV:   1    -0.342369084916E+02    0.18805E-01   -0.16151E-01    96   0.378E+00    0.147E-01
DAV:   2    -0.342366221483E+02    0.28634E-03   -0.21047E-03   128   0.380E-01    0.792E-02
DAV:   3    -0.342367125527E+02   -0.90404E-04   -0.10396E-04    80   0.110E-01    0.316E-02
DAV:   4    -0.342367664031E+02   -0.53850E-04   -0.34154E-05    76   0.578E-02    0.814E-03
DAV:   5    -0.342367757428E+02   -0.93397E-05   -0.80505E-06    64   0.237E-02    0.411E-03
DAV:   6    -0.342367861541E+02   -0.10411E-04   -0.27692E-06    64   0.131E-02
  14 F= -.34236786E+02 E0= -.34236786E+02  d E =0.189355E-01
       N       E                     dE             d eps       ncg     rms          rms(c)
DAV:   1    -0.342181042818E+02    0.18671E-01   -0.19226E-01    96   0.409E+00    0.160E-01
DAV:   2    -0.342177621611E+02    0.34212E-03   -0.24619E-03   124   0.424E-01    0.878E-02
DAV:   3    -0.342178560674E+02   -0.93906E-04   -0.12608E-04    84   0.119E-01    0.377E-02
DAV:   4    -0.342179394047E+02   -0.83337E-04   -0.48508E-05    76   0.681E-02    0.920E-03
DAV:   5    -0.342179501500E+02   -0.10745E-04   -0.10439E-05    64   0.283E-02    0.507E-03
DAV:   6    -0.342179627583E+02   -0.12608E-04   -0.32427E-06    64   0.152E-02
  15 F= -.34217963E+02 E0= -.34217963E+02  d E =0.188234E-01
       N       E                     dE             d eps       ncg     rms          rms(c)
DAV:   1    -0.342181794441E+02   -0.22929E-03   -0.29127E-05    64   0.512E-02    0.224E-03
DAV:   2    -0.342181845978E+02   -0.51536E-05   -0.18115E-06    48   0.123E-02    0.124E-03
DAV:   3    -0.342181911656E+02   -0.65679E-05   -0.59415E-07    84   0.511E-03    0.633E-04
DAV:   4    -0.342181969217E+02   -0.57560E-05   -0.36369E-07    76   0.301E-03    0.344E-04
DAV:   5    -0.342182026133E+02   -0.56916E-05   -0.34254E-07    80   0.248E-03    0.225E-04
DAV:   6    -0.342182098785E+02   -0.72652E-05   -0.62606E-07    80   0.258E-03
  16 F= -.34218210E+02 E0= -.34218210E+02  d E =-.247120E-03
       N       E                     dE             d eps       ncg     rms          rms(c)
DAV:   1    -0.342186488737E+02   -0.44626E-03   -0.12357E-04    80   0.107E-01    0.355E-03
DAV:   2    -0.342186496426E+02   -0.76888E-06   -0.59025E-06    96   0.245E-02    0.189E-03
DAV:   3    -0.342186502719E+02   -0.62931E-06   -0.87392E-07    64   0.829E-03    0.105E-03
DAV:   4    -0.342186508138E+02   -0.54192E-06   -0.21864E-07    64   0.390E-03    0.444E-04
DAV:   5    -0.342186513047E+02   -0.49085E-06   -0.80450E-08    56   0.195E-03    0.161E-04
DAV:   6    -0.342186515617E+02   -0.25705E-06   -0.39255E-08    64   0.110E-03
  17 F= -.34218652E+02 E0= -.34218652E+02  d E =-.441683E-03
       N       E                     dE             d eps       ncg     rms          rms(c)
DAV:   1    -0.342193336828E+02   -0.68238E-03   -0.31205E-04    96   0.167E-01    0.561E-03
DAV:   2    -0.342193333680E+02    0.31488E-06   -0.40752E-06    68   0.184E-02    0.313E-03
DAV:   3    -0.342193335970E+02   -0.22898E-06   -0.79236E-07    80   0.831E-03    0.118E-03
DAV:   4    -0.342193337231E+02   -0.12611E-06   -0.18549E-07    64   0.376E-03    0.457E-04
DAV:   5    -0.342193338019E+02   -0.78806E-07   -0.64277E-08    52   0.181E-03    0.155E-04
DAV:   6    -0.342193338562E+02   -0.54359E-07   -0.36594E-08    68   0.952E-04
  18 F= -.34219334E+02 E0= -.34219334E+02  d E =-.682294E-03
       N       E                     dE             d eps       ncg     rms          rms(c)
DAV:   1    -0.342202776551E+02   -0.94385E-03   -0.59440E-04    96   0.231E-01    0.771E-03
DAV:   2    -0.342202767981E+02    0.85695E-06   -0.76347E-06    64   0.252E-02    0.429E-03
DAV:   3    -0.342202769873E+02   -0.18924E-06   -0.14657E-06    80   0.114E-02    0.161E-03
DAV:   4    -0.342202770322E+02   -0.44874E-07   -0.32139E-07    60   0.510E-03    0.628E-04
DAV:   5    -0.342202770453E+02   -0.13080E-07   -0.96942E-08    56   0.246E-03    0.209E-04
DAV:   6    -0.342202770774E+02   -0.32127E-07   -0.44717E-08    48   0.128E-03
  19 F= -.34220277E+02 E0= -.34220277E+02  d E =-.943221E-03
       N       E                     dE             d eps       ncg     rms          rms(c)
DAV:   1    -0.342214675630E+02   -0.11905E-02   -0.93640E-04    96   0.290E-01    0.970E-03
DAV:   2    -0.342214661899E+02    0.13731E-05   -0.11831E-05    64   0.315E-02    0.538E-03
DAV:   3    -0.342214664808E+02   -0.29091E-06   -0.22538E-06    64   0.141E-02    0.204E-03
DAV:   4    -0.342214665609E+02   -0.80137E-07   -0.48598E-07    48   0.636E-03    0.790E-04
DAV:   5    -0.342214665946E+02   -0.33677E-07   -0.13397E-07    48   0.308E-03    0.261E-04
DAV:   6    -0.342214666581E+02   -0.63520E-07   -0.52558E-08    48   0.160E-03
  20 F= -.34221467E+02 E0= -.34221467E+02  d E =-.118958E-02
       N       E                     dE             d eps       ncg     rms          rms(c)
DAV:   1    -0.342228857110E+02   -0.14191E-02   -0.13088E-03    96   0.344E-01    0.115E-02
DAV:   2    -0.342228837770E+02    0.19340E-05   -0.16134E-05    64   0.368E-02    0.637E-03
DAV:   3    -0.342228841964E+02   -0.41931E-06   -0.30500E-06    64   0.164E-02    0.248E-03
DAV:   4    -0.342228843483E+02   -0.15197E-06   -0.66939E-07    48   0.748E-03    0.936E-04
DAV:   5    -0.342228844164E+02   -0.68060E-07   -0.17590E-07    48   0.362E-03    0.310E-04
DAV:   6    -0.342228845183E+02   -0.10189E-06   -0.64555E-08    48   0.188E-03
  21 F= -.34222885E+02 E0= -.34222885E+02  d E =-.141786E-02
       N       E                     dE             d eps       ncg     rms          rms(c)
DAV:   1    -0.342246960271E+02   -0.18116E-02   -0.20841E-03    96   0.435E-01    0.147E-02
DAV:   2    -0.342246928778E+02    0.31494E-05   -0.24820E-05    64   0.458E-02    0.806E-03
DAV:   3    -0.342246935347E+02   -0.65698E-06   -0.46586E-06    64   0.203E-02    0.326E-03
DAV:   4    -0.342246938135E+02   -0.27881E-06   -0.10595E-06    48   0.939E-03    0.118E-03
DAV:   5    -0.342246939188E+02   -0.10526E-06   -0.26429E-07    48   0.454E-03    0.392E-04
DAV:   6    -0.342246940723E+02   -0.15354E-06   -0.91983E-08    48   0.234E-03
  22 F= -.34224694E+02 E0= -.34224694E+02  d E =-.180955E-02
       N       E                     dE             d eps       ncg     rms          rms(c)
DAV:   1    -0.342269503991E+02   -0.22565E-02   -0.31407E-03    96   0.535E-01    0.183E-02
DAV:   2    -0.342269453432E+02    0.50559E-05   -0.35768E-05    64   0.553E-02    0.993E-03
DAV:   3    -0.342269464083E+02   -0.10651E-05   -0.66883E-06    72   0.243E-02    0.417E-03
DAV:   4    -0.342269469038E+02   -0.49544E-06   -0.15993E-06    48   0.115E-02    0.144E-03
DAV:   5    -0.342269470711E+02   -0.16730E-06   -0.38142E-07    48   0.552E-03    0.483E-04
DAV:   6    -0.342269473017E+02   -0.23066E-06   -0.12947E-07    48   0.282E-03
  23 F= -.34226947E+02 E0= -.34226947E+02  d E =-.225323E-02
       N       E                     dE             d eps       ncg     rms          rms(c)
DAV:   1    -0.342297103348E+02   -0.27633E-02   -0.45258E-03    96   0.644E-01    0.222E-02
DAV:   2    -0.342297027349E+02    0.75999E-05   -0.48783E-05    64   0.649E-02    0.119E-02
DAV:   3    -0.342297043007E+02   -0.15658E-05   -0.91440E-06    80   0.284E-02    0.514E-03
DAV:   4    -0.342297051461E+02   -0.84544E-06   -0.23005E-06    48   0.136E-02    0.171E-03
DAV:   5    -0.342297054055E+02   -0.25939E-06   -0.53362E-07    48   0.658E-03    0.569E-04
DAV:   6    -0.342297057389E+02   -0.33336E-06   -0.17910E-07    48   0.332E-03
  24 F= -.34229706E+02 E0= -.34229706E+02  d E =-.275844E-02
       N       E                     dE             d eps       ncg     rms          rms(c)
DAV:   1    -0.342330263130E+02   -0.33209E-02   -0.61975E-03    96   0.757E-01    0.264E-02
DAV:   2    -0.342330156106E+02    0.10702E-04   -0.62664E-05    64   0.741E-02    0.139E-02
DAV:   3    -0.342330180976E+02   -0.24870E-05   -0.11774E-05    80   0.322E-02    0.606E-03
DAV:   4    -0.342330193581E+02   -0.12605E-05   -0.30963E-06    52   0.155E-02    0.197E-03
DAV:   5    -0.342330197520E+02   -0.39383E-06   -0.71471E-07    60   0.763E-03    0.641E-04
DAV:   6    -0.342330202001E+02   -0.44812E-06   -0.24011E-07    48   0.381E-03
  25 F= -.34233020E+02 E0= -.34233020E+02  d E =-.331446E-02
       N       E                     dE             d eps       ncg     rms          rms(c)
DAV:   1    -0.342368831526E+02   -0.38634E-02   -0.78644E-03    96   0.854E-01    0.302E-02
DAV:   2    -0.342368693690E+02    0.13784E-04   -0.74113E-05    64   0.812E-02    0.157E-02
DAV:   3    -0.342368729664E+02   -0.35973E-05   -0.13560E-05    80   0.344E-02    0.694E-03
DAV:   4    -0.342368748283E+02   -0.18619E-05   -0.38193E-06    60   0.170E-02    0.212E-03
DAV:   5    -0.342368753668E+02   -0.53850E-06   -0.88689E-07    52   0.839E-03    0.691E-04
DAV:   6    -0.342368759164E+02   -0.54960E-06   -0.30179E-07    60   0.416E-03
  26 F= -.34236876E+02 E0= -.34236876E+02  d E =-.385572E-02
       N       E                     dE             d eps       ncg     rms          rms(c)
DAV:   1    -0.342368925711E+02   -0.17204E-04   -0.17071E-06    52   0.121E-02    0.423E-04
DAV:   2    -0.342368929560E+02   -0.38490E-06   -0.13414E-07    48   0.337E-03    0.290E-04
DAV:   3    -0.342368934330E+02   -0.47696E-06   -0.38861E-08    48   0.135E-03    0.166E-04
DAV:   4    -0.342368940299E+02   -0.59693E-06   -0.27231E-08    76   0.828E-04    0.806E-05
DAV:   5    -0.342368945483E+02   -0.51836E-06   -0.21894E-08    48   0.614E-04    0.530E-05
DAV:   6    -0.342368951415E+02   -0.59328E-06   -0.25635E-08    84   0.574E-04
  27 F= -.34236895E+02 E0= -.34236895E+02  d E =-.192252E-04
       N       E                     dE             d eps       ncg     rms          rms(c)
DAV:   1    -0.342369277484E+02   -0.33200E-04   -0.63362E-06    64   0.236E-02    0.703E-04
DAV:   2    -0.342369278481E+02   -0.99661E-07   -0.28567E-07    48   0.570E-03    0.407E-04
DAV:   3    -0.342369279390E+02   -0.90966E-07   -0.38426E-08    48   0.174E-03    0.231E-04
DAV:   4    -0.342369280460E+02   -0.10697E-06   -0.14410E-08    48   0.798E-04    0.824E-05
DAV:   5    -0.342369281241E+02   -0.78088E-07   -0.10600E-08    80   0.410E-04    0.414E-05
DAV:   6    -0.342369281874E+02   -0.63301E-07   -0.10894E-08    48   0.241E-04
  28 F= -.34236928E+02 E0= -.34236928E+02  d E =-.330458E-04
