 vasp.5.4.1 24Jun15 (build Jan 13 2020 12:58:22) complex                        
  
 executed on           IFC91_ompi date 2020.02.03  02:42:24
 running on   15 total cores
 each image running on    1 cores
 distrk:  each k-point on    1 cores,    1 groups
 distr:  one band on NCORES_PER_BAND=   1 cores,    1 groups


--------------------------------------------------------------------------------------------------------


 INCAR:
 POTCAR:    PAW_PBE H 15Jun2001                   
 POTCAR:    PAW_PBE C 08Apr2002                   
 POTCAR:    PAW_PBE N 08Apr2002                   
 POTCAR:    PAW_PBE H 15Jun2001                   
   VRHFIN =H: ultrasoft test                                                    
   LEXCH  = PE                                                                  
   EATOM  =    12.4884 eV,    0.9179 Ry                                         
                                                                                
   TITEL  = PAW_PBE H 15Jun2001                                                 
   LULTRA =        F    use ultrasoft PP ?                                      
   IUNSCR =        0    unscreen: 0-lin 1-nonlin 2-no                           
   RPACOR =    0.000    partial core radius                                     
   POMASS =    1.000; ZVAL   =    1.000    mass and valenz                      
   RCORE  =    1.100    outmost cutoff radius                                   
   RWIGS  =    0.700; RWIGS  =    0.370    wigner-seitz radius (au A)           
   ENMAX  =  250.000; ENMIN  =  200.000 eV                                      
   RCLOC  =    0.701    cutoff for local pot                                    
   LCOR   =        T    correct aug charges                                     
   LPAW   =        T    paw PP                                                  
   EAUG   =  400.000                                                            
   RMAX   =    1.123    core radius for proj-oper                               
   RAUG   =    1.200    factor for augmentation sphere                          
   RDEP   =    1.112    radius for radial grids                                 
   RDEPT  =    0.926    core radius for aug-charge                              
                                                                                
   Atomic configuration                                                         
    2 entries                                                                   
     n  l   j            E        occ.                                          
     1  0  0.50        -6.4927   1.0000                                         
     2  1  0.50        -3.4015   0.0000                                         
   Description                                                                  
     l       E           TYP  RCUT    TYP  RCUT                                 
     0     -6.4927494     23  1.100                                             
     0      6.8029130     23  1.100                                             
     1     -4.0817478     23  1.100                                             
  local pseudopotential read in
  atomic valenz-charges read in
  non local Contribution for L=           0  read in
    real space projection operators read in
  non local Contribution for L=           0  read in
    real space projection operators read in
  non local Contribution for L=           1  read in
    real space projection operators read in
    PAW grid and wavefunctions read in
 
   number of l-projection  operators is LMAX  =           3
   number of lm-projection operators is LMMAX =           5
 
 POTCAR:    PAW_PBE C 08Apr2002                   
   VRHFIN =C: s2p2                                                              
   LEXCH  = PE                                                                  
   EATOM  =   147.1560 eV,   10.8157 Ry                                         
                                                                                
   TITEL  = PAW_PBE C 08Apr2002                                                 
   LULTRA =        F    use ultrasoft PP ?                                      
   IUNSCR =        1    unscreen: 0-lin 1-nonlin 2-no                           
   RPACOR =    1.200    partial core radius                                     
   POMASS =   12.011; ZVAL   =    4.000    mass and valenz                      
   RCORE  =    1.500    outmost cutoff radius                                   
   RWIGS  =    1.630; RWIGS  =    0.863    wigner-seitz radius (au A)           
   ENMAX  =  400.000; ENMIN  =  300.000 eV                                      
   ICORE  =        2    local potential                                         
   LCOR   =        T    correct aug charges                                     
   LPAW   =        T    paw PP                                                  
   EAUG   =  644.873                                                            
   DEXC   =    0.000                                                            
   RMAX   =    1.529    core radius for proj-oper                               
   RAUG   =    1.300    factor for augmentation sphere                          
   RDEP   =    1.501    radius for radial grids                                 
   RDEPT  =    1.300    core radius for aug-charge                              
                                                                                
   Atomic configuration                                                         
    4 entries                                                                   
     n  l   j            E        occ.                                          
     1  0  0.50      -273.3789   2.0000                                         
     2  0  0.50       -13.7508   2.0000                                         
     2  1  0.50        -5.2854   2.0000                                         
     3  2  1.50        -5.4423   0.0000                                         
   Description                                                                  
     l       E           TYP  RCUT    TYP  RCUT                                 
     0    -13.7508458     23  1.200                                             
     0     -8.2022199     23  1.200                                             
     1     -5.2854383     23  1.500                                             
     1     34.0145650     23  1.500                                             
     2     -5.4423304      7  1.500                                             
  local pseudopotential read in
  partial core-charges read in
  partial kinetic energy density read in
  atomic valenz-charges read in
  non local Contribution for L=           0  read in
    real space projection operators read in
  non local Contribution for L=           0  read in
    real space projection operators read in
  non local Contribution for L=           1  read in
    real space projection operators read in
  non local Contribution for L=           1  read in
    real space projection operators read in
    PAW grid and wavefunctions read in
 
   number of l-projection  operators is LMAX  =           4
   number of lm-projection operators is LMMAX =           8
 
 POTCAR:    PAW_PBE N 08Apr2002                   
   VRHFIN =N: s2p3                                                              
   LEXCH  = PE                                                                  
   EATOM  =   264.5486 eV,   19.4438 Ry                                         
                                                                                
   TITEL  = PAW_PBE N 08Apr2002                                                 
   LULTRA =        F    use ultrasoft PP ?                                      
   IUNSCR =        1    unscreen: 0-lin 1-nonlin 2-no                           
   RPACOR =    1.200    partial core radius                                     
   POMASS =   14.001; ZVAL   =    5.000    mass and valenz                      
   RCORE  =    1.500    outmost cutoff radius                                   
   RWIGS  =    1.400; RWIGS  =    0.741    wigner-seitz radius (au A)           
   ENMAX  =  400.000; ENMIN  =  300.000 eV                                      
   ICORE  =        2    local potential                                         
   LCOR   =        T    correct aug charges                                     
   LPAW   =        T    paw PP                                                  
   EAUG   =  627.112                                                            
   DEXC   =    0.000                                                            
   RMAX   =    1.529    core radius for proj-oper                               
   RAUG   =    1.300    factor for augmentation sphere                          
   RDEP   =    1.514    radius for radial grids                                 
   RDEPT  =    1.338    core radius for aug-charge                              
                                                                                
   Atomic configuration                                                         
    4 entries                                                                   
     n  l   j            E        occ.                                          
     1  0  0.50      -384.7179   2.0000                                         
     2  0  0.50       -18.5828   2.0000                                         
     2  1  0.50        -7.0898   3.0000                                         
     3  2  1.50        -6.8029   0.0000                                         
   Description                                                                  
     l       E           TYP  RCUT    TYP  RCUT                                 
     0    -18.5828119     23  1.200                                             
     0    -13.5018863     23  1.200                                             
     1     -7.0897853     23  1.500                                             
     1      9.5240782     23  1.500                                             
     2     -6.8029130      7  1.500                                             
  local pseudopotential read in
  partial core-charges read in
  partial kinetic energy density read in
  atomic valenz-charges read in
  non local Contribution for L=           0  read in
    real space projection operators read in
  non local Contribution for L=           0  read in
    real space projection operators read in
  non local Contribution for L=           1  read in
    real space projection operators read in
  non local Contribution for L=           1  read in
    real space projection operators read in
    PAW grid and wavefunctions read in
 
   number of l-projection  operators is LMAX  =           4
   number of lm-projection operators is LMMAX =           8
 

 ----------------------------------------------------------------------------- 
|                                                                             |
|  ADVICE TO THIS USER RUNNING 'VASP/VAMP'   (HEAR YOUR MASTER'S VOICE ...):  |
|                                                                             |
|      You have a (more or less) 'small supercell' and for smaller cells      |
|      it is recommended  to use the reciprocal-space projection scheme!      |
|      The real space optimization is not  efficient for small cells and it   |
|      is also less accurate ...                                              |
|      Therefore set LREAL=.FALSE. in the  INCAR file                         |
|                                                                             |
 ----------------------------------------------------------------------------- 

 Optimization of the real space projectors (new method)

 maximal supplied QI-value         = 34.20
 optimisation between [QCUT,QGAM] = [  9.92, 20.18] = [ 27.55,114.04] Ry 
 Optimized for a Real-space Cutoff    1.26 Angstroem

   l    n(q)    QCUT    max X(q) W(low)/X(q) W(high)/X(q)  e(spline) 
   0      8     9.919    19.460    0.50E-03    0.23E-03    0.29E-06
   0      8     9.919    12.209    0.48E-03    0.23E-03    0.28E-06
   1      7     9.919     4.655    0.17E-03    0.75E-03    0.30E-06
 Optimization of the real space projectors (new method)

 maximal supplied QI-value         = 25.13
 optimisation between [QCUT,QGAM] = [ 10.05, 20.36] = [ 28.30,116.06] Ry 
 Optimized for a Real-space Cutoff    1.30 Angstroem

   l    n(q)    QCUT    max X(q) W(low)/X(q) W(high)/X(q)  e(spline) 
   0      8    10.053   115.676    0.49E-03    0.72E-03    0.18E-06
   0      8    10.053    87.132    0.49E-03    0.71E-03    0.18E-06
   1      7    10.053     4.429    0.32E-03    0.31E-03    0.18E-06
   1      7    10.053     2.733    0.23E-03    0.19E-03    0.20E-06
 Optimization of the real space projectors (new method)

 maximal supplied QI-value         = 25.13
 optimisation between [QCUT,QGAM] = [ 10.05, 20.36] = [ 28.30,116.06] Ry 
 Optimized for a Real-space Cutoff    1.65 Angstroem

   l    n(q)    QCUT    max X(q) W(low)/X(q) W(high)/X(q)  e(spline) 
   0     10    10.053    79.467    0.76E-04    0.72E-04    0.56E-06
   0     10    10.053    66.151    0.76E-04    0.72E-04    0.55E-06
   1     10    10.053     8.350    0.25E-03    0.92E-03    0.41E-05
   1     10    10.053     5.531    0.27E-03    0.10E-02    0.45E-05
  PAW_PBE H 15Jun2001                   :
 energy of atom  1       EATOM=  -12.4884
 kinetic energy error for atom=    0.0098 (will be added to EATOM!!)
  PAW_PBE C 08Apr2002                   :
 energy of atom  2       EATOM= -147.1560
 kinetic energy error for atom=    0.0288 (will be added to EATOM!!)
  PAW_PBE N 08Apr2002                   :
 energy of atom  3       EATOM= -264.5486
 kinetic energy error for atom=    0.0736 (will be added to EATOM!!)
 
 
 POSCAR: H3 C2 N1                                
  positions in direct lattice
  velocities in cartesian coordinates
 exchange correlation table for  LEXCH =        8
   RHO(1)=    0.500       N(1)  =     2000
   RHO(2)=  100.500       N(2)  =     4000

 VTST: version 3.2, (02/03/18)

 CHAIN: initializing optimizer
 
 OPT: Using FIRE optimizer
 OPT: FIRE, Init
 OPT: FIRE, MAXMOVE       0.20000
 OPT: FIRE, TIMESTEP      0.10000
 OPT: FIRE, FTIMEMAX      1.00000
 OPT: FIRE, FTIMEINC      1.10000
 OPT: FIRE, FTIMEDEC      0.50000
 OPT: FIRE, FALPHADEC     0.99000
 OPT: FIRE, FALPHA        0.10000
 OPT: FIRE, FNMIN         5
 
 CHAIN: Read ICHAIN            0
 CHAIN: Running the NEB
 NEB:          SPRING     -5.000000
 NEB:          LCLIMB      T
 NEB:     LTANGENTOLD      F
 NEB:           LDNEB      F
 NEB:        LDNEBORG      F
 NEB:        LNEBCELL      F
 NEB:          EFIRST      0.000000
 NEB:           ELAST      0.000000
 
 POSCAR: H3 C2 N1                                
  positions in direct lattice
  No initial velocities read in
 
 POSCAR: H3 C2 N1                                
  positions in direct lattice
  No initial velocities read in
 


--------------------------------------------------------------------------------------------------------


 ion  position               nearest neighbor table
   1  0.473  0.465  0.506-   4 1.09
   2  0.476  0.510  0.464-   4 1.09
   3  0.476  0.523  0.523-   4 1.11
   4  0.486  0.498  0.497-   2 1.09   1 1.09   3 1.11   5 1.63
   5  0.539  0.489  0.490-   6 1.19   4 1.63
   6  0.549  0.514  0.519-   5 1.19
 
  LATTYP: Found a simple cubic cell.
 ALAT       =    30.0000000000
  
  Lattice vectors:
  
 A1 = (  30.0000000000,   0.0000000000,   0.0000000000)
 A2 = (   0.0000000000,  30.0000000000,   0.0000000000)
 A3 = (   0.0000000000,   0.0000000000,  30.0000000000)


Analysis of symmetry for initial positions (statically):
=====================================================================
 Subroutine PRICEL returns:
 Original cell was already a primitive cell.
 

 Routine SETGRP: Setting up the symmetry group for a 
 simple cubic supercell.


 Subroutine GETGRP returns: Found  1 space group operations
 (whereof  1 operations were pure point group operations)
 out of a pool of 48 trial point group operations.


The static configuration has the point symmetry C_1 .


Analysis of symmetry for dynamics (positions and initial velocities):
=====================================================================
 Subroutine PRICEL returns:
 Original cell was already a primitive cell.
 

 Routine SETGRP: Setting up the symmetry group for a 
 simple cubic supercell.


 Subroutine GETGRP returns: Found  1 space group operations
 (whereof  1 operations were pure point group operations)
 out of a pool of 48 trial point group operations.


The dynamic configuration has the point symmetry C_1 .
 
 
 KPOINTS: Mo2C                                    

Automatic generation of k-mesh.
Space group operators:
 irot       det(A)        alpha          n_x          n_y          n_z        tau_x        tau_y        tau_z
    1     1.000000     0.000000     1.000000     0.000000     0.000000     0.000000     0.000000     0.000000
 
 Subroutine IBZKPT returns following result:
 ===========================================
 
 Found      4 irreducible k-points:
 
 Following reciprocal coordinates:
            Coordinates               Weight
  0.250000  0.250000  0.250000      2.000000
 -0.250000  0.250000  0.250000      2.000000
  0.250000 -0.250000  0.250000      2.000000
 -0.250000 -0.250000  0.250000      2.000000
 
 Following cartesian coordinates:
            Coordinates               Weight
  0.008333  0.008333  0.008333      2.000000
 -0.008333  0.008333  0.008333      2.000000
  0.008333 -0.008333  0.008333      2.000000
 -0.008333 -0.008333  0.008333      2.000000
 


--------------------------------------------------------------------------------------------------------




 Dimension of arrays:
   k-points           NKPTS =      4   k-points in BZ     NKDIM =      4   number of bands    NBANDS=     12
   number of dos      NEDOS =    301   number of ions     NIONS =      6
   non local maximal  LDIM  =      4   non local SUM 2l+1 LMDIM =      8
   total plane-waves  NPLWV = ******
   max r-space proj   IRMAX =   2395   max aug-charges    IRDMAX=   1738
   dimension x,y,z NGX =   150 NGY =  150 NGZ =  150
   dimension x,y,z NGXF=   300 NGYF=  300 NGZF=  300
   support grid    NGXF=   300 NGYF=  300 NGZF=  300
   ions per type =               3   2   1
 NGX,Y,Z   is equivalent  to a cutoff of   8.31,  8.31,  8.31 a.u.
 NGXF,Y,Z  is equivalent  to a cutoff of  16.62, 16.62, 16.62 a.u.


 I would recommend the setting:
   dimension x,y,z NGX =   147 NGY =  147 NGZ =  147
 SYSTEM =  unknown system                          
 POSCAR =  H3 C2 N1                                

 Startparameter for this run:
   NWRITE =      2    write-flag & timer
   PREC   = normal    normal or accurate (medium, high low for compatibility)
   ISTART =      0    job   : 0-new  1-cont  2-samecut
   ICHARG =      2    charge: 1-file 2-atom 10-const
   ISPIN  =      1    spin polarized calculation?
   LNONCOLLINEAR =      F non collinear calculations
   LSORBIT =      F    spin-orbit coupling
   INIWAV =      1    electr: 0-lowe 1-rand  2-diag
   LASPH  =      F    aspherical Exc in radial PAW
   METAGGA=      F    non-selfconsistent MetaGGA calc.

 Electronic Relaxation 1
   ENCUT  =  400.0 eV  29.40 Ry    5.42 a.u.  48.92 48.92 48.92*2*pi/ulx,y,z
   ENINI  =  400.0     initial cutoff
   ENAUG  =  644.9 eV  augmentation charge cutoff
   NELM   =    500;   NELMIN=  6; NELMDL= -5     # of ELM steps 
   EDIFF  = 0.1E-03   stopping-criterion for ELM
   LREAL  =      T    real-space projection
   NLSPLINE    = F    spline interpolate recip. space projectors
   LCOMPAT=      F    compatible to vasp.4.4
   GGA_COMPAT  = T    GGA compatible to vasp.4.4-vasp.4.6
   LMAXPAW     = -100 max onsite density
   LMAXMIX     =    2 max onsite mixed and CHGCAR
   VOSKOWN=      0    Vosko Wilk Nusair interpolation
   ROPT   =   -0.00050  -0.00050  -0.00050
 Ionic relaxation
   EDIFFG = -.1E+00   stopping-criterion for IOM
   NSW    =    300    number of steps for IOM
   NBLOCK =      1;   KBLOCK =    300    inner block; outer block 
   IBRION =      3    ionic relax: 0-MD 1-quasi-New 2-CG
   NFREE  =      0    steps in history (QN), initial steepest desc. (CG)
   ISIF   =      2    stress and relaxation
   IWAVPR =     11    prediction:  0-non 1-charg 2-wave 3-comb
   ISYM   =      2    0-nonsym 1-usesym 2-fastsym
   LCORR  =      T    Harris-Foulkes like correction to forces

   POTIM  = 0.0000    time-step for ionic-motion
   TEIN   =    0.0    initial temperature
   TEBEG  =    0.0;   TEEND  =   0.0 temperature during run
   SMASS  =   2.00    Nose mass-parameter (am)
   estimated Nose-frequenzy (Omega)   =  0.12E+10 period in steps =  0.00 mass=   0.137E-25a.u.
   SCALEE = 1.0000    scale energy and forces
   NPACO  =    256;   APACO  = 16.0  distance and # of slots for P.C.
   PSTRESS=    0.0 pullay stress

  Mass of Ions in am
   POMASS =   1.00 12.01 14.00
  Ionic Valenz
   ZVAL   =   1.00  4.00  5.00
  Atomic Wigner-Seitz radii
   RWIGS  =  -1.00 -1.00 -1.00
  virtual crystal weights 
   VCA    =   1.00  1.00  1.00
   NELECT =      16.0000    total number of electrons
   NUPDOWN=      -1.0000    fix difference up-down

 DOS related values:
   EMIN   =  10.00;   EMAX   =-10.00  energy-range for DOS
   EFERMI =   0.00
   ISMEAR =     0;   SIGMA  =   0.20  broadening in eV -4-tet -1-fermi 0-gaus

 Electronic relaxation 2 (details)
   IALGO  =     38    algorithm
   LDIAG  =      T    sub-space diagonalisation (order eigenvalues)
   LSUBROT=      F    optimize rotation matrix (better conditioning)
   TURBO    =      0    0=normal 1=particle mesh
   IRESTART =      0    0=no restart 2=restart with 2 vectors
   NREBOOT  =      0    no. of reboots
   NMIN     =      0    reboot dimension
   EREF     =   0.00    reference energy to select bands
   IMIX   =      4    mixing-type and parameters
     AMIX     =   0.40;   BMIX     =  1.00
     AMIX_MAG =   1.60;   BMIX_MAG =  1.00
     AMIN     =   0.10
     WC   =   100.;   INIMIX=   1;  MIXPRE=   1;  MAXMIX= -45

 Intra band minimization:
   WEIMIN = 0.0010     energy-eigenvalue tresh-hold
   EBREAK =  0.21E-05  absolut break condition
   DEPER  =   0.30     relativ break condition  

   TIME   =   0.40     timestep for ELM

  volume/ion in A,a.u.               =    4500.00     30367.50
  Fermi-wavevector in a.u.,A,eV,Ry     =   0.137508  0.259852  0.257264  0.018908
  Thomas-Fermi vector in A             =   0.790710
 
 Write flags
   LWAVE  =      F    write WAVECAR
   LCHARG =      F    write CHGCAR
   LVTOT  =      F    write LOCPOT, total local potential
   LVHAR  =      F    write LOCPOT, Hartree potential only
   LELF   =      F    write electronic localiz. function (ELF)
   LORBIT =      0    0 simple, 1 ext, 2 COOP (PROOUT)


 Dipole corrections
   LMONO  =      F    monopole corrections only (constant potential shift)
   LDIPOL =      F    correct potential (dipole corrections)
   IDIPOL =      0    1-x, 2-y, 3-z, 4-all directions 
   EPSILON=  1.0000000 bulk dielectric constant

 Exchange correlation treatment:
   GGA     =    PE    GGA type
   LEXCH   =     8    internal setting for exchange type
   VOSKOWN=      0    Vosko Wilk Nusair interpolation
   LHFCALC =     F    Hartree Fock is set to
   LHFONE  =     F    Hartree Fock one center treatment
   AEXX    =    0.0000 exact exchange contribution

 Linear response parameters
   LEPSILON=     F    determine dielectric tensor
   LRPA    =     F    only Hartree local field effects (RPA)
   LNABLA  =     F    use nabla operator in PAW spheres
   LVEL    =     F    velocity operator in full k-point grid
   LINTERFAST=   F  fast interpolation
   KINTER  =     0    interpolate to denser k-point grid
   CSHIFT  =0.1000    complex shift for real part using Kramers Kronig
   OMEGAMAX=  -1.0    maximum frequency
   DEG_THRESHOLD= 0.2000000E-02 threshold for treating states as degnerate
   RTIME   =    0.100 relaxation time in fs

 Orbital magnetization related:
   ORBITALMAG=     F  switch on orbital magnetization
   LCHIMAG   =     F  perturbation theory with respect to B field
   DQ        =  0.001000  dq finite difference perturbation B field



--------------------------------------------------------------------------------------------------------


 quickmin algorithm: (dynamic with friction)
 charge density and potential will be updated during run
 non-spin polarized calculation
 Variant of blocked Davidson
 Davidson routine will perform the subspace rotation
 perform sub-space diagonalisation
    after iterative eigenvector-optimisation
 modified Broyden-mixing scheme, WC =      100.0
 initial mixing is a Kerker type mixing with AMIX =  0.4000 and BMIX =      1.0000
 Hartree-type preconditioning will be used
 using additional bands            4
 real space projection scheme for non local part
 use partial core corrections
 calculate Harris-corrections to forces 
   (improved forces if not selfconsistent)
 use gradient corrections 
 use of overlap-Matrix (Vanderbilt PP)
 Gauss-broadening in eV      SIGMA  =   0.20


--------------------------------------------------------------------------------------------------------


  energy-cutoff  :      400.00
  volume of cell :    27000.00
      direct lattice vectors                 reciprocal lattice vectors
    30.000000000  0.000000000  0.000000000     0.033333333  0.000000000  0.000000000
     0.000000000 30.000000000  0.000000000     0.000000000  0.033333333  0.000000000
     0.000000000  0.000000000 30.000000000     0.000000000  0.000000000  0.033333333

  length of vectors
    30.000000000 30.000000000 30.000000000     0.033333333  0.033333333  0.033333333


 
 k-points in units of 2pi/SCALE and weight: Mo2C                                    
   0.00833333  0.00833333  0.00833333       0.250
  -0.00833333  0.00833333  0.00833333       0.250
   0.00833333 -0.00833333  0.00833333       0.250
  -0.00833333 -0.00833333  0.00833333       0.250
 
 k-points in reciprocal lattice and weights: Mo2C                                    
   0.25000000  0.25000000  0.25000000       0.250
  -0.25000000  0.25000000  0.25000000       0.250
   0.25000000 -0.25000000  0.25000000       0.250
  -0.25000000 -0.25000000  0.25000000       0.250
 
 position of ions in fractional coordinates (direct lattice) 
   0.47287067  0.46533943  0.50572170
   0.47554072  0.51018696  0.46419570
   0.47616866  0.52254979  0.52265417
   0.48577619  0.49803697  0.49677203
   0.53890729  0.48898070  0.49002210
   0.54872879  0.51357629  0.51941474
 
 position of ions in cartesian coordinates  (Angst):
  14.18612014 13.96018300 15.17165091
  14.26622162 15.30560870 13.92587100
  14.28505973 15.67649357 15.67962513
  14.57328566 14.94110919 14.90316093
  16.16721868 14.66942091 14.70066288
  16.46186383 15.40728872 15.58244233
 


--------------------------------------------------------------------------------------------------------


 k-point  1 :   0.2500 0.2500 0.2500  plane waves:  490454
 k-point  2 :  -0.2500 0.2500 0.2500  plane waves:  490454
 k-point  3 :   0.2500-0.2500 0.2500  plane waves:  490454
 k-point  4 :  -0.2500-0.2500 0.2500  plane waves:  490454

 maximum and minimum number of plane-waves per node :    490454   490454

 maximum number of plane-waves:    490454
 maximum index in each direction: 
   IXMAX=   49   IYMAX=   49   IZMAX=   48
   IXMIN=  -49   IYMIN=  -49   IZMIN=  -49

 WARNING: aliasing errors must be expected set NGX to 198 to avoid them
 WARNING: aliasing errors must be expected set NGY to 198 to avoid them
 WARNING: aliasing errors must be expected set NGZ to 196 to avoid them
 aliasing errors are usually negligible using standard VASP settings
 and one can safely disregard these warnings

 serial   3D FFT for wavefunctions
 parallel 3D FFT for charge:
    minimum data exchange during FFTs selected (reduces bandwidth)


 total amount of memory used by VASP on root node  3203888. kBytes
========================================================================

   base      :      30000. kBytes
   nonlr-proj:        692. kBytes
   fftplans  :     924480. kBytes
   grid      :    1872000. kBytes
   one-center:         18. kBytes
   wavefun   :     376698. kBytes
 
     INWAV:  cpu time    0.0000: real time    0.0004
 Broyden mixing: mesh for mixing (old mesh)
   NGX = 97   NGY = 97   NGZ = 97
  (NGX  =300   NGY  =300   NGZ  =300)
  gives a total of 912673 points

 initial charge density was supplied:
 charge density of overlapping atoms calculated
 number of electron      16.0000000 magnetization 
 keeping initial charge density in first step


--------------------------------------------------------------------------------------------------------


 Maximum index for non-local projection operator         2276
 Maximum index for augmentation-charges         1497 (set IRDMAX)


--------------------------------------------------------------------------------------------------------


 First call to EWALD:  gamma=   0.059
 Maximum number of real-space cells 3x 3x 3
 Maximum number of reciprocal cells 3x 3x 3

 FEWALD executed in parallel
    FEWALD:  cpu time    0.0020: real time    0.0022


----------------------------------------- Iteration    1(   1)  ---------------------------------------


    POTLOK:  cpu time   27.6428: real time   27.7048
    SETDIJ:  cpu time    0.0070: real time    0.0066
     EDDAV:  cpu time  118.6270: real time  118.8935
       DOS:  cpu time    0.0000: real time    0.0003
    --------------------------------------------
      LOOP:  cpu time  146.2818: real time  146.6109

 eigenvalue-minimisations  :   160
 total energy-change (2. order) : 0.1100480E+03  (-0.2124625E+03)
 number of electron      16.0000000 magnetization 
 augmentation part       16.0000000 magnetization 

 Free energy of the ion-electron system (eV)
  ---------------------------------------------------
  alpha Z        PSCENC =         0.04144063
  Ewald energy   TEWEN  =       695.06007691
  -Hartree energ DENC   =     -1114.20787956
  -exchange      EXHF   =         0.00000000
  -V(xc)+E(xc)   XCENC  =        51.17256773
  PAW double counting   =       428.37890668     -430.73533574
  entropy T*S    EENTRO =        -0.23509881
  eigenvalues    EBANDS =      -115.59204587
  atomic energy  EATOM  =       596.16534815
  Solvation  Ediel_sol  =         0.00000000
  ---------------------------------------------------
  free energy    TOTEN  =       110.04798011 eV

  energy without entropy =      110.28307892  energy(sigma->0) =      110.16552952


--------------------------------------------------------------------------------------------------------




----------------------------------------- Iteration    1(   2)  ---------------------------------------


     EDDAV:  cpu time  143.3532: real time  143.6758
       DOS:  cpu time    0.0000: real time    0.0002
    --------------------------------------------
      LOOP:  cpu time  143.3542: real time  143.6795

 eigenvalue-minimisations  :   192
 total energy-change (2. order) :-0.1085168E+03  (-0.1050840E+03)
 number of electron      16.0000000 magnetization 
 augmentation part       16.0000000 magnetization 

 Free energy of the ion-electron system (eV)
  ---------------------------------------------------
  alpha Z        PSCENC =         0.04144063
  Ewald energy   TEWEN  =       695.06007691
  -Hartree energ DENC   =     -1114.20787956
  -exchange      EXHF   =         0.00000000
  -V(xc)+E(xc)   XCENC  =        51.17256773
  PAW double counting   =       428.37890668     -430.73533574
  entropy T*S    EENTRO =         0.00000000
  eigenvalues    EBANDS =      -224.34390240
  atomic energy  EATOM  =       596.16534815
  Solvation  Ediel_sol  =         0.00000000
  ---------------------------------------------------
  free energy    TOTEN  =         1.53122240 eV

  energy without entropy =        1.53122240  energy(sigma->0) =        1.53122240


--------------------------------------------------------------------------------------------------------




----------------------------------------- Iteration    1(   3)  ---------------------------------------


     EDDAV:  cpu time  106.8798: real time  107.1201
       DOS:  cpu time    0.0000: real time    0.0002
    --------------------------------------------
      LOOP:  cpu time  106.8808: real time  107.1241

 eigenvalue-minimisations  :   128
 total energy-change (2. order) :-0.3580173E+02  (-0.3541098E+02)
 number of electron      16.0000000 magnetization 
 augmentation part       16.0000000 magnetization 

 Free energy of the ion-electron system (eV)
  ---------------------------------------------------
  alpha Z        PSCENC =         0.04144063
  Ewald energy   TEWEN  =       695.06007691
  -Hartree energ DENC   =     -1114.20787956
  -exchange      EXHF   =         0.00000000
  -V(xc)+E(xc)   XCENC  =        51.17256773
  PAW double counting   =       428.37890668     -430.73533574
  entropy T*S    EENTRO =         0.00000000
  eigenvalues    EBANDS =      -260.14563097
  atomic energy  EATOM  =       596.16534815
  Solvation  Ediel_sol  =         0.00000000
  ---------------------------------------------------
  free energy    TOTEN  =       -34.27050617 eV

  energy without entropy =      -34.27050617  energy(sigma->0) =      -34.27050617


--------------------------------------------------------------------------------------------------------




----------------------------------------- Iteration    1(   4)  ---------------------------------------


     EDDAV:  cpu time   88.5115: real time   88.7113
       DOS:  cpu time    0.0000: real time    0.0002
    --------------------------------------------
      LOOP:  cpu time   88.5135: real time   88.7154

 eigenvalue-minimisations  :   100
 total energy-change (2. order) :-0.3173263E+01  (-0.3096137E+01)
 number of electron      16.0000000 magnetization 
 augmentation part       16.0000000 magnetization 

 Free energy of the ion-electron system (eV)
  ---------------------------------------------------
  alpha Z        PSCENC =         0.04144063
  Ewald energy   TEWEN  =       695.06007691
  -Hartree energ DENC   =     -1114.20787956
  -exchange      EXHF   =         0.00000000
  -V(xc)+E(xc)   XCENC  =        51.17256773
  PAW double counting   =       428.37890668     -430.73533574
  entropy T*S    EENTRO =         0.00000000
  eigenvalues    EBANDS =      -263.31889356
  atomic energy  EATOM  =       596.16534815
  Solvation  Ediel_sol  =         0.00000000
  ---------------------------------------------------
  free energy    TOTEN  =       -37.44376877 eV

  energy without entropy =      -37.44376877  energy(sigma->0) =      -37.44376877


--------------------------------------------------------------------------------------------------------




----------------------------------------- Iteration    1(   5)  ---------------------------------------


     EDDAV:  cpu time  128.6264: real time  129.0031
       DOS:  cpu time    0.0000: real time    0.0001
    CHARGE:  cpu time    7.9908: real time    8.0103
    MIXING:  cpu time    0.6489: real time    0.6494
    --------------------------------------------
      LOOP:  cpu time  137.2671: real time  137.6668

 eigenvalue-minimisations  :   160
 total energy-change (2. order) :-0.1024772E+00  (-0.1022582E+00)
 number of electron      16.0000013 magnetization 
 augmentation part        0.4635107 magnetization 

 Broyden mixing:
  rms(total) = 0.10419E+01    rms(broyden)= 0.10405E+01
  rms(prec ) = 0.10768E+01
  weight for this iteration     100.00

 Free energy of the ion-electron system (eV)
  ---------------------------------------------------
  alpha Z        PSCENC =         0.04144063
  Ewald energy   TEWEN  =       695.06007691
  -Hartree energ DENC   =     -1114.20787956
  -exchange      EXHF   =         0.00000000
  -V(xc)+E(xc)   XCENC  =        51.17256773
  PAW double counting   =       428.37890668     -430.73533574
  entropy T*S    EENTRO =         0.00000000
  eigenvalues    EBANDS =      -263.42137076
  atomic energy  EATOM  =       596.16534815
  Solvation  Ediel_sol  =         0.00000000
  ---------------------------------------------------
  free energy    TOTEN  =       -37.54624597 eV

  energy without entropy =      -37.54624597  energy(sigma->0) =      -37.54624597


--------------------------------------------------------------------------------------------------------




----------------------------------------- Iteration    1(   6)  ---------------------------------------


    POTLOK:  cpu time   28.0747: real time   28.1431
    SETDIJ:  cpu time    0.0060: real time    0.0068
     EDDAV:  cpu time  103.1993: real time  103.4434
       DOS:  cpu time    0.0000: real time    0.0002
    CHARGE:  cpu time    8.4867: real time    8.5056
    MIXING:  cpu time    0.8479: real time    0.8497
    --------------------------------------------
      LOOP:  cpu time  140.6166: real time  140.9529

 eigenvalue-minimisations  :   120
 total energy-change (2. order) : 0.2533618E+01  (-0.4454170E+00)
 number of electron      16.0000014 magnetization 
 augmentation part        0.4119695 magnetization 

 Broyden mixing:
  rms(total) = 0.57832E+00    rms(broyden)= 0.57812E+00
  rms(prec ) = 0.59304E+00
  weight for this iteration     100.00

 eigenvalues of (default mixing * dielectric matrix)
  average eigenvalue GAMMA=   1.5244
  1.5244

 Free energy of the ion-electron system (eV)
  ---------------------------------------------------
  alpha Z        PSCENC =         0.04144063
  Ewald energy   TEWEN  =       695.06007691
  -Hartree energ DENC   =     -1142.42291024
  -exchange      EXHF   =         0.00000000
  -V(xc)+E(xc)   XCENC  =        52.72170759
  PAW double counting   =       690.14101269     -692.76921103
  entropy T*S    EENTRO =         0.00000000
  eigenvalues    EBANDS =      -233.95009282
  atomic energy  EATOM  =       596.16534815
  Solvation  Ediel_sol  =         0.00000000
  ---------------------------------------------------
  free energy    TOTEN  =       -35.01262811 eV

  energy without entropy =      -35.01262811  energy(sigma->0) =      -35.01262811


--------------------------------------------------------------------------------------------------------




----------------------------------------- Iteration    1(   7)  ---------------------------------------


    POTLOK:  cpu time   26.8329: real time   26.9080
    SETDIJ:  cpu time    0.0070: real time    0.0066
     EDDAV:  cpu time  108.9024: real time  109.2142
       DOS:  cpu time    0.0000: real time    0.0002
    CHARGE:  cpu time    7.7818: real time    7.7994
    MIXING:  cpu time    0.8779: real time    0.8797
    --------------------------------------------
      LOOP:  cpu time  144.4030: real time  144.8126

 eigenvalue-minimisations  :   128
 total energy-change (2. order) : 0.5952431E+00  (-0.1609796E+00)
 number of electron      16.0000013 magnetization 
 augmentation part        0.4146654 magnetization 

 Broyden mixing:
  rms(total) = 0.25774E+00    rms(broyden)= 0.25768E+00
  rms(prec ) = 0.26545E+00
  weight for this iteration     100.00

 eigenvalues of (default mixing * dielectric matrix)
  average eigenvalue GAMMA=   1.4252
  0.8528  1.9976

 Free energy of the ion-electron system (eV)
  ---------------------------------------------------
  alpha Z        PSCENC =         0.04144063
  Ewald energy   TEWEN  =       695.06007691
  -Hartree energ DENC   =     -1160.34015501
  -exchange      EXHF   =         0.00000000
  -V(xc)+E(xc)   XCENC  =        53.79680880
  PAW double counting   =       998.86890081    -1001.62190796
  entropy T*S    EENTRO =         0.00000000
  eigenvalues    EBANDS =      -216.38789732
  atomic energy  EATOM  =       596.16534815
  Solvation  Ediel_sol  =         0.00000000
  ---------------------------------------------------
  free energy    TOTEN  =       -34.41738499 eV

  energy without entropy =      -34.41738499  energy(sigma->0) =      -34.41738499


--------------------------------------------------------------------------------------------------------




----------------------------------------- Iteration    1(   8)  ---------------------------------------


    POTLOK:  cpu time   26.7579: real time   26.8201
    SETDIJ:  cpu time    0.0060: real time    0.0069
     EDDAV:  cpu time  104.0722: real time  104.3090
       DOS:  cpu time    0.0000: real time    0.0002
    CHARGE:  cpu time    8.4857: real time    8.5060
    MIXING:  cpu time    0.9289: real time    0.9294
    --------------------------------------------
      LOOP:  cpu time  140.2537: real time  140.6355

 eigenvalue-minimisations  :   120
 total energy-change (2. order) : 0.1048119E+00  (-0.2311333E-01)
 number of electron      16.0000013 magnetization 
 augmentation part        0.3965610 magnetization 

 Broyden mixing:
  rms(total) = 0.10793E+00    rms(broyden)= 0.10788E+00
  rms(prec ) = 0.11170E+00
  weight for this iteration     100.00

 eigenvalues of (default mixing * dielectric matrix)
  average eigenvalue GAMMA=   1.4676
  2.2787  1.4348  0.6894

 Free energy of the ion-electron system (eV)
  ---------------------------------------------------
  alpha Z        PSCENC =         0.04144063
  Ewald energy   TEWEN  =       695.06007691
  -Hartree energ DENC   =     -1167.69352019
  -exchange      EXHF   =         0.00000000
  -V(xc)+E(xc)   XCENC  =        54.27113332
  PAW double counting   =      1156.76338647    -1159.54341602
  entropy T*S    EENTRO =         0.00000000
  eigenvalues    EBANDS =      -209.37702239
  atomic energy  EATOM  =       596.16534815
  Solvation  Ediel_sol  =         0.00000000
  ---------------------------------------------------
  free energy    TOTEN  =       -34.31257313 eV

  energy without entropy =      -34.31257313  energy(sigma->0) =      -34.31257313


--------------------------------------------------------------------------------------------------------




----------------------------------------- Iteration    1(   9)  ---------------------------------------


    POTLOK:  cpu time   27.7418: real time   27.8049
    SETDIJ:  cpu time    0.0070: real time    0.0066
     EDDAV:  cpu time  102.3684: real time  102.5988
       DOS:  cpu time    0.0000: real time    0.0002
    CHARGE:  cpu time    7.8838: real time    7.9028
    MIXING:  cpu time    0.9879: real time    0.9899
    --------------------------------------------
      LOOP:  cpu time  138.9899: real time  139.3085

 eigenvalue-minimisations  :   120
 total energy-change (2. order) : 0.2197255E-01  (-0.4280406E-02)
 number of electron      16.0000013 magnetization 
 augmentation part        0.3988164 magnetization 

 Broyden mixing:
  rms(total) = 0.31267E-01    rms(broyden)= 0.31255E-01
  rms(prec ) = 0.35253E-01
  weight for this iteration     100.00

 eigenvalues of (default mixing * dielectric matrix)
  average eigenvalue GAMMA=   1.4037
  2.2285  1.6551  1.0071  0.7239

 Free energy of the ion-electron system (eV)
  ---------------------------------------------------
  alpha Z        PSCENC =         0.04144063
  Ewald energy   TEWEN  =       695.06007691
  -Hartree energ DENC   =     -1169.60521672
  -exchange      EXHF   =         0.00000000
  -V(xc)+E(xc)   XCENC  =        54.39447656
  PAW double counting   =      1227.65491902    -1230.40746138
  entropy T*S    EENTRO =         0.00000000
  eigenvalues    EBANDS =      -207.59418373
  atomic energy  EATOM  =       596.16534815
  Solvation  Ediel_sol  =         0.00000000
  ---------------------------------------------------
  free energy    TOTEN  =       -34.29060057 eV

  energy without entropy =      -34.29060057  energy(sigma->0) =      -34.29060057


--------------------------------------------------------------------------------------------------------




----------------------------------------- Iteration    1(  10)  ---------------------------------------


    POTLOK:  cpu time   26.4260: real time   26.4885
    SETDIJ:  cpu time    0.0070: real time    0.0069
     EDDAV:  cpu time  109.3184: real time  109.5665
       DOS:  cpu time    0.0000: real time    0.0002
    CHARGE:  cpu time    8.0918: real time    8.1101
    MIXING:  cpu time    1.1598: real time    1.1619
    --------------------------------------------
      LOOP:  cpu time  145.0050: real time  145.3389

 eigenvalue-minimisations  :   128
 total energy-change (2. order) : 0.2389897E-02  (-0.6290548E-03)
 number of electron      16.0000013 magnetization 
 augmentation part        0.4004502 magnetization 

 Broyden mixing:
  rms(total) = 0.13292E-01    rms(broyden)= 0.13280E-01
  rms(prec ) = 0.18180E-01
  weight for this iteration     100.00

 eigenvalues of (default mixing * dielectric matrix)
  average eigenvalue GAMMA=   1.4173
  2.0898  2.0898  1.2743  0.7389  0.8938

 Free energy of the ion-electron system (eV)
  ---------------------------------------------------
  alpha Z        PSCENC =         0.04144063
  Ewald energy   TEWEN  =       695.06007691
  -Hartree energ DENC   =     -1170.30528767
  -exchange      EXHF   =         0.00000000
  -V(xc)+E(xc)   XCENC  =        54.40475089
  PAW double counting   =      1229.95738723    -1232.70162854
  entropy T*S    EENTRO =         0.00000000
  eigenvalues    EBANDS =      -206.91029827
  atomic energy  EATOM  =       596.16534815
  Solvation  Ediel_sol  =         0.00000000
  ---------------------------------------------------
  free energy    TOTEN  =       -34.28821068 eV

  energy without entropy =      -34.28821068  energy(sigma->0) =      -34.28821068


--------------------------------------------------------------------------------------------------------




----------------------------------------- Iteration    1(  11)  ---------------------------------------


    POTLOK:  cpu time   27.5558: real time   27.6189
    SETDIJ:  cpu time    0.0070: real time    0.0065
     EDDAV:  cpu time   84.4322: real time   84.6230
       DOS:  cpu time    0.0000: real time    0.0002
    CHARGE:  cpu time    8.6927: real time    8.7136
    MIXING:  cpu time    1.4568: real time    1.4601
    --------------------------------------------
      LOOP:  cpu time  122.1474: real time  122.4272

 eigenvalue-minimisations  :    96
 total energy-change (2. order) : 0.3015944E-04  (-0.1118137E-03)
 number of electron      16.0000013 magnetization 
 augmentation part        0.3998313 magnetization 

 Broyden mixing:
  rms(total) = 0.84414E-02    rms(broyden)= 0.84402E-02
  rms(prec ) = 0.12663E-01
  weight for this iteration     100.00

 eigenvalues of (default mixing * dielectric matrix)
  average eigenvalue GAMMA=   1.5234
  2.4510  2.4510  0.7375  1.2671  1.2671  0.9669

 Free energy of the ion-electron system (eV)
  ---------------------------------------------------
  alpha Z        PSCENC =         0.04144063
  Ewald energy   TEWEN  =       695.06007691
  -Hartree energ DENC   =     -1171.34579901
  -exchange      EXHF   =         0.00000000
  -V(xc)+E(xc)   XCENC  =        54.43306616
  PAW double counting   =      1230.06584066    -1232.80792734
  entropy T*S    EENTRO =         0.00000000
  eigenvalues    EBANDS =      -205.90022668
  atomic energy  EATOM  =       596.16534815
  Solvation  Ediel_sol  =         0.00000000
  ---------------------------------------------------
  free energy    TOTEN  =       -34.28818052 eV

  energy without entropy =      -34.28818052  energy(sigma->0) =      -34.28818052


--------------------------------------------------------------------------------------------------------




----------------------------------------- Iteration    1(  12)  ---------------------------------------


    POTLOK:  cpu time   28.7346: real time   28.8006
    SETDIJ:  cpu time    0.0070: real time    0.0067
     EDDAV:  cpu time   96.7213: real time   96.9387
       DOS:  cpu time    0.0000: real time    0.0002
    CHARGE:  cpu time    8.0808: real time    8.0995
    MIXING:  cpu time    1.5128: real time    1.5154
    --------------------------------------------
      LOOP:  cpu time  135.0575: real time  135.3653

 eigenvalue-minimisations  :   112
 total energy-change (2. order) :-0.2993211E-02  (-0.1690237E-03)
 number of electron      16.0000013 magnetization 
 augmentation part        0.3996867 magnetization 

 Broyden mixing:
  rms(total) = 0.43123E-02    rms(broyden)= 0.43104E-02
  rms(prec ) = 0.70791E-02
  weight for this iteration     100.00

 eigenvalues of (default mixing * dielectric matrix)
  average eigenvalue GAMMA=   1.6270
  3.3816  2.3626  1.5943  0.7400  0.8854  1.2127  1.2127

 Free energy of the ion-electron system (eV)
  ---------------------------------------------------
  alpha Z        PSCENC =         0.04144063
  Ewald energy   TEWEN  =       695.06007691
  -Hartree energ DENC   =     -1172.70271997
  -exchange      EXHF   =         0.00000000
  -V(xc)+E(xc)   XCENC  =        54.46336244
  PAW double counting   =      1226.76611550    -1229.50496138
  entropy T*S    EENTRO =         0.00000000
  eigenvalues    EBANDS =      -204.57983601
  atomic energy  EATOM  =       596.16534815
  Solvation  Ediel_sol  =         0.00000000
  ---------------------------------------------------
  free energy    TOTEN  =       -34.29117373 eV

  energy without entropy =      -34.29117373  energy(sigma->0) =      -34.29117373


--------------------------------------------------------------------------------------------------------




----------------------------------------- Iteration    1(  13)  ---------------------------------------


    POTLOK:  cpu time   26.7839: real time   26.8439
    SETDIJ:  cpu time    0.0070: real time    0.0068
     EDDAV:  cpu time  129.2663: real time  129.5570
       DOS:  cpu time    0.0000: real time    0.0002
    CHARGE:  cpu time    7.9808: real time    7.9995
    MIXING:  cpu time    1.3248: real time    1.3280
    --------------------------------------------
      LOOP:  cpu time  165.3649: real time  165.7408

 eigenvalue-minimisations  :   156
 total energy-change (2. order) :-0.3835194E-02  (-0.1296134E-03)
 number of electron      16.0000013 magnetization 
 augmentation part        0.3993749 magnetization 

 Broyden mixing:
  rms(total) = 0.29844E-02    rms(broyden)= 0.29825E-02
  rms(prec ) = 0.45744E-02
  weight for this iteration     100.00

 eigenvalues of (default mixing * dielectric matrix)
  average eigenvalue GAMMA=   1.7259
  4.1287  2.4706  1.6514  1.6514  1.3226  0.7398  0.9726  0.8698

 Free energy of the ion-electron system (eV)
  ---------------------------------------------------
  alpha Z        PSCENC =         0.04144063
  Ewald energy   TEWEN  =       695.06007691
  -Hartree energ DENC   =     -1173.59467903
  -exchange      EXHF   =         0.00000000
  -V(xc)+E(xc)   XCENC  =        54.48236737
  PAW double counting   =      1226.01003699    -1228.74872539
  entropy T*S    EENTRO =         0.00000000
  eigenvalues    EBANDS =      -203.71087455
  atomic energy  EATOM  =       596.16534815
  Solvation  Ediel_sol  =         0.00000000
  ---------------------------------------------------
  free energy    TOTEN  =       -34.29500892 eV

  energy without entropy =      -34.29500892  energy(sigma->0) =      -34.29500892


--------------------------------------------------------------------------------------------------------




----------------------------------------- Iteration    1(  14)  ---------------------------------------


    POTLOK:  cpu time   25.9511: real time   26.0083
    SETDIJ:  cpu time    0.0060: real time    0.0066
     EDDAV:  cpu time  104.6671: real time  104.8944
       DOS:  cpu time    0.0000: real time    0.0002
    CHARGE:  cpu time    7.8098: real time    7.8262
    MIXING:  cpu time    1.4278: real time    1.4311
    --------------------------------------------
      LOOP:  cpu time  139.8647: real time  140.1716

 eigenvalue-minimisations  :   124
 total energy-change (2. order) :-0.3946004E-02  (-0.4261739E-04)
 number of electron      16.0000013 magnetization 
 augmentation part        0.3993526 magnetization 

 Broyden mixing:
  rms(total) = 0.18264E-02    rms(broyden)= 0.18260E-02
  rms(prec ) = 0.27796E-02
  weight for this iteration     100.00

 eigenvalues of (default mixing * dielectric matrix)
  average eigenvalue GAMMA=   1.7982
  4.7613  2.5738  2.3529  1.5492  1.2142  1.2142  0.7384  0.8898  0.8898

 Free energy of the ion-electron system (eV)
  ---------------------------------------------------
  alpha Z        PSCENC =         0.04144063
  Ewald energy   TEWEN  =       695.06007691
  -Hartree energ DENC   =     -1173.92539012
  -exchange      EXHF   =         0.00000000
  -V(xc)+E(xc)   XCENC  =        54.47945572
  PAW double counting   =      1224.20345120    -1226.94167337
  entropy T*S    EENTRO =         0.00000000
  eigenvalues    EBANDS =      -203.38166404
  atomic energy  EATOM  =       596.16534815
  Solvation  Ediel_sol  =         0.00000000
  ---------------------------------------------------
  free energy    TOTEN  =       -34.29895493 eV

  energy without entropy =      -34.29895493  energy(sigma->0) =      -34.29895493


--------------------------------------------------------------------------------------------------------




----------------------------------------- Iteration    1(  15)  ---------------------------------------


    POTLOK:  cpu time   25.8861: real time   25.9428
    SETDIJ:  cpu time    0.0070: real time    0.0065
     EDDAV:  cpu time  104.4671: real time  104.6892
       DOS:  cpu time    0.0000: real time    0.0002
    CHARGE:  cpu time    7.4859: real time    7.5018
    MIXING:  cpu time    1.4428: real time    1.4467
    --------------------------------------------
      LOOP:  cpu time  139.2898: real time  139.5914

 eigenvalue-minimisations  :   128
 total energy-change (2. order) :-0.2482879E-02  (-0.2247555E-04)
 number of electron      16.0000013 magnetization 
 augmentation part        0.3993083 magnetization 

 Broyden mixing:
  rms(total) = 0.10683E-02    rms(broyden)= 0.10681E-02
  rms(prec ) = 0.17000E-02
  weight for this iteration     100.00

 eigenvalues of (default mixing * dielectric matrix)
  average eigenvalue GAMMA=   1.9197
  5.9090  3.0092  2.2940  1.5793  1.4223  1.2231  1.2231  0.7389  0.8991  0.8991

 Free energy of the ion-electron system (eV)
  ---------------------------------------------------
  alpha Z        PSCENC =         0.04144063
  Ewald energy   TEWEN  =       695.06007691
  -Hartree energ DENC   =     -1174.10150158
  -exchange      EXHF   =         0.00000000
  -V(xc)+E(xc)   XCENC  =        54.47889038
  PAW double counting   =      1224.39556920    -1227.13407490
  entropy T*S    EENTRO =         0.00000000
  eigenvalues    EBANDS =      -203.20718660
  atomic energy  EATOM  =       596.16534815
  Solvation  Ediel_sol  =         0.00000000
  ---------------------------------------------------
  free energy    TOTEN  =       -34.30143780 eV

  energy without entropy =      -34.30143780  energy(sigma->0) =      -34.30143780


--------------------------------------------------------------------------------------------------------




----------------------------------------- Iteration    1(  16)  ---------------------------------------


    POTLOK:  cpu time   24.7772: real time   24.8295
    SETDIJ:  cpu time    0.0060: real time    0.0064
     EDDAV:  cpu time   78.9680: real time   79.1347
       DOS:  cpu time    0.0000: real time    0.0002
    CHARGE:  cpu time    7.5698: real time    7.5866
    MIXING:  cpu time    1.5778: real time    1.5805
    --------------------------------------------
      LOOP:  cpu time  112.9018: real time  113.1424

 eigenvalue-minimisations  :    96
 total energy-change (2. order) :-0.2031002E-02  (-0.1919641E-04)
 number of electron      16.0000013 magnetization 
 augmentation part        0.3992930 magnetization 

 Broyden mixing:
  rms(total) = 0.65511E-03    rms(broyden)= 0.65486E-03
  rms(prec ) = 0.96411E-03
  weight for this iteration     100.00

 eigenvalues of (default mixing * dielectric matrix)
  average eigenvalue GAMMA=   2.0773
  7.0358  3.5668  2.3588  2.3588  1.5074  1.2491  1.2491  0.7391  0.9578  0.9578
  0.8699

 Free energy of the ion-electron system (eV)
  ---------------------------------------------------
  alpha Z        PSCENC =         0.04144063
  Ewald energy   TEWEN  =       695.06007691
  -Hartree energ DENC   =     -1174.20141614
  -exchange      EXHF   =         0.00000000
  -V(xc)+E(xc)   XCENC  =        54.47614447
  PAW double counting   =      1224.24445688    -1226.98296245
  entropy T*S    EENTRO =         0.00000000
  eigenvalues    EBANDS =      -203.10655726
  atomic energy  EATOM  =       596.16534815
  Solvation  Ediel_sol  =         0.00000000
  ---------------------------------------------------
  free energy    TOTEN  =       -34.30346881 eV

  energy without entropy =      -34.30346881  energy(sigma->0) =      -34.30346881


--------------------------------------------------------------------------------------------------------




----------------------------------------- Iteration    1(  17)  ---------------------------------------


    POTLOK:  cpu time   25.8091: real time   25.8651
    SETDIJ:  cpu time    0.0070: real time    0.0066
     EDDAV:  cpu time   82.1585: real time   82.3304
       DOS:  cpu time    0.0000: real time    0.0002
    CHARGE:  cpu time    7.7278: real time    7.7445
    MIXING:  cpu time    1.8687: real time    1.8725
    --------------------------------------------
      LOOP:  cpu time  117.5731: real time  117.8239

 eigenvalue-minimisations  :    96
 total energy-change (2. order) :-0.1101152E-02  (-0.6167035E-05)
 number of electron      16.0000013 magnetization 
 augmentation part        0.3992820 magnetization 

 Broyden mixing:
  rms(total) = 0.32775E-03    rms(broyden)= 0.32770E-03
  rms(prec ) = 0.48197E-03
  weight for this iteration     100.00

 eigenvalues of (default mixing * dielectric matrix)
  average eigenvalue GAMMA=   2.1411
  7.5205  4.1269  2.4881  2.2846  1.7826  1.5379  1.2241  1.2241  0.7390  0.9482
  0.9482  0.8691

 Free energy of the ion-electron system (eV)
  ---------------------------------------------------
  alpha Z        PSCENC =         0.04144063
  Ewald energy   TEWEN  =       695.06007691
  -Hartree energ DENC   =     -1174.22124545
  -exchange      EXHF   =         0.00000000
  -V(xc)+E(xc)   XCENC  =        54.47392850
  PAW double counting   =      1224.57899562    -1227.31739668
  entropy T*S    EENTRO =         0.00000000
  eigenvalues    EBANDS =      -203.08571763
  atomic energy  EATOM  =       596.16534815
  Solvation  Ediel_sol  =         0.00000000
  ---------------------------------------------------
  free energy    TOTEN  =       -34.30456996 eV

  energy without entropy =      -34.30456996  energy(sigma->0) =      -34.30456996


--------------------------------------------------------------------------------------------------------




----------------------------------------- Iteration    1(  18)  ---------------------------------------


    POTLOK:  cpu time   24.8152: real time   24.8673
    SETDIJ:  cpu time    0.0050: real time    0.0065
     EDDAV:  cpu time   82.0715: real time   82.2435
       DOS:  cpu time    0.0000: real time    0.0002
    CHARGE:  cpu time    7.6098: real time    7.6258
    MIXING:  cpu time    2.0127: real time    2.0175
    --------------------------------------------
      LOOP:  cpu time  116.5153: real time  116.7650

 eigenvalue-minimisations  :    96
 total energy-change (2. order) :-0.4362159E-03  (-0.3963691E-05)
 number of electron      16.0000013 magnetization 
 augmentation part        0.3992780 magnetization 

 Broyden mixing:
  rms(total) = 0.19711E-03    rms(broyden)= 0.19708E-03
  rms(prec ) = 0.28011E-03
  weight for this iteration     100.00

 eigenvalues of (default mixing * dielectric matrix)
  average eigenvalue GAMMA=   2.2441
  8.3129  4.7563  2.6936  2.6936  2.1560  1.5368  1.2339  1.2339  0.7391  0.8703
  1.0058  0.9707  0.9707

 Free energy of the ion-electron system (eV)
  ---------------------------------------------------
  alpha Z        PSCENC =         0.04144063
  Ewald energy   TEWEN  =       695.06007691
  -Hartree energ DENC   =     -1174.22320354
  -exchange      EXHF   =         0.00000000
  -V(xc)+E(xc)   XCENC  =        54.47323220
  PAW double counting   =      1224.58969103    -1227.32806408
  entropy T*S    EENTRO =         0.00000000
  eigenvalues    EBANDS =      -203.08352747
  atomic energy  EATOM  =       596.16534815
  Solvation  Ediel_sol  =         0.00000000
  ---------------------------------------------------
  free energy    TOTEN  =       -34.30500617 eV

  energy without entropy =      -34.30500617  energy(sigma->0) =      -34.30500617


--------------------------------------------------------------------------------------------------------




----------------------------------------- Iteration    1(  19)  ---------------------------------------


    POTLOK:  cpu time   24.2033: real time   24.2539
    SETDIJ:  cpu time    0.0060: real time    0.0065
     EDDAV:  cpu time   79.0820: real time   79.2474
       DOS:  cpu time    0.0000: real time    0.0002
    CHARGE:  cpu time    7.3569: real time    7.3736
    MIXING:  cpu time    2.0297: real time    2.0342
    --------------------------------------------
      LOOP:  cpu time  112.6789: real time  112.9205

 eigenvalue-minimisations  :    92
 total energy-change (2. order) :-0.2187016E-03  (-0.1876417E-05)
 number of electron      16.0000013 magnetization 
 augmentation part        0.3992739 magnetization 

 Broyden mixing:
  rms(total) = 0.10030E-03    rms(broyden)= 0.10026E-03
  rms(prec ) = 0.14214E-03
  weight for this iteration     100.00

 eigenvalues of (default mixing * dielectric matrix)
  average eigenvalue GAMMA=   2.2669
  8.5603  4.9251  3.2031  2.4011  2.2129  1.9244  1.5140  1.2389  1.2389  0.7391
  0.9956  0.9570  0.9570  0.8695

 Free energy of the ion-electron system (eV)
  ---------------------------------------------------
  alpha Z        PSCENC =         0.04144063
  Ewald energy   TEWEN  =       695.06007691
  -Hartree energ DENC   =     -1174.21910617
  -exchange      EXHF   =         0.00000000
  -V(xc)+E(xc)   XCENC  =        54.47262434
  PAW double counting   =      1224.45567436    -1227.19402127
  entropy T*S    EENTRO =         0.00000000
  eigenvalues    EBANDS =      -203.08726183
  atomic energy  EATOM  =       596.16534815
  Solvation  Ediel_sol  =         0.00000000
  ---------------------------------------------------
  free energy    TOTEN  =       -34.30522488 eV

  energy without entropy =      -34.30522488  energy(sigma->0) =      -34.30522488


--------------------------------------------------------------------------------------------------------




----------------------------------------- Iteration    1(  20)  ---------------------------------------


    POTLOK:  cpu time   23.9214: real time   23.9712
    SETDIJ:  cpu time    0.0060: real time    0.0066
     EDDAV:  cpu time   73.9408: real time   74.0916
       DOS:  cpu time    0.0000: real time    0.0002
    --------------------------------------------
      LOOP:  cpu time   97.8701: real time   98.0734

 eigenvalue-minimisations  :    96
 total energy-change (2. order) :-0.8863289E-04  (-0.5967565E-06)
 number of electron      16.0000013 magnetization 
 augmentation part        0.3992739 magnetization 

 Free energy of the ion-electron system (eV)
  ---------------------------------------------------
  alpha Z        PSCENC =         0.04144063
  Ewald energy   TEWEN  =       695.06007691
  -Hartree energ DENC   =     -1174.22158349
  -exchange      EXHF   =         0.00000000
  -V(xc)+E(xc)   XCENC  =        54.47251324
  PAW double counting   =      1224.45536346    -1227.19371100
  entropy T*S    EENTRO =         0.00000000
  eigenvalues    EBANDS =      -203.08476141
  atomic energy  EATOM  =       596.16534815
  Solvation  Ediel_sol  =         0.00000000
  ---------------------------------------------------
  free energy    TOTEN  =       -34.30531351 eV

  energy without entropy =      -34.30531351  energy(sigma->0) =      -34.30531351


--------------------------------------------------------------------------------------------------------




 average (electrostatic) potential at core
  the test charge radii are     0.5201  0.6991  0.7089
  (the norm of the test charge is              1.0000)
       1 -42.9674       2 -42.9680       3 -42.7135       4 -60.2922       5 -59.8058
       6 -74.2981
 
 
 
 E-fermi :  -6.4810     XC(G=0):  -0.0910     alpha+bet : -0.0137


 k-point     1 :       0.2500    0.2500    0.2500
  band No.  band energies     occupation 
      1     -23.6493      2.00000
      2     -18.0343      2.00000
      3     -12.1241      2.00000
      4     -11.4885      2.00000
      5     -10.9466      2.00000
      6      -9.4299      2.00000
      7      -8.4152      2.00000
      8      -7.4546      2.00000
      9      -3.2512      0.00000
     10      -0.6487      0.00000
     11      -0.3826      0.00000
     12      -0.0032      0.00000

 k-point     2 :      -0.2500    0.2500    0.2500
  band No.  band energies     occupation 
      1     -23.6493      2.00000
      2     -18.0343      2.00000
      3     -12.1241      2.00000
      4     -11.4885      2.00000
      5     -10.9466      2.00000
      6      -9.4299      2.00000
      7      -8.4152      2.00000
      8      -7.4545      2.00000
      9      -3.2512      0.00000
     10      -0.6487      0.00000
     11      -0.3826      0.00000
     12      -0.0059      0.00000

 k-point     3 :       0.2500   -0.2500    0.2500
  band No.  band energies     occupation 
      1     -23.6493      2.00000
      2     -18.0343      2.00000
      3     -12.1241      2.00000
      4     -11.4885      2.00000
      5     -10.9466      2.00000
      6      -9.4299      2.00000
      7      -8.4152      2.00000
      8      -7.4546      2.00000
      9      -3.2512      0.00000
     10      -0.6487      0.00000
     11      -0.3826      0.00000
     12      -0.0035      0.00000

 k-point     4 :      -0.2500   -0.2500    0.2500
  band No.  band energies     occupation 
      1     -23.6493      2.00000
      2     -18.0343      2.00000
      3     -12.1241      2.00000
      4     -11.4885      2.00000
      5     -10.9466      2.00000
      6      -9.4299      2.00000
      7      -8.4152      2.00000
      8      -7.4546      2.00000
      9      -3.2512      0.00000
     10      -0.6487      0.00000
     11      -0.3826      0.00000
     12      -0.0032      0.00000


--------------------------------------------------------------------------------------------------------


 soft charge-density along one line, spin component           1
         0         1         2         3         4         5         6         7         8         9
 total charge-density along one line
 
 pseudopotential strength for first ion, spin component:           1
 -2.361  -4.071  -0.002   0.000  -0.001
 -4.071  -6.936  -0.005   0.001  -0.002
 -0.002  -0.005  -0.330  -0.001   0.002
  0.000   0.001  -0.001  -0.334   0.000
 -0.001  -0.002   0.002   0.000  -0.333
 total augmentation occupancy for first ion, spin component:           1
  3.559  -0.642   0.413  -0.113   0.164
 -0.642   0.133  -0.076   0.020  -0.031
  0.413  -0.076   0.050  -0.011   0.016
 -0.113   0.020  -0.011   0.012  -0.005
  0.164  -0.031   0.016  -0.005   0.014


------------------------ aborting loop because EDIFF is reached ----------------------------------------


    CHARGE:  cpu time    6.5180: real time    6.5310
    FORLOC:  cpu time    2.4316: real time    2.4368
    FORNL :  cpu time   19.7810: real time   19.8223
    STRESS:  cpu time   55.2056: real time   55.3170
    FORCOR:  cpu time   18.6882: real time   18.7239
    FORHAR:  cpu time    6.3110: real time    6.3237
    MIXING:  cpu time    1.2288: real time    1.2307
    OFIELD:  cpu time    0.0000: real time    0.0000

  FORCE on cell =-STRESS in cart. coord.  units (eV):
  Direction    XX          YY          ZZ          XY          YZ          ZX
  --------------------------------------------------------------------------------------
  Alpha Z     0.04144     0.04144     0.04144
  Ewald     351.01894   148.20215   195.83913    48.05083   124.17931    78.37285
  Hartree   494.44168   329.71173   350.06721    25.17307    50.32578    44.28821
  E(xc)     -59.33789   -59.41964   -59.26728     0.11314     0.42227     0.16635
  Local   -1006.58701  -643.47093  -708.34428   -72.04058  -165.87724  -120.42206
  n-local   -18.00646   -25.57687   -26.85523    -1.51400    -3.54344    -1.44274
  augment     0.19013     0.62774     0.65169     0.12345     0.03874     0.11390
  Kinetic   238.74003   248.74869   246.91382     1.55592    -5.66078     0.75212
  Fock        0.00000     0.00000     0.00000     0.00000     0.00000     0.00000
  -------------------------------------------------------------------------------------
  Total       0.50087    -1.13570    -0.95350     1.46182    -0.11536     1.82862
  in kB       0.02972    -0.06739    -0.05658     0.08674    -0.00685     0.10851
  external pressure =       -0.03 kB  Pullay stress =        0.00 kB


 VOLUME and BASIS-vectors are now :
 -----------------------------------------------------------------------------
  energy-cutoff  :      400.00
  volume of cell :    27000.00
      direct lattice vectors                 reciprocal lattice vectors
    30.000000000  0.000000000  0.000000000     0.033333333  0.000000000  0.000000000
     0.000000000 30.000000000  0.000000000     0.000000000  0.033333333  0.000000000
     0.000000000  0.000000000 30.000000000     0.000000000  0.000000000  0.033333333

  length of vectors
    30.000000000 30.000000000 30.000000000     0.033333333  0.033333333  0.033333333


 FORCES acting on ions
    electron-ion (+dipol)            ewald-force                    non-local-force                 convergence-correction
 -----------------------------------------------------------------------------------------------
   0.348E+02 0.550E+02 -.136E+02   -.371E+02 -.604E+02 0.149E+02   0.204E+01 0.529E+01 -.148E+01   -.410E-04 -.866E-04 0.352E-04
   0.302E+02 -.200E+02 0.558E+02   -.322E+02 0.219E+02 -.613E+02   0.160E+01 -.200E+01 0.528E+01   -.320E-04 0.434E-04 -.856E-04
   0.338E+02 -.392E+02 -.399E+02   -.351E+02 0.427E+02 0.436E+02   0.154E+01 -.371E+01 -.391E+01   -.793E-05 0.828E-04 0.899E-04
   0.968E+02 0.458E+01 0.123E+02   -.104E+03 -.453E+01 -.127E+02   0.668E+01 -.356E+00 0.194E-01   0.677E-04 0.900E-04 0.950E-04
   -.623E+02 0.135E+03 0.153E+03   0.648E+02 -.146E+03 -.165E+03   -.364E+01 0.112E+02 0.128E+02   0.107E-03 0.344E-03 0.394E-03
   -.134E+03 -.124E+03 -.155E+03   0.143E+03 0.146E+03 0.181E+03   -.764E+01 -.216E+02 -.258E+02   -.251E-03 0.249E-04 -.652E-06
 -----------------------------------------------------------------------------------------------
   -.601E+00 0.112E+02 0.131E+02   0.000E+00 0.000E+00 0.000E+00   0.601E+00 -.112E+02 -.130E+02   -.158E-03 0.498E-03 0.528E-03
 
 
 POSITION                                       TOTAL-FORCE (eV/Angst)
 -----------------------------------------------------------------------------------
     14.18612     13.96018     15.17165        -0.316298     -0.142137     -0.183409
     14.26622     15.30561     13.92587        -0.357358     -0.126502     -0.193573
     14.28506     15.67649     15.67963         0.332147     -0.219275     -0.217258
     14.57329     14.94111     14.90316        -0.156496     -0.310263     -0.394862
     16.16722     14.66942     14.70066        -1.116014      0.639847      0.703275
     16.46186     15.40729     15.58244         1.614019      0.158331      0.285828
 -----------------------------------------------------------------------------------
    total drift:                                0.000752      0.001886      0.004200


--------------------------------------------------------------------------------------------------------



  FREE ENERGIE OF THE ION-ELECTRON SYSTEM (eV)
  ---------------------------------------------------
  free  energy   TOTEN  =       -34.30531351 eV

  energy  without entropy=      -34.30531351  energy(sigma->0) =      -34.30531351
 


--------------------------------------------------------------------------------------------------------


    POTLOK:  cpu time   15.2167: real time   15.2460


--------------------------------------------------------------------------------------------------------


 NEB: the previous image is higher in energy: T
 NEB: the next image is higher in energy    : F
 NEB: only prev energy greater

 NEB: Tangent
 ----------------------------------------------
     -0.14980     -0.06726     -0.06997
     -0.17718     -0.06240     -0.09736
      0.14630     -0.08509     -0.09171
     -0.07231     -0.13601     -0.17255
     -0.43364      0.27088      0.29489
      0.67782      0.09143      0.12900

 NEB: forces: par spring, perp REAL, dneb     0.133724    0.143368    0.000000
 NEB: distance to prev, next image, angle between     0.196990    0.223735  164.542253
 NEB: projections on to tangent (spring, REAL)     0.133724    2.378676

 stress matrix after NEB project (eV)
      0.50087      1.46182      1.82862
      1.46182     -1.13570     -0.11536
      1.82862     -0.11536     -0.95350
  FORCES: max atom, RMS     0.151731    0.080038
  FORCE total and by dimension    0.196052    0.142521
  Stress total and by dimension    3.665790    1.828621
 
 OPT: Flag T
 OPT: FIRE Step
 OPT: FIRE, TIMESTEP      0.10000
 OPT: FIRE, alpha         0.10000


--------------------------------------------------------------------------------------------------------


    WAVPRE:  cpu time    7.5109: real time    7.5278
 FEWALD executed in parallel
    FEWALD:  cpu time    0.0000: real time    0.0003
    ORTHCH:  cpu time    5.9851: real time    5.9995
     LOOP+:  cpu time 2807.2932: real time 2813.7760


----------------------------------------- Iteration    2(   1)  ---------------------------------------


    POTLOK:  cpu time   22.1196: real time   22.1706
    SETDIJ:  cpu time    0.0060: real time    0.0066
     EDDAV:  cpu time   82.8134: real time   83.0096
       DOS:  cpu time    0.0000: real time    0.0002
    CHARGE:  cpu time    5.5272: real time    5.5412
    MIXING:  cpu time    0.5239: real time    0.5249
    --------------------------------------------
      LOOP:  cpu time  110.9941: real time  111.2568

 eigenvalue-minimisations  :   120
 total energy-change (2. order) :-0.3514552E-02  (-0.7573610E-03)
 number of electron      16.0000013 magnetization 
 augmentation part        0.3996444 magnetization 

 Broyden mixing:
  rms(total) = 0.32697E-02    rms(broyden)= 0.32329E-02
  rms(prec ) = 0.33268E-02
  weight for this iteration     100.00

 Free energy of the ion-electron system (eV)
  ---------------------------------------------------
  alpha Z        PSCENC =         0.04144063
  Ewald energy   TEWEN  =       695.27478696
  -Hartree energ DENC   =     -1174.36506840
  -exchange      EXHF   =         0.00000000
  -V(xc)+E(xc)   XCENC  =        54.47698812
  PAW double counting   =      1224.45577524    -1227.19414362
  entropy T*S    EENTRO =         0.00000000
  eigenvalues    EBANDS =      -203.16386650
  atomic energy  EATOM  =       596.16534815
  Solvation  Ediel_sol  =         0.00000000
  ---------------------------------------------------
  free energy    TOTEN  =       -34.30873943 eV

  energy without entropy =      -34.30873943  energy(sigma->0) =      -34.30873943


--------------------------------------------------------------------------------------------------------




----------------------------------------- Iteration    2(   2)  ---------------------------------------


    POTLOK:  cpu time   18.9341: real time   18.9789
    SETDIJ:  cpu time    0.0060: real time    0.0064
     EDDAV:  cpu time   72.9939: real time   73.1671
       DOS:  cpu time    0.0000: real time    0.0002
    CHARGE:  cpu time    6.4030: real time    6.4183
    MIXING:  cpu time    0.5559: real time    0.5564
    --------------------------------------------
      LOOP:  cpu time   98.8950: real time   99.1328

 eigenvalue-minimisations  :    96
 total energy-change (2. order) : 0.1080374E-04  (-0.9612650E-05)
 number of electron      16.0000013 magnetization 
 augmentation part        0.3996000 magnetization 

 Broyden mixing:
  rms(total) = 0.17101E-02    rms(broyden)= 0.17075E-02
  rms(prec ) = 0.17427E-02
  weight for this iteration     100.00

 eigenvalues of (default mixing * dielectric matrix)
  average eigenvalue GAMMA=   1.5290
  1.5290

 Free energy of the ion-electron system (eV)
  ---------------------------------------------------
  alpha Z        PSCENC =         0.04144063
  Ewald energy   TEWEN  =       695.27478696
  -Hartree energ DENC   =     -1174.40204031
  -exchange      EXHF   =         0.00000000
  -V(xc)+E(xc)   XCENC  =        54.47842134
  PAW double counting   =      1224.86507318    -1227.60383543
  entropy T*S    EENTRO =         0.00000000
  eigenvalues    EBANDS =      -203.12792315
  atomic energy  EATOM  =       596.16534815
  Solvation  Ediel_sol  =         0.00000000
  ---------------------------------------------------
  free energy    TOTEN  =       -34.30872862 eV

  energy without entropy =      -34.30872862  energy(sigma->0) =      -34.30872862


--------------------------------------------------------------------------------------------------------




----------------------------------------- Iteration    2(   3)  ---------------------------------------


    POTLOK:  cpu time   19.7340: real time   19.7800
    SETDIJ:  cpu time    0.0070: real time    0.0064
     EDDAV:  cpu time   66.9338: real time   67.0924
       DOS:  cpu time    0.0000: real time    0.0002
    CHARGE:  cpu time    6.5660: real time    6.5818
    MIXING:  cpu time    0.7749: real time    0.7775
    --------------------------------------------
      LOOP:  cpu time   94.0177: real time   94.2424

 eigenvalue-minimisations  :    88
 total energy-change (2. order) :-0.1343810E-04  (-0.2684582E-05)
 number of electron      16.0000013 magnetization 
 augmentation part        0.3996369 magnetization 

 Broyden mixing:
  rms(total) = 0.68079E-03    rms(broyden)= 0.68022E-03
  rms(prec ) = 0.69779E-03
  weight for this iteration     100.00

 eigenvalues of (default mixing * dielectric matrix)
  average eigenvalue GAMMA=   1.3615
  0.8515  1.8714

 Free energy of the ion-electron system (eV)
  ---------------------------------------------------
  alpha Z        PSCENC =         0.04144063
  Ewald energy   TEWEN  =       695.27478696
  -Hartree energ DENC   =     -1174.41947531
  -exchange      EXHF   =         0.00000000
  -V(xc)+E(xc)   XCENC  =        54.47901755
  PAW double counting   =      1225.30308649    -1228.04216091
  entropy T*S    EENTRO =         0.00000000
  eigenvalues    EBANDS =      -203.11078562
  atomic energy  EATOM  =       596.16534815
  Solvation  Ediel_sol  =         0.00000000
  ---------------------------------------------------
  free energy    TOTEN  =       -34.30874206 eV

  energy without entropy =      -34.30874206  energy(sigma->0) =      -34.30874206


--------------------------------------------------------------------------------------------------------




----------------------------------------- Iteration    2(   4)  ---------------------------------------


    POTLOK:  cpu time   21.8087: real time   21.8604
    SETDIJ:  cpu time    0.0060: real time    0.0065
     EDDAV:  cpu time   70.9942: real time   71.1630
[...]
  Solvation  Ediel_sol  =         0.00000000
  ---------------------------------------------------
  free energy    TOTEN  =       -34.23692775 eV

  energy without entropy =      -34.23692775  energy(sigma->0) =      -34.23692775


--------------------------------------------------------------------------------------------------------




----------------------------------------- Iteration   28(   2)  ---------------------------------------


    POTLOK:  cpu time   23.8374: real time   24.5626
    SETDIJ:  cpu time    0.0060: real time    0.0065
     EDDAV:  cpu time   47.9727: real time   48.0839
       DOS:  cpu time    0.0000: real time    0.0002
    CHARGE:  cpu time    7.1549: real time    7.1718
    MIXING:  cpu time    1.1638: real time    1.1661
    --------------------------------------------
      LOOP:  cpu time   80.1368: real time   81.0036

 eigenvalue-minimisations  :    48
 total energy-change (2. order) :-0.9966129E-07  (-0.2856699E-07)
 number of electron      16.0000016 magnetization 
 augmentation part        0.3966859 magnetization 

 Broyden mixing:
  rms(total) = 0.40663E-04    rms(broyden)= 0.40554E-04
  rms(prec ) = 0.41221E-04
  weight for this iteration     100.00

 eigenvalues of (default mixing * dielectric matrix)
  average eigenvalue GAMMA=   1.2018
  1.2018

 Free energy of the ion-electron system (eV)
  ---------------------------------------------------
  alpha Z        PSCENC =         0.04144063
  Ewald energy   TEWEN  =       696.18487100
  -Hartree energ DENC   =     -1175.12627190
  -exchange      EXHF   =         0.00000000
  -V(xc)+E(xc)   XCENC  =        54.45840511
  PAW double counting   =      1218.68684388    -1221.42104636
  entropy T*S    EENTRO =         0.00000000
  eigenvalues    EBANDS =      -203.22651836
  atomic energy  EATOM  =       596.16534815
  Solvation  Ediel_sol  =         0.00000000
  ---------------------------------------------------
  free energy    TOTEN  =       -34.23692785 eV

  energy without entropy =      -34.23692785  energy(sigma->0) =      -34.23692785


--------------------------------------------------------------------------------------------------------




----------------------------------------- Iteration   28(   3)  ---------------------------------------


    POTLOK:  cpu time   32.2041: real time   32.2734
    SETDIJ:  cpu time    0.0070: real time    0.0066
     EDDAV:  cpu time   47.4928: real time   47.6014
       DOS:  cpu time    0.0000: real time    0.0002
    CHARGE:  cpu time    7.1629: real time    7.6416
    MIXING:  cpu time    0.7599: real time    0.7610
    --------------------------------------------
      LOOP:  cpu time   87.6277: real time   88.3048

 eigenvalue-minimisations  :    48
 total energy-change (2. order) :-0.9096641E-07  (-0.3842586E-08)
 number of electron      16.0000016 magnetization 
 augmentation part        0.3966864 magnetization 

 Broyden mixing:
  rms(total) = 0.23096E-04    rms(broyden)= 0.23082E-04
  rms(prec ) = 0.23476E-04
  weight for this iteration     100.00

 eigenvalues of (default mixing * dielectric matrix)
  average eigenvalue GAMMA=   1.4434
  0.9727  1.9141

 Free energy of the ion-electron system (eV)
  ---------------------------------------------------
  alpha Z        PSCENC =         0.04144063
  Ewald energy   TEWEN  =       696.18487100
  -Hartree energ DENC   =     -1175.12632805
  -exchange      EXHF   =         0.00000000
  -V(xc)+E(xc)   XCENC  =        54.45840973
  PAW double counting   =      1218.68835862    -1221.42256353
  entropy T*S    EENTRO =         0.00000000
  eigenvalues    EBANDS =      -203.22646449
  atomic energy  EATOM  =       596.16534815
  Solvation  Ediel_sol  =         0.00000000
  ---------------------------------------------------
  free energy    TOTEN  =       -34.23692794 eV

  energy without entropy =      -34.23692794  energy(sigma->0) =      -34.23692794


--------------------------------------------------------------------------------------------------------




----------------------------------------- Iteration   28(   4)  ---------------------------------------


    POTLOK:  cpu time   25.4631: real time   27.9172
    SETDIJ:  cpu time    0.0070: real time    0.0066
     EDDAV:  cpu time   47.3278: real time   51.0608
       DOS:  cpu time    0.0000: real time    0.0002
    CHARGE:  cpu time    6.6150: real time    6.6302
    MIXING:  cpu time    0.8689: real time    0.8711
    --------------------------------------------
      LOOP:  cpu time   80.2828: real time   86.4959

 eigenvalue-minimisations  :    48
 total energy-change (2. order) :-0.1069651E-06  (-0.1441031E-08)
 number of electron      16.0000016 magnetization 
 augmentation part        0.3966863 magnetization 

 Broyden mixing:
  rms(total) = 0.82435E-05    rms(broyden)= 0.82313E-05
  rms(prec ) = 0.85053E-05
  weight for this iteration     100.00

 eigenvalues of (default mixing * dielectric matrix)
  average eigenvalue GAMMA=   1.5061
  1.9742  0.8876  1.6567

 Free energy of the ion-electron system (eV)
  ---------------------------------------------------
  alpha Z        PSCENC =         0.04144063
  Ewald energy   TEWEN  =       696.18487100
  -Hartree energ DENC   =     -1175.12635572
  -exchange      EXHF   =         0.00000000
  -V(xc)+E(xc)   XCENC  =        54.45841232
  PAW double counting   =      1218.69243306    -1221.42664049
  entropy T*S    EENTRO =         0.00000000
  eigenvalues    EBANDS =      -203.22643699
  atomic energy  EATOM  =       596.16534815
  Solvation  Ediel_sol  =         0.00000000
  ---------------------------------------------------
  free energy    TOTEN  =       -34.23692805 eV

  energy without entropy =      -34.23692805  energy(sigma->0) =      -34.23692805


--------------------------------------------------------------------------------------------------------




----------------------------------------- Iteration   28(   5)  ---------------------------------------


    POTLOK:  cpu time   28.5387: real time   32.0075
    SETDIJ:  cpu time    0.0070: real time    0.0170
     EDDAV:  cpu time   66.1000: real time   74.2091
       DOS:  cpu time    0.0000: real time    0.0002
    CHARGE:  cpu time    6.7060: real time    8.0014
    MIXING:  cpu time    0.8619: real time    1.0441
    --------------------------------------------
      LOOP:  cpu time  102.2155: real time  115.2977

 eigenvalue-minimisations  :    80
 total energy-change (2. order) :-0.7808751E-07  (-0.1060006E-08)
 number of electron      16.0000016 magnetization 
 augmentation part        0.3966862 magnetization 

 Broyden mixing:
  rms(total) = 0.41420E-05    rms(broyden)= 0.41377E-05
  rms(prec ) = 0.44321E-05
  weight for this iteration     100.00

 eigenvalues of (default mixing * dielectric matrix)
  average eigenvalue GAMMA=   1.5378
  2.1992  2.1992  0.8764  0.8764

 Free energy of the ion-electron system (eV)
  ---------------------------------------------------
  alpha Z        PSCENC =         0.04144063
  Ewald energy   TEWEN  =       696.18487100
  -Hartree energ DENC   =     -1175.12635393
  -exchange      EXHF   =         0.00000000
  -V(xc)+E(xc)   XCENC  =        54.45841114
  PAW double counting   =      1218.69453890    -1221.42874683
  entropy T*S    EENTRO =         0.00000000
  eigenvalues    EBANDS =      -203.22643717
  atomic energy  EATOM  =       596.16534815
  Solvation  Ediel_sol  =         0.00000000
  ---------------------------------------------------
  free energy    TOTEN  =       -34.23692812 eV

  energy without entropy =      -34.23692812  energy(sigma->0) =      -34.23692812


--------------------------------------------------------------------------------------------------------




----------------------------------------- Iteration   28(   6)  ---------------------------------------


    POTLOK:  cpu time   29.5185: real time   31.6229
    SETDIJ:  cpu time    0.0070: real time    0.0068
     EDDAV:  cpu time   44.8642: real time   50.0132
       DOS:  cpu time    0.0000: real time    0.0002
    --------------------------------------------
      LOOP:  cpu time   74.3927: real time   81.6636

 eigenvalue-minimisations  :    48
 total energy-change (2. order) :-0.6330106E-07  (-0.1089432E-08)
 number of electron      16.0000016 magnetization 
 augmentation part        0.3966862 magnetization 

 Free energy of the ion-electron system (eV)
  ---------------------------------------------------
  alpha Z        PSCENC =         0.04144063
  Ewald energy   TEWEN  =       696.18487100
  -Hartree energ DENC   =     -1175.12633358
  -exchange      EXHF   =         0.00000000
  -V(xc)+E(xc)   XCENC  =        54.45840964
  PAW double counting   =      1218.69558024    -1221.42978826
  entropy T*S    EENTRO =         0.00000000
  eigenvalues    EBANDS =      -203.22645600
  atomic energy  EATOM  =       596.16534815
  Solvation  Ediel_sol  =         0.00000000
  ---------------------------------------------------
  free energy    TOTEN  =       -34.23692819 eV

  energy without entropy =      -34.23692819  energy(sigma->0) =      -34.23692819


--------------------------------------------------------------------------------------------------------




 average (electrostatic) potential at core
  the test charge radii are     0.5201  0.6991  0.7089
  (the norm of the test charge is              1.0000)
       1 -43.0042       2 -43.0071       3 -42.7715       4 -60.3498       5 -59.7822
       6 -74.3203
 
 
 
 E-fermi :  -6.4745     XC(G=0):  -0.0592     alpha+bet : -0.0137


 k-point     1 :       0.2500    0.2500    0.2500
  band No.  band energies     occupation 
      1     -23.7004      2.00000
      2     -18.0225      2.00000
      3     -12.1523      2.00000
      4     -11.5284      2.00000
      5     -10.9356      2.00000
      6      -9.4433      2.00000
      7      -8.4145      2.00000
      8      -7.4162      2.00000
      9      -3.1745      0.00000
     10      -0.6556      0.00000
     11      -0.3885      0.00000
     12       0.0287      0.00000

 k-point     2 :      -0.2500    0.2500    0.2500
  band No.  band energies     occupation 
      1     -23.7004      2.00000
      2     -18.0225      2.00000
      3     -12.1523      2.00000
      4     -11.5284      2.00000
      5     -10.9356      2.00000
      6      -9.4433      2.00000
      7      -8.4145      2.00000
      8      -7.4162      2.00000
      9      -3.1745      0.00000
     10      -0.6556      0.00000
     11      -0.3885      0.00000
     12       0.0257      0.00000

 k-point     3 :       0.2500   -0.2500    0.2500
  band No.  band energies     occupation 
      1     -23.7004      2.00000
      2     -18.0225      2.00000
      3     -12.1523      2.00000
      4     -11.5284      2.00000
      5     -10.9356      2.00000
      6      -9.4433      2.00000
      7      -8.4145      2.00000
      8      -7.4162      2.00000
      9      -3.1745      0.00000
     10      -0.6556      0.00000
     11      -0.3885      0.00000
     12       0.0269      0.00000

 k-point     4 :      -0.2500   -0.2500    0.2500
  band No.  band energies     occupation 
      1     -23.7004      2.00000
      2     -18.0225      2.00000
      3     -12.1523      2.00000
      4     -11.5284      2.00000
      5     -10.9356      2.00000
      6      -9.4433      2.00000
      7      -8.4145      2.00000
      8      -7.4162      2.00000
      9      -3.1745      0.00000
     10      -0.6556      0.00000
     11      -0.3885      0.00000
     12       0.0265      0.00000


--------------------------------------------------------------------------------------------------------


 soft charge-density along one line, spin component           1
         0         1         2         3         4         5         6         7         8         9
 total charge-density along one line
 
 pseudopotential strength for first ion, spin component:           1
 -2.361  -4.072  -0.002   0.000  -0.001
 -4.072  -6.938  -0.005   0.001  -0.002
 -0.002  -0.005  -0.330  -0.001   0.002
  0.000   0.001  -0.001  -0.334   0.000
 -0.001  -0.002   0.002   0.000  -0.333
 total augmentation occupancy for first ion, spin component:           1
  3.560  -0.642   0.416  -0.111   0.161
 -0.642   0.133  -0.076   0.019  -0.031
  0.416  -0.076   0.051  -0.011   0.016
 -0.111   0.019  -0.011   0.012  -0.004
  0.161  -0.031   0.016  -0.004   0.014


------------------------ aborting loop because EDIFF is reached ----------------------------------------


    CHARGE:  cpu time    6.1461: real time    6.1692
    FORLOC:  cpu time    2.6496: real time    2.6542
    FORNL :  cpu time   19.0731: real time   19.1156
    STRESS:  cpu time   60.7598: real time   65.0226
    FORCOR:  cpu time   20.7238: real time   20.7649
    FORHAR:  cpu time    6.8240: real time    6.8371
    MIXING:  cpu time    0.7389: real time    0.7413
    OFIELD:  cpu time    0.0010: real time    0.0000

  FORCE on cell =-STRESS in cart. coord.  units (eV):
  Direction    XX          YY          ZZ          XY          YZ          ZX
  --------------------------------------------------------------------------------------
  Alpha Z     0.04144     0.04144     0.04144
  Ewald     348.05056   151.35544   196.77903    43.61109   125.96152    72.84555
  Hartree   493.13977   331.23169   350.75487    23.06633    51.17891    41.71656
  E(xc)     -59.32935   -59.39350   -59.24921     0.09749     0.42872     0.14678
  Local   -1002.16310  -648.14793  -710.18639   -65.67227  -168.51574  -112.51251
  n-local   -17.61774   -25.51990   -26.74840    -1.36769    -3.63810    -1.23813
  augment     0.17668     0.64621     0.67008     0.11256     0.04446     0.09892
  Kinetic   238.08428   248.72717   247.07618     1.53284    -5.51365     0.65112
  Fock        0.00000     0.00000     0.00000     0.00000     0.00000     0.00000
  -------------------------------------------------------------------------------------
  Total       0.38254    -1.05937    -0.86240     1.38035    -0.05387     1.70829
  in kB       0.02270    -0.06286    -0.05117     0.08191    -0.00320     0.10137
  external pressure =       -0.03 kB  Pullay stress =        0.00 kB


 VOLUME and BASIS-vectors are now :
 -----------------------------------------------------------------------------
  energy-cutoff  :      400.00
  volume of cell :    27000.00
      direct lattice vectors                 reciprocal lattice vectors
    30.000000000  0.000000000  0.000000000     0.033333333  0.000000000  0.000000000
     0.000000000 30.000000000  0.000000000     0.000000000  0.033333333  0.000000000
     0.000000000  0.000000000 30.000000000     0.000000000  0.000000000  0.033333333

  length of vectors
    30.000000000 30.000000000 30.000000000     0.033333333  0.033333333  0.033333333


 FORCES acting on ions
    electron-ion (+dipol)            ewald-force                    non-local-force                 convergence-correction
 -----------------------------------------------------------------------------------------------
   0.347E+02 0.553E+02 -.134E+02   -.370E+02 -.607E+02 0.147E+02   0.201E+01 0.533E+01 -.145E+01   0.123E-05 -.531E-06 -.400E-05
   0.299E+02 -.202E+02 0.560E+02   -.318E+02 0.220E+02 -.615E+02   0.155E+01 -.200E+01 0.531E+01   0.733E-06 -.460E-05 -.708E-06
   0.343E+02 -.391E+02 -.399E+02   -.355E+02 0.426E+02 0.436E+02   0.159E+01 -.370E+01 -.391E+01   0.158E-05 -.552E-05 -.555E-05
   0.972E+02 0.414E+01 0.118E+02   -.104E+03 -.416E+01 -.123E+02   0.685E+01 -.289E+00 0.116E+00   -.179E-05 -.105E-04 -.122E-04
   -.653E+02 0.136E+03 0.153E+03   0.684E+02 -.147E+03 -.166E+03   -.400E+01 0.117E+02 0.132E+02   -.234E-04 -.156E-04 -.172E-04
   -.131E+03 -.126E+03 -.155E+03   0.140E+03 0.148E+03 0.181E+03   -.746E+01 -.217E+02 -.256E+02   -.411E-04 -.219E-04 -.229E-04
 -----------------------------------------------------------------------------------------------
   -.533E+00 0.106E+02 0.123E+02   0.000E+00 0.000E+00 0.000E+00   0.535E+00 -.106E+02 -.123E+02   -.627E-04 -.587E-04 -.626E-04
 
 
 POSITION                                       TOTAL-FORCE (eV/Angst)
 -----------------------------------------------------------------------------------
     14.19422     13.96092     15.17228        -0.329109     -0.143691     -0.164921
     14.27798     15.31050     13.92923        -0.361445     -0.110718     -0.196491
     14.27779     15.67768     15.68361         0.339740     -0.187404     -0.177070
     14.57447     14.94532     14.90903        -0.126471     -0.302562     -0.375266
     16.17535     14.65797     14.69330        -0.984794      0.526338      0.568433
     16.44160     15.40549     15.57756         1.462078      0.218037      0.345315
 -----------------------------------------------------------------------------------
    total drift:                                0.002134      0.002085      0.004445


--------------------------------------------------------------------------------------------------------



  FREE ENERGIE OF THE ION-ELECTRON SYSTEM (eV)
  ---------------------------------------------------
  free  energy   TOTEN  =       -34.23692819 eV

  energy  without entropy=      -34.23692819  energy(sigma->0) =      -34.23692819
 
 d Force = 0.3221339E-04[ 0.322E-04, 0.322E-04]  d Energy = 0.3304583E-04-0.832E-06
 d Force = 0.4199789E-02[ 0.420E-02, 0.420E-02]  d Ewald  = 0.4199789E-02-0.153E-10


--------------------------------------------------------------------------------------------------------


    POTLOK:  cpu time   19.5680: real time   21.0836


--------------------------------------------------------------------------------------------------------


 NEB: the previous image is higher in energy: T
 NEB: the next image is higher in energy    : F
 NEB: only prev energy greater

 NEB: Tangent
 ----------------------------------------------
     -0.15147     -0.06547     -0.07428
     -0.16818     -0.05138     -0.09091
      0.16752     -0.08557     -0.08230
     -0.05657     -0.14264     -0.17594
     -0.46356      0.24559      0.26032
      0.67226      0.09946      0.16312

 NEB: forces: par spring, perp REAL, dneb     0.008206    0.032475    0.000000
 NEB: distance to prev, next image, angle between     0.284018    0.285659  163.446395
 NEB: projections on to tangent (spring, REAL)     0.008206    2.154367

 stress matrix after NEB project (eV)
      0.38254      1.38035      1.70829
      1.38035     -1.05937     -0.05387
      1.70829     -0.05387     -0.86240
  FORCES: max atom, RMS     0.020401    0.013675
  FORCE total and by dimension    0.033496    0.019789
  Stress total and by dimension    3.415463    1.708288
 OPT: skip step - force has converged


--------------------------------------------------------------------------------------------------------


  
 reached required accuracy - stopping structural energy minimisation
     LOOP+:  cpu time  700.5105: real time  741.1646
    4ORBIT:  cpu time    0.0000: real time    0.0000

 total amount of memory used by VASP on root node  3203888. kBytes
========================================================================

   base      :      30000. kBytes
   nonlr-proj:        692. kBytes
   fftplans  :     924480. kBytes
   grid      :    1872000. kBytes
   one-center:         18. kBytes
   wavefun   :     376698. kBytes
 
  
  
 General timing and accounting informations for this job:
 ========================================================
  
                  Total CPU time used (sec):    22498.637
                            User time (sec):    22204.592
                          System time (sec):      294.044
                         Elapsed time (sec):    22605.982
  
                   Maximum memory used (kb):     4760160.
                   Average memory used (kb):           0.
  
                          Minor page faults:      2964303
                          Major page faults:            7
                 Voluntary context switches:         3919
