unknown system                          
           1
    30.000000    0.000000    0.000000
     0.000000   30.000000    0.000000
     0.000000    0.000000   30.000000
   H    C    N 
   3   2   1
Direct configuration=     1
   0.47287734  0.46534238  0.50571292
   0.47555419  0.51019148  0.46420403
   0.47616989  0.52254037  0.52265038
   0.48577814  0.49803533  0.49676953
   0.53885978  0.48899127  0.49003585
   0.54875958  0.51356065  0.51941349
Direct configuration=     2
   0.47289056  0.46534657  0.50569761
   0.47558026  0.51020145  0.46421753
   0.47616518  0.52252452  0.52264478
   0.48577637  0.49803396  0.49676758
   0.53878025  0.48900748  0.49005875
   0.54881864  0.51353128  0.51941080
Direct configuration=     3
   0.47291015  0.46534833  0.50568032
   0.47561773  0.51021884  0.46423034
   0.47613995  0.52250891  0.52264237
   0.48576325  0.49803676  0.49677174
   0.53869803  0.48901999  0.49008198
   0.54889872  0.51349062  0.51940496
Direct configuration=     4
   0.47293403  0.46534381  0.50566746
   0.47566246  0.51024375  0.46423690
   0.47608269  0.52250276  0.52264984
   0.48573934  0.49804764  0.49678592
   0.53864866  0.48901889  0.49009520
   0.54897842  0.51344312  0.51939232
Direct configuration=     5
   0.47293526  0.46534249  0.50566896
   0.47566436  0.51024539  0.46423579
   0.47607481  0.52250565  0.52265271
   0.48573861  0.49804996  0.49678847
   0.53865802  0.48901447  0.49009154
   0.54897460  0.51344189  0.51939027
Direct configuration=     6
   0.47294016  0.46534053  0.50567282
   0.47567089  0.51024930  0.46423464
   0.47605596  0.52251238  0.52265928
   0.48573804  0.49805657  0.49679607
   0.53868157  0.48900345  0.49008239
   0.54895916  0.51343742  0.51938276
Direct configuration=     7
   0.47295130  0.46533925  0.50567960
   0.47568486  0.51025578  0.46423526
   0.47602477  0.52252327  0.52266993
   0.48573879  0.49806920  0.49681084
   0.53872272  0.48898276  0.49006487
   0.54892349  0.51342912  0.51936779
Direct configuration=     8
   0.47296879  0.46533932  0.50568904
   0.47570630  0.51026453  0.46423828
   0.47598266  0.52253781  0.52268416
   0.48574089  0.49808719  0.49683214
   0.53877861  0.48894992  0.49003580
   0.54886885  0.51342025  0.51934929
Direct configuration=     9
   0.47299256  0.46534154  0.50570073
   0.47573497  0.51027512  0.46424441
   0.47593189  0.52255523  0.52270129
   0.48574438  0.49810951  0.49685900
   0.53884567  0.48890311  0.48999258
   0.54879683  0.51341411  0.51933121
Direct configuration=    10
   0.47302225  0.46534662  0.50571412
   0.47577035  0.51028706  0.46425421
   0.47587548  0.52257452  0.52272045
   0.48574940  0.49813497  0.49689023
   0.53892064  0.48884329  0.48993602
   0.54870837  0.51341171  0.51931476
Direct configuration=    11
   0.47306135  0.46535618  0.50573023
   0.47581646  0.51030128  0.46426983
   0.47581085  0.52259667  0.52274286
   0.48575707  0.49816518  0.49692820
   0.53901027  0.48876755  0.48986423
   0.54859074  0.51341079  0.51929518
Direct configuration=    12
   0.47311003  0.46537127  0.50574856
   0.47587355  0.51031753  0.46429241
   0.47574357  0.52262005  0.52276732
   0.48576872  0.49819901  0.49697177
   0.53911462  0.48868350  0.48978701
   0.54843654  0.51340565  0.51926430
Direct configuration=    13
   0.47316645  0.46539138  0.50576830
   0.47593989  0.51033542  0.46432183
   0.47568528  0.52264152  0.52279175
   0.48578657  0.49823432  0.49701821
   0.53922699  0.48859756  0.48971172
   0.54824217  0.51339607  0.51922057
Direct configuration=    14
   0.47322396  0.46541191  0.50578781
   0.47600880  0.51035448  0.46435341
   0.47565405  0.52265687  0.52281335
   0.48581235  0.49826703  0.49706302
   0.53932710  0.48850076  0.48962571
   0.54802140  0.51340446  0.51919016
Direct configuration=    15
   0.47322298  0.46541122  0.50578753
   0.47600788  0.51035447  0.46435275
   0.47565764  0.52265613  0.52281298
   0.48581290  0.49826616  0.49706207
   0.53932497  0.48850202  0.48962719
   0.54802128  0.51340551  0.51919093
Direct configuration=    16
   0.47322097  0.46540979  0.50578689
   0.47600598  0.51035445  0.46435140
   0.47566503  0.52265462  0.52281226
   0.48581402  0.49826431  0.49706005
   0.53932056  0.48850459  0.48963033
   0.54802109  0.51340775  0.51919251
Direct configuration=    17
   0.47321787  0.46540758  0.50578581
   0.47600307  0.51035443  0.46434928
   0.47567635  0.52265232  0.52281125
   0.48581571  0.49826135  0.49705682
   0.53931373  0.48850846  0.48963528
   0.54802092  0.51341140  0.51919500
Direct configuration=    18
   0.47321364  0.46540454  0.50578418
   0.47599908  0.51035444  0.46434634
   0.47569168  0.52264919  0.52281000
   0.48581790  0.49825713  0.49705222
   0.53930442  0.48851352  0.48964219
   0.54802091  0.51341672  0.51919851
Direct configuration=    19
   0.47320836  0.46540082  0.50578197
   0.47599411  0.51035442  0.46434272
   0.47571073  0.52264528  0.52280852
   0.48582036  0.49825165  0.49704626
   0.53929295  0.48851981  0.48965106
   0.54802111  0.51342357  0.51920288
Direct configuration=    20
   0.47320213  0.46539658  0.50577916
   0.47598823  0.51035437  0.46433857
   0.47573314  0.52264062  0.52280681
   0.48582278  0.49824488  0.49703901
   0.53927970  0.48852735  0.48966193
   0.54802162  0.51343177  0.51920792
Direct configuration=    21
   0.47319424  0.46539152  0.50577533
   0.47598081  0.51035421  0.46433356
   0.47576133  0.52263460  0.52280464
   0.48582500  0.49823598  0.49702956
   0.53926350  0.48853711  0.48967627
   0.54802269  0.51344219  0.51921402
Direct configuration=    22
   0.47318447  0.46538569  0.50577020
   0.47597167  0.51035384  0.46432779
   0.47579578  0.52262690  0.52280183
   0.48582640  0.49822465  0.49701763
   0.53924447  0.48854936  0.48969469
   0.54802477  0.51345520  0.51922122
Direct configuration=    23
   0.47317255  0.46537923  0.50576341
   0.47596063  0.51035314  0.46432147
   0.47583640  0.52261714  0.52279818
   0.48582611  0.49821064  0.49700289
   0.53922297  0.48856410  0.48971751
   0.54802886  0.51347142  0.51922985
Direct configuration=    24
   0.47315815  0.46537215  0.50575453
   0.47594764  0.51035191  0.46431476
   0.47588197  0.52260481  0.52279333
   0.48582298  0.49819429  0.49698563
   0.53919991  0.48858085  0.48974466
   0.54803684  0.51349172  0.51924036
Direct configuration=    25
   0.47314094  0.46536413  0.50574312
   0.47593285  0.51034998  0.46430770
   0.47592805  0.52258958  0.52278697
   0.48581616  0.49817706  0.49696735
   0.53917764  0.48859881  0.48977580
   0.54805181  0.51351623  0.51925230
Direct configuration=    26
   0.47314082  0.46536404  0.50574299
   0.47593283  0.51034995  0.46430767
   0.47592749  0.52258949  0.52278694
   0.48581602  0.49817719  0.49696743
   0.53917791  0.48859886  0.48977605
   0.54805236  0.51351628  0.51925215
Direct configuration=    27
   0.47314059  0.46536387  0.50574272
   0.47593280  0.51034989  0.46430761
   0.47592637  0.52258928  0.52278688
   0.48581573  0.49817743  0.49696759
   0.53917848  0.48859892  0.48977658
   0.54805347  0.51351641  0.51925186
Direct configuration=    28
   0.47314059  0.46536387  0.50574272
   0.47593280  0.51034989  0.46430761
   0.47592637  0.52258928  0.52278688
   0.48581573  0.49817743  0.49696759
   0.53917848  0.48859892  0.48977658
   0.54805347  0.51351641  0.51925186
