   6   6   0   0
  0.4500000E+04  0.3000000E-08  0.3000000E-08  0.3000000E-08  0.0000000E+00
  1.000000000000000E-004
  CAR 
 unknown system                          
      2.02280325    -25.88904329  301     -6.16430830      1.00000000
    -25.889  0.0000E+00  0.0000E+00
    -25.796  0.0000E+00  0.0000E+00
    -25.703  0.0000E+00  0.0000E+00
    -25.610  0.0000E+00  0.0000E+00
    -25.517  0.0000E+00  0.0000E+00
    -25.424  0.0000E+00  0.0000E+00
    -25.331  0.0000E+00  0.0000E+00
    -25.238  0.0000E+00  0.0000E+00
    -25.145  0.0000E+00  0.0000E+00
    -25.052  0.7955E-17  0.7401E-18
    -24.959  0.1400E-14  0.1310E-15
    -24.866  0.1780E-12  0.1669E-13
    -24.773  0.1477E-10  0.1390E-11
    -24.680  0.8005E-09  0.7587E-10
    -24.586  0.2839E-07  0.2717E-08
    -24.493  0.6593E-06  0.6405E-07
    -24.400  0.1003E-04  0.9976E-06
    -24.307  0.1002E-03  0.1032E-04
    -24.214  0.6572E-03  0.7147E-04
    -24.121  0.2834E-02  0.3351E-03
    -24.028  0.8040E-02  0.1083E-02
    -23.935  0.1502E-01  0.2480E-02
    -23.842  0.1847E-01  0.4199E-02
    -23.749  0.1497E-01  0.5592E-02
    -23.656  0.7989E-02  0.6335E-02
    -23.563  0.2807E-02  0.6596E-02
    -23.470  0.6490E-03  0.6657E-02
    -23.377  0.9864E-04  0.6666E-02
    -23.284  0.9847E-05  0.6667E-02
    -23.191  0.6449E-06  0.6667E-02
    -23.098  0.2768E-07  0.6667E-02
    -23.005  0.7781E-09  0.6667E-02
    -22.912  0.1431E-10  0.6667E-02
    -22.819  0.1719E-12  0.6667E-02
    -22.726  0.1344E-14  0.6667E-02
    -22.633  0.7955E-17  0.6667E-02
    -22.540  0.0000E+00  0.6667E-02
    -22.447  0.0000E+00  0.6667E-02
    -22.354  0.0000E+00  0.6667E-02
    -22.261  0.0000E+00  0.6667E-02
    -22.167  0.0000E+00  0.6667E-02
    -22.074  0.0000E+00  0.6667E-02
    -21.981  0.0000E+00  0.6667E-02
    -21.888  0.0000E+00  0.6667E-02
    -21.795  0.0000E+00  0.6667E-02
    -21.702  0.0000E+00  0.6667E-02
    -21.609  0.0000E+00  0.6667E-02
    -21.516  0.0000E+00  0.6667E-02
    -21.423  0.0000E+00  0.6667E-02
    -21.330  0.0000E+00  0.6667E-02
    -21.237  0.0000E+00  0.6667E-02
    -21.144  0.0000E+00  0.6667E-02
    -21.051  0.0000E+00  0.6667E-02
    -20.958  0.0000E+00  0.6667E-02
    -20.865  0.0000E+00  0.6667E-02
    -20.772  0.0000E+00  0.6667E-02
    -20.679  0.0000E+00  0.6667E-02
    -20.586  0.0000E+00  0.6667E-02
    -20.493  0.0000E+00  0.6667E-02
    -20.400  0.2426E-15  0.6667E-02
    -20.307  0.3555E-13  0.6667E-02
    -20.214  0.3412E-11  0.6667E-02
    -20.121  0.2140E-09  0.6667E-02
    -20.028  0.8775E-08  0.6667E-02
    -19.935  0.2355E-06  0.6667E-02
    -19.841  0.4142E-05  0.6667E-02
    -19.748  0.4778E-04  0.6672E-02
    -19.655  0.3619E-03  0.6705E-02
    -19.562  0.1801E-02  0.6873E-02
    -19.469  0.5897E-02  0.7421E-02
    -19.376  0.1271E-01  0.8604E-02
    -19.283  0.1804E-01  0.1028E-01
    -19.190  0.1686E-01  0.1185E-01
    -19.097  0.1038E-01  0.1282E-01
    -19.004  0.4210E-02  0.1321E-01
    -18.911  0.1123E-02  0.1331E-01
    -18.818  0.1971E-03  0.1333E-01
    -18.725  0.2273E-04  0.1333E-01
    -18.632  0.1720E-05  0.1333E-01
    -18.539  0.8532E-07  0.1333E-01
    -18.446  0.2773E-08  0.1333E-01
    -18.353  0.5896E-10  0.1333E-01
    -18.260  0.8196E-12  0.1333E-01
    -18.167  0.7438E-14  0.1333E-01
    -18.074  0.4773E-16  0.1333E-01
    -17.981  0.0000E+00  0.1333E-01
    -17.888  0.0000E+00  0.1333E-01
    -17.795  0.0000E+00  0.1333E-01
    -17.702  0.0000E+00  0.1333E-01
    -17.609  0.0000E+00  0.1333E-01
    -17.515  0.0000E+00  0.1333E-01
    -17.422  0.0000E+00  0.1333E-01
    -17.329  0.0000E+00  0.1333E-01
    -17.236  0.0000E+00  0.1333E-01
    -17.143  0.0000E+00  0.1333E-01
    -17.050  0.0000E+00  0.1333E-01
    -16.957  0.0000E+00  0.1333E-01
    -16.864  0.0000E+00  0.1333E-01
    -16.771  0.0000E+00  0.1333E-01
    -16.678  0.0000E+00  0.1333E-01
    -16.585  0.0000E+00  0.1333E-01
    -16.492  0.0000E+00  0.1333E-01
    -16.399  0.0000E+00  0.1333E-01
    -16.306  0.0000E+00  0.1333E-01
    -16.213  0.0000E+00  0.1333E-01
    -16.120  0.0000E+00  0.1333E-01
    -16.027  0.0000E+00  0.1333E-01
    -15.934  0.0000E+00  0.1333E-01
    -15.841  0.0000E+00  0.1333E-01
    -15.748  0.0000E+00  0.1333E-01
    -15.655  0.0000E+00  0.1333E-01
    -15.562  0.0000E+00  0.1333E-01
    -15.469  0.0000E+00  0.1333E-01
    -15.376  0.0000E+00  0.1333E-01
    -15.283  0.0000E+00  0.1333E-01
    -15.190  0.0000E+00  0.1333E-01
    -15.096  0.0000E+00  0.1333E-01
    -15.003  0.8751E-16  0.1333E-01
    -14.910  0.1415E-13  0.1333E-01
    -14.817  0.1473E-11  0.1333E-01
    -14.724  0.1002E-09  0.1333E-01
    -14.631  0.4457E-08  0.1333E-01
    -14.538  0.1297E-06  0.1333E-01
    -14.445  0.2473E-05  0.1333E-01
    -14.352  0.3092E-04  0.1334E-01
    -14.259  0.2538E-03  0.1336E-01
    -14.166  0.1369E-02  0.1349E-01
    -14.073  0.4855E-02  0.1394E-01
    -13.980  0.1133E-01  0.1499E-01
    -13.887  0.1742E-01  0.1661E-01
    -13.794  0.1764E-01  0.1826E-01
    -13.701  0.1177E-01  0.1935E-01
    -13.608  0.5168E-02  0.1983E-01
    -13.515  0.1494E-02  0.1997E-01
    -13.422  0.2841E-03  0.2000E-01
    -13.329  0.3549E-04  0.2000E-01
    -13.236  0.2911E-05  0.2000E-01
    -13.143  0.1566E-06  0.2000E-01
    -13.050  0.5518E-08  0.2000E-01
    -12.957  0.1273E-09  0.2000E-01
    -12.864  0.1922E-11  0.2000E-01
    -12.770  0.4227E-12  0.2000E-01
    -12.677  0.3311E-10  0.2000E-01
    -12.584  0.1774E-08  0.2000E-01
    -12.491  0.6220E-07  0.2000E-01
    -12.398  0.1428E-05  0.2000E-01
    -12.305  0.2148E-04  0.2000E-01
    -12.212  0.2121E-03  0.2002E-01
    -12.119  0.1375E-02  0.2015E-01
    -12.026  0.5863E-02  0.2070E-01
    -11.933  0.1644E-01  0.2223E-01
    -11.840  0.3037E-01  0.2505E-01
    -11.747  0.3694E-01  0.2849E-01
    -11.654  0.2959E-01  0.3124E-01
    -11.561  0.1562E-01  0.3269E-01
    -11.468  0.5426E-02  0.3320E-01
    -11.375  0.1240E-02  0.3331E-01
    -11.282  0.1864E-03  0.3333E-01
    -11.189  0.1839E-04  0.3333E-01
    -11.096  0.1191E-05  0.3333E-01
    -11.003  0.5054E-07  0.3333E-01
    -10.910  0.1404E-08  0.3333E-01
    -10.817  0.2553E-10  0.3333E-01
    -10.724  0.3032E-12  0.3333E-01
    -10.631  0.2355E-14  0.3333E-01
    -10.538  0.7955E-17  0.3333E-01
    -10.444  0.0000E+00  0.3333E-01
    -10.351  0.0000E+00  0.3333E-01
    -10.258  0.0000E+00  0.3333E-01
    -10.165  0.0000E+00  0.3333E-01
    -10.072  0.0000E+00  0.3333E-01
     -9.979  0.0000E+00  0.3333E-01
     -9.886  0.0000E+00  0.3333E-01
     -9.793  0.0000E+00  0.3333E-01
     -9.700  0.0000E+00  0.3333E-01
     -9.607  0.0000E+00  0.3333E-01
     -9.514  0.0000E+00  0.3333E-01
     -9.421  0.1869E-15  0.3333E-01
     -9.328  0.2991E-13  0.3333E-01
     -9.235  0.3099E-11  0.3333E-01
     -9.142  0.2098E-09  0.3333E-01
     -9.049  0.9284E-08  0.3333E-01
     -8.956  0.2689E-06  0.3333E-01
     -8.863  0.5103E-05  0.3333E-01
     -8.770  0.6350E-04  0.3334E-01
     -8.677  0.5186E-03  0.3339E-01
     -8.584  0.2784E-02  0.3365E-01
     -8.491  0.9827E-02  0.3456E-01
     -8.398  0.2283E-01  0.3669E-01
     -8.305  0.3493E-01  0.3994E-01
     -8.212  0.3520E-01  0.4321E-01
     -8.119  0.2337E-01  0.4538E-01
     -8.025  0.1021E-01  0.4633E-01
     -7.932  0.2939E-02  0.4661E-01
     -7.839  0.5562E-03  0.4666E-01
     -7.746  0.6986E-04  0.4667E-01
     -7.653  0.1627E-04  0.4667E-01
     -7.560  0.1054E-03  0.4668E-01
     -7.467  0.6828E-03  0.4674E-01
     -7.374  0.2916E-02  0.4701E-01
     -7.281  0.8194E-02  0.4777E-01
     -7.188  0.1516E-01  0.4918E-01
     -7.095  0.1847E-01  0.5090E-01
     -7.002  0.1482E-01  0.5228E-01
     -6.909  0.7837E-02  0.5301E-01
     -6.816  0.2727E-02  0.5327E-01
     -6.723  0.6245E-03  0.5332E-01
     -6.630  0.9401E-04  0.5333E-01
     -6.537  0.9294E-05  0.5333E-01
     -6.444  0.6029E-06  0.5333E-01
     -6.351  0.2563E-07  0.5333E-01
     -6.258  0.7134E-09  0.5333E-01
     -6.165  0.1299E-10  0.5333E-01
     -6.072  0.1546E-12  0.5333E-01
     -5.979  0.1201E-14  0.5333E-01
     -5.886  0.7955E-17  0.5333E-01
     -5.793  0.0000E+00  0.5333E-01
     -5.699  0.0000E+00  0.5333E-01
     -5.606  0.0000E+00  0.5333E-01
     -5.513  0.0000E+00  0.5333E-01
     -5.420  0.0000E+00  0.5333E-01
     -5.327  0.0000E+00  0.5333E-01
     -5.234  0.0000E+00  0.5333E-01
     -5.141  0.0000E+00  0.5333E-01
     -5.048  0.0000E+00  0.5333E-01
     -4.955  0.0000E+00  0.5333E-01
     -4.862  0.0000E+00  0.5333E-01
     -4.769  0.0000E+00  0.5333E-01
     -4.676  0.0000E+00  0.5333E-01
     -4.583  0.0000E+00  0.5333E-01
     -4.490  0.0000E+00  0.5333E-01
     -4.397  0.0000E+00  0.5333E-01
     -4.304  0.0000E+00  0.5333E-01
     -4.211  0.0000E+00  0.5333E-01
     -4.118  0.0000E+00  0.5333E-01
     -4.025  0.0000E+00  0.5333E-01
     -3.932  0.0000E+00  0.5333E-01
     -3.839  0.0000E+00  0.5333E-01
     -3.746  0.0000E+00  0.5333E-01
     -3.653  0.0000E+00  0.5333E-01
     -3.560  0.0000E+00  0.5333E-01
     -3.467  0.0000E+00  0.5333E-01
     -3.373  0.0000E+00  0.5333E-01
     -3.280  0.0000E+00  0.5333E-01
     -3.187  0.0000E+00  0.5333E-01
     -3.094  0.0000E+00  0.5333E-01
     -3.001  0.0000E+00  0.5333E-01
     -2.908  0.0000E+00  0.5333E-01
     -2.815  0.0000E+00  0.5333E-01
     -2.722  0.0000E+00  0.5333E-01
     -2.629  0.0000E+00  0.5333E-01
     -2.536  0.0000E+00  0.5333E-01
     -2.443  0.0000E+00  0.5333E-01
     -2.350  0.0000E+00  0.5333E-01
     -2.257  0.0000E+00  0.5333E-01
     -2.164  0.0000E+00  0.5333E-01
     -2.071  0.0000E+00  0.5333E-01
     -1.978  0.0000E+00  0.5333E-01
     -1.885  0.7955E-16  0.5333E-01
     -1.792  0.1257E-13  0.5333E-01
     -1.699  0.1330E-11  0.5333E-01
     -1.606  0.9219E-10  0.5333E-01
     -1.513  0.4195E-08  0.5333E-01
     -1.420  0.1257E-06  0.5333E-01
     -1.327  0.2492E-05  0.5333E-01
     -1.234  0.3288E-04  0.5334E-01
     -1.141  0.2906E-03  0.5336E-01
     -1.047  0.1737E-02  0.5353E-01
     -0.954  0.7082E-02  0.5418E-01
     -0.861  0.1987E-01  0.5603E-01
     -0.768  0.3855E-01  0.5962E-01
     -0.675  0.5174E-01  0.6443E-01
     -0.582  0.4785E-01  0.6889E-01
     -0.489  0.3028E-01  0.7170E-01
     -0.396  0.1308E-01  0.7292E-01
     -0.303  0.4392E-02  0.7333E-01
     -0.210  0.3531E-02  0.7366E-01
     -0.117  0.8087E-02  0.7441E-01
     -0.024  0.1498E-01  0.7580E-01
      0.069  0.1847E-01  0.7752E-01
      0.162  0.1501E-01  0.7892E-01
      0.255  0.8034E-02  0.7967E-01
      0.348  0.2831E-02  0.7993E-01
      0.441  0.6563E-03  0.7999E-01
      0.534  0.1000E-03  0.8000E-01
      0.627  0.1001E-04  0.8000E-01
      0.720  0.6576E-06  0.8000E-01
      0.813  0.2831E-07  0.8000E-01
      0.906  0.7980E-09  0.8000E-01
      0.999  0.1471E-10  0.8000E-01
      1.092  0.1773E-12  0.8000E-01
      1.185  0.1396E-14  0.8000E-01
      1.278  0.7955E-17  0.8000E-01
      1.372  0.0000E+00  0.8000E-01
      1.465  0.0000E+00  0.8000E-01
      1.558  0.0000E+00  0.8000E-01
      1.651  0.0000E+00  0.8000E-01
      1.744  0.0000E+00  0.8000E-01
      1.837  0.0000E+00  0.8000E-01
      1.930  0.0000E+00  0.8000E-01
      2.023  0.0000E+00  0.8000E-01
