    6    6  300    1
  0.4500000E+04  0.3000000E-08  0.3000000E-08  0.3000000E-08  0.0000000E+00
  1.000000000000000E-004
  CAR 
 unknown system                          
     16      4     12
 
  0.2500000E+00  0.2500000E+00  0.2500000E+00  0.2500000E+00
    1      -23.889043   1.000000
    2      -19.298251   1.000000
    3      -13.884165   1.000000
    4      -11.796980   1.000000
    5      -11.795891   1.000000
    6       -8.303085   1.000000
    7       -8.302635   1.000000
    8       -7.144066   1.000000
    9       -0.763184   0.000000
   10       -0.663654   0.000000
   11       -0.662976   0.000000
   12        0.022803   0.000000
 
 -0.2500000E+00  0.2500000E+00  0.2500000E+00  0.2500000E+00
    1      -23.889043   1.000000
    2      -19.298254   1.000000
    3      -13.884163   1.000000
    4      -11.796976   1.000000
    5      -11.795894   1.000000
    6       -8.303075   1.000000
    7       -8.302629   1.000000
    8       -7.144070   1.000000
    9       -0.763183   0.000000
   10       -0.663663   0.000000
   11       -0.662980   0.000000
   12        0.022642   0.000000
 
  0.2500000E+00 -0.2500000E+00  0.2500000E+00  0.2500000E+00
    1      -23.889043   1.000000
    2      -19.298251   1.000000
    3      -13.884168   1.000000
    4      -11.796981   1.000000
    5      -11.795895   1.000000
    6       -8.303087   1.000000
    7       -8.302632   1.000000
    8       -7.144066   1.000000
    9       -0.763183   0.000000
   10       -0.663650   0.000000
   11       -0.662976   0.000000
   12        0.022799   0.000000
 
 -0.2500000E+00 -0.2500000E+00  0.2500000E+00  0.2500000E+00
    1      -23.889043   1.000000
    2      -19.298251   1.000000
    3      -13.884165   1.000000
    4      -11.796980   1.000000
    5      -11.795896   1.000000
    6       -8.303075   1.000000
    7       -8.302628   1.000000
    8       -7.144069   1.000000
    9       -0.763183   0.000000
   10       -0.663654   0.000000
   11       -0.662983   0.000000
   12        0.022652   0.000000
