       N       E                     dE             d eps       ncg     rms          rms(c)
DAV:   1     0.113049357982E+03    0.11305E+03   -0.21395E+03   160   0.366E+02
DAV:   2    -0.191955517352E+01   -0.11497E+03   -0.11265E+03   192   0.109E+02
DAV:   3    -0.349634891814E+02   -0.33044E+02   -0.32984E+02   152   0.870E+01
DAV:   4    -0.389575816746E+02   -0.39941E+01   -0.39644E+01   136   0.262E+01
DAV:   5    -0.390595324889E+02   -0.10195E+00   -0.10071E+00   120   0.459E+00    0.103E+01
DAV:   6    -0.363990006221E+02    0.26605E+01   -0.45413E+00   124   0.147E+01    0.560E+00
DAV:   7    -0.357083723375E+02    0.69063E+00   -0.17576E+00   116   0.914E+00    0.223E+00
DAV:   8    -0.356376299618E+02    0.70742E-01   -0.14455E-01   128   0.290E+00    0.879E-01
DAV:   9    -0.356189555647E+02    0.18674E-01   -0.21249E-02   128   0.123E+00    0.216E-01
DAV:  10    -0.356186475784E+02    0.30799E-03   -0.42057E-03   128   0.515E-01    0.131E-01
DAV:  11    -0.356203717902E+02   -0.17242E-02   -0.17563E-03   124   0.343E-01    0.807E-02
DAV:  12    -0.356260603353E+02   -0.56885E-02   -0.30607E-03   112   0.420E-01    0.457E-02
DAV:  13    -0.356319962576E+02   -0.59359E-02   -0.15670E-03   128   0.244E-01    0.284E-02
DAV:  14    -0.356360662938E+02   -0.40700E-02   -0.51111E-04   128   0.120E-01    0.184E-02
DAV:  15    -0.356393714997E+02   -0.33052E-02   -0.35962E-04   128   0.871E-02    0.112E-02
DAV:  16    -0.356406233998E+02   -0.12519E-02   -0.10942E-04   128   0.513E-02    0.654E-03
DAV:  17    -0.356414471765E+02   -0.82378E-03   -0.27782E-05    72   0.371E-02    0.415E-03
DAV:  18    -0.356417982898E+02   -0.35111E-03   -0.25105E-05    80   0.236E-02    0.272E-03
DAV:  19    -0.356420176116E+02   -0.21932E-03   -0.96280E-06    76   0.208E-02    0.268E-03
DAV:  20    -0.356420595752E+02   -0.41964E-04   -0.26303E-06    88   0.121E-02
   1 F= -.35642060E+02 E0= -.35642060E+02  d E =-.356421E+02
       N       E                     dE             d eps       ncg     rms          rms(c)
DAV:   1    -0.356421392269E+02   -0.12162E-03   -0.75998E-02   104   0.260E+00    0.535E-02
DAV:   2    -0.356421787363E+02   -0.39509E-04   -0.78400E-04   128   0.216E-01    0.379E-02
DAV:   3    -0.356421940834E+02   -0.15347E-04   -0.26030E-05    80   0.501E-02    0.116E-02
DAV:   4    -0.356422065749E+02   -0.12491E-04   -0.98219E-06    88   0.261E-02    0.329E-03
DAV:   5    -0.356422122437E+02   -0.56688E-05   -0.20231E-06    80   0.118E-02    0.122E-03
DAV:   6    -0.356422165863E+02   -0.43426E-05   -0.50991E-07    64   0.521E-03
   2 F= -.35642217E+02 E0= -.35642217E+02  d E =-.157011E-03
       N       E                     dE             d eps       ncg     rms          rms(c)
DAV:   1    -0.356417970959E+02    0.41515E-03   -0.29264E-01    96   0.510E+00    0.104E-01
DAV:   2    -0.356419193878E+02   -0.12229E-03   -0.29744E-03   128   0.420E-01    0.734E-02
DAV:   3    -0.356419406161E+02   -0.21228E-04   -0.93768E-05    80   0.924E-02    0.187E-02
DAV:   4    -0.356419557524E+02   -0.15136E-04   -0.31614E-05    84   0.443E-02    0.591E-03
DAV:   5    -0.356419602399E+02   -0.44875E-05   -0.65802E-06    68   0.203E-02    0.167E-03
DAV:   6    -0.356419624683E+02   -0.22284E-05   -0.18093E-06    64   0.931E-03
   3 F= -.35641962E+02 E0= -.35641962E+02  d E =0.254118E-03
       N       E                     dE             d eps       ncg     rms          rms(c)
DAV:   1    -0.356404455493E+02    0.15147E-02   -0.64628E-01    96   0.760E+00    0.155E-01
DAV:   2    -0.356407288421E+02   -0.28329E-03   -0.65536E-03   128   0.633E-01    0.109E-01
DAV:   3    -0.356407629846E+02   -0.34142E-04   -0.24911E-04   112   0.139E-01    0.272E-02
DAV:   4    -0.356407931399E+02   -0.30155E-04   -0.34434E-05    96   0.466E-02    0.873E-03
DAV:   5    -0.356408012719E+02   -0.81320E-05   -0.74501E-06    64   0.221E-02    0.216E-03
DAV:   6    -0.356408047486E+02   -0.34767E-05   -0.15979E-06    48   0.958E-03
   4 F= -.35640805E+02 E0= -.35640805E+02  d E =0.115772E-02
       N       E                     dE             d eps       ncg     rms          rms(c)
DAV:   1    -0.356373953563E+02    0.34059E-02   -0.11312E+00    96   0.101E+01    0.206E-01
DAV:   2    -0.356379531988E+02   -0.55784E-03   -0.11476E-02   120   0.830E-01    0.145E-01
DAV:   3    -0.356379696808E+02   -0.16482E-04   -0.42283E-04   116   0.177E-01    0.355E-02
DAV:   4    -0.356380261535E+02   -0.56473E-04   -0.60657E-05    96   0.611E-02    0.111E-02
DAV:   5    -0.356380403412E+02   -0.14188E-04   -0.12261E-05    64   0.275E-02    0.297E-03
DAV:   6    -0.356380467050E+02   -0.63638E-05   -0.27638E-06    48   0.120E-02
   5 F= -.35638047E+02 E0= -.35638047E+02  d E =0.275804E-02
       N       E                     dE             d eps       ncg     rms          rms(c)
DAV:   1    -0.356315461369E+02    0.64942E-02   -0.17199E+00    96   0.124E+01    0.257E-01
DAV:   2    -0.356324604039E+02   -0.91427E-03   -0.17554E-02   112   0.103E+00    0.179E-01
DAV:   3    -0.356324313111E+02    0.29093E-04   -0.63710E-04   112   0.218E-01    0.464E-02
DAV:   4    -0.356325216472E+02   -0.90336E-04   -0.11085E-04   120   0.765E-02    0.150E-02
DAV:   5    -0.356325426720E+02   -0.21025E-04   -0.62633E-06    64   0.242E-02    0.377E-03
DAV:   6    -0.356325515089E+02   -0.88369E-05   -0.19909E-06    48   0.111E-02
   6 F= -.35632552E+02 E0= -.35632552E+02  d E =0.549520E-02
       N       E                     dE             d eps       ncg     rms          rms(c)
DAV:   1    -0.356217609671E+02    0.10782E-01   -0.24134E+00    96   0.146E+01    0.308E-01
DAV:   2    -0.356230670990E+02   -0.13061E-02   -0.24587E-02   116   0.124E+00    0.213E-01
DAV:   3    -0.356230015525E+02    0.65546E-04   -0.86546E-04   112   0.255E-01    0.586E-02
DAV:   4    -0.356231144847E+02   -0.11293E-03   -0.15483E-04   124   0.908E-02    0.177E-02
DAV:   5    -0.356231446938E+02   -0.30209E-04   -0.83773E-06    64   0.273E-02    0.540E-03
DAV:   6    -0.356231594619E+02   -0.14768E-04   -0.28977E-06    76   0.134E-02
   7 F= -.35623159E+02 E0= -.35623159E+02  d E =0.939205E-02
       N       E                     dE             d eps       ncg     rms          rms(c)
DAV:   1    -0.356042094892E+02    0.18935E-01   -0.39656E+00    96   0.188E+01    0.403E-01
DAV:   2    -0.356062976289E+02   -0.20881E-02   -0.40808E-02   116   0.157E+00    0.276E-01
DAV:   3    -0.356061290732E+02    0.16856E-03   -0.13706E-03   112   0.318E-01    0.824E-02
DAV:   4    -0.356063296415E+02   -0.20057E-03   -0.26402E-04   124   0.122E-01    0.226E-02
DAV:   5    -0.356063675453E+02   -0.37904E-04   -0.15544E-05    64   0.363E-02    0.945E-03
DAV:   6    -0.356063952456E+02   -0.27700E-04   -0.64885E-06    80   0.211E-02
   8 F= -.35606395E+02 E0= -.35606395E+02  d E =0.167642E-01
       N       E                     dE             d eps       ncg     rms          rms(c)
DAV:   1    -0.355735631208E+02    0.32804E-01   -0.62672E+00    96   0.239E+01    0.524E-01
DAV:   2    -0.355764619880E+02   -0.28989E-02   -0.64776E-02   116   0.200E+00    0.351E-01
DAV:   3    -0.355761581921E+02    0.30380E-03   -0.21857E-03   124   0.401E-01    0.118E-01
DAV:   4    -0.355765155884E+02   -0.35740E-03   -0.43685E-04   128   0.157E-01    0.312E-02
DAV:   5    -0.355765769392E+02   -0.61351E-04   -0.28865E-05    72   0.483E-02    0.136E-02
DAV:   6    -0.355766180974E+02   -0.41158E-04   -0.10095E-05    80   0.268E-02
   9 F= -.35576618E+02 E0= -.35576618E+02  d E =0.297771E-01
       N       E                     dE             d eps       ncg     rms          rms(c)
DAV:   1    -0.355223365233E+02    0.54240E-01   -0.96420E+00    96   0.294E+01    0.680E-01
DAV:   2    -0.355271803937E+02   -0.48439E-02   -0.10241E-01   112   0.254E+00    0.450E-01
DAV:   3    -0.355265504482E+02    0.62995E-03   -0.36586E-03   112   0.540E-01    0.150E-01
DAV:   4    -0.355270717394E+02   -0.52129E-03   -0.78704E-04   128   0.222E-01    0.403E-02
DAV:   5    -0.355271374634E+02   -0.65724E-04   -0.67118E-05    64   0.754E-02    0.203E-02
DAV:   6    -0.355272107748E+02   -0.73311E-04   -0.34948E-05    80   0.495E-02
  10 F= -.35527211E+02 E0= -.35527211E+02  d E =0.494073E-01
       N       E                     dE             d eps       ncg     rms          rms(c)
DAV:   1    -0.354334722263E+02    0.93665E-01   -0.13889E+01    96   0.353E+01    0.921E-01
DAV:   2    -0.354345705072E+02   -0.10983E-02   -0.16874E-01   112   0.341E+00    0.563E-01
DAV:   3    -0.354330401511E+02    0.15304E-02   -0.95790E-03   128   0.878E-01    0.296E-01
DAV:   4    -0.354338346954E+02   -0.79454E-03   -0.21257E-03   124   0.422E-01    0.705E-02
DAV:   5    -0.354340306164E+02   -0.19592E-03   -0.24706E-04   116   0.136E-01    0.292E-02
DAV:   6    -0.354341104082E+02   -0.79792E-04   -0.26495E-05    96   0.481E-02
  11 F= -.35434110E+02 E0= -.35434110E+02  d E =0.931004E-01
       N       E                     dE             d eps       ncg     rms          rms(c)
DAV:   1    -0.354558249592E+02   -0.21794E-01   -0.79739E-01    96   0.845E+00    0.441E-01
DAV:   2    -0.354543885916E+02    0.14364E-02   -0.22439E-02   128   0.135E+00    0.212E-01
DAV:   3    -0.354536295786E+02    0.75901E-03   -0.30540E-03   128   0.548E-01    0.104E-01
DAV:   4    -0.354536683340E+02   -0.38755E-04   -0.12274E-03   112   0.341E-01    0.367E-02
DAV:   5    -0.354536803933E+02   -0.12059E-04   -0.14349E-04    96   0.128E-01    0.173E-02
DAV:   6    -0.354537046039E+02   -0.24211E-04   -0.39797E-05    80   0.597E-02
  12 F= -.35453705E+02 E0= -.35453705E+02  d E =-.195942E-01
       N       E                     dE             d eps       ncg     rms          rms(c)
DAV:   1    -0.354467753531E+02    0.69050E-02   -0.66057E-01    96   0.766E+00    0.366E-01
DAV:   2    -0.354455323951E+02    0.12430E-02   -0.16492E-02   128   0.115E+00    0.193E-01
DAV:   3    -0.354449028331E+02    0.62956E-03   -0.25884E-03   128   0.494E-01    0.940E-02
DAV:   4    -0.354449203705E+02   -0.17537E-04   -0.76156E-04   128   0.272E-01    0.359E-02
DAV:   5    -0.354449214516E+02   -0.10812E-05   -0.93065E-05    96   0.102E-01    0.148E-02
DAV:   6    -0.354449374180E+02   -0.15966E-04   -0.29264E-05    96   0.508E-02
  13 F= -.35444937E+02 E0= -.35444937E+02  d E =0.876719E-02
       N       E                     dE             d eps       ncg     rms          rms(c)
DAV:   1    -0.354533900886E+02   -0.84686E-02   -0.56739E-02    96   0.230E+00    0.117E-01
DAV:   2    -0.354532954073E+02    0.94681E-04   -0.15554E-03   128   0.364E-01    0.560E-02
DAV:   3    -0.354532554440E+02    0.39963E-04   -0.23767E-04   128   0.150E-01    0.260E-02
DAV:   4    -0.354532742903E+02   -0.18846E-04   -0.62764E-05    96   0.840E-02    0.834E-03
DAV:   5    -0.354532861045E+02   -0.11814E-04   -0.99874E-06    84   0.325E-02    0.368E-03
DAV:   6    -0.354532938081E+02   -0.77036E-05   -0.22037E-06    68   0.148E-02
  14 F= -.35453294E+02 E0= -.35453294E+02  d E =-.835639E-02
       N       E                     dE             d eps       ncg     rms          rms(c)
DAV:   1    -0.354617353808E+02   -0.84493E-02   -0.16374E-01    96   0.390E+00    0.197E-01
DAV:   2    -0.354613842964E+02    0.35108E-03   -0.44884E-03   128   0.616E-01    0.937E-02
DAV:   3    -0.354612288449E+02    0.15545E-03   -0.66707E-04   128   0.253E-01    0.436E-02
DAV:   4    -0.354612170462E+02    0.11799E-04   -0.18176E-04    80   0.143E-01    0.140E-02
DAV:   5    -0.354612175857E+02   -0.53959E-06   -0.29102E-05    96   0.551E-02    0.643E-03
DAV:   6    -0.354612190774E+02   -0.14917E-05   -0.55201E-06    64   0.236E-02
  15 F= -.35461219E+02 E0= -.35461219E+02  d E =-.792527E-02
       N       E                     dE             d eps       ncg     rms          rms(c)
DAV:   1    -0.354625833181E+02   -0.13657E-02   -0.19799E-01    96   0.431E+00    0.209E-01
DAV:   2    -0.354622137151E+02    0.36960E-03   -0.55899E-03   128   0.678E-01    0.101E-01
DAV:   3    -0.354620316975E+02    0.18202E-03   -0.71803E-04   128   0.264E-01    0.483E-02
DAV:   4    -0.354620176584E+02    0.14039E-04   -0.26307E-04   112   0.160E-01    0.166E-02
DAV:   5    -0.354620181606E+02   -0.50217E-06   -0.30149E-05    80   0.571E-02    0.814E-03
DAV:   6    -0.354620233335E+02   -0.51729E-05   -0.85712E-06    80   0.269E-02
  16 F= -.35462023E+02 E0= -.35462023E+02  d E =-.804256E-03
       N       E                     dE             d eps       ncg     rms          rms(c)
DAV:   1    -0.354623976737E+02   -0.37951E-03   -0.39114E-04    96   0.189E-01    0.843E-03
DAV:   2    -0.354624024933E+02   -0.48196E-05   -0.97437E-06    80   0.296E-02    0.456E-03
DAV:   3    -0.354624068827E+02   -0.43894E-05   -0.19744E-06    64   0.140E-02    0.242E-03
DAV:   4    -0.354624140686E+02   -0.71859E-05   -0.14914E-06    80   0.107E-02    0.951E-04
DAV:   5    -0.354624181604E+02   -0.40917E-05   -0.33030E-07    64   0.568E-03    0.478E-04
DAV:   6    -0.354624222955E+02   -0.41351E-05   -0.22355E-07    96   0.296E-03
  17 F= -.35462422E+02 E0= -.35462422E+02  d E =-.398962E-03
       N       E                     dE             d eps       ncg     rms          rms(c)
DAV:   1    -0.354631028096E+02   -0.68465E-03   -0.14890E-03    96   0.366E-01    0.171E-02
DAV:   2    -0.354631023903E+02    0.41932E-06   -0.33446E-05    96   0.552E-02    0.868E-03
DAV:   3    -0.354631033601E+02   -0.96982E-06   -0.76880E-06    64   0.281E-02    0.415E-03
DAV:   4    -0.354631058868E+02   -0.25266E-05   -0.44969E-06    96   0.197E-02    0.168E-03
DAV:   5    -0.354631070432E+02   -0.11564E-05   -0.79770E-07    64   0.942E-03    0.867E-04
DAV:   6    -0.354631080847E+02   -0.10415E-05   -0.20693E-07    96   0.401E-03
  18 F= -.35463108E+02 E0= -.35463108E+02  d E =-.685789E-03
       N       E                     dE             d eps       ncg     rms          rms(c)
DAV:   1    -0.354639904501E+02   -0.88341E-03   -0.30161E-03    96   0.520E-01    0.239E-02
DAV:   2    -0.354639850253E+02    0.54247E-05   -0.66644E-05    64   0.777E-02    0.123E-02
DAV:   3    -0.354639835022E+02    0.15231E-05   -0.15134E-05    96   0.396E-02    0.592E-03
DAV:   4    -0.354639843962E+02   -0.89396E-06   -0.89094E-06    64   0.278E-02    0.240E-03
DAV:   5    -0.354639846825E+02   -0.28631E-06   -0.15743E-06    96   0.133E-02    0.124E-03
DAV:   6    -0.354639849583E+02   -0.27579E-06   -0.37202E-07    64   0.552E-03
  19 F= -.35463985E+02 E0= -.35463985E+02  d E =-.876874E-03
       N       E                     dE             d eps       ncg     rms          rms(c)
DAV:   1    -0.354649538161E+02   -0.96913E-03   -0.46056E-03    96   0.643E-01    0.288E-02
DAV:   2    -0.354649444628E+02    0.93533E-05   -0.98960E-05    64   0.943E-02    0.150E-02
DAV:   3    -0.354649413828E+02    0.30800E-05   -0.22346E-05    96   0.480E-02    0.728E-03
DAV:   4    -0.354649418001E+02   -0.41732E-06   -0.13078E-05    64   0.336E-02    0.295E-03
DAV:   5    -0.354649418061E+02   -0.59591E-08   -0.23126E-06    80   0.162E-02    0.152E-03
DAV:   6    -0.354649419388E+02   -0.13269E-06   -0.54401E-07    64   0.668E-03
  20 F= -.35464942E+02 E0= -.35464942E+02  d E =-.956980E-03
       N       E                     dE             d eps       ncg     rms          rms(c)
DAV:   1    -0.354659033225E+02   -0.96152E-03   -0.58526E-03    96   0.724E-01    0.311E-02
DAV:   2    -0.354658923649E+02    0.10958E-04   -0.11969E-04    96   0.103E-01    0.166E-02
DAV:   3    -0.354658887071E+02    0.36579E-05   -0.26725E-05    48   0.525E-02    0.811E-03
DAV:   4    -0.354658893152E+02   -0.60811E-06   -0.15451E-05    80   0.365E-02    0.328E-03
DAV:   5    -0.354658894171E+02   -0.10195E-06   -0.27387E-06    48   0.176E-02    0.167E-03
DAV:   6    -0.354658897704E+02   -0.35326E-06   -0.65659E-07    64   0.725E-03
  21 F= -.35465890E+02 E0= -.35465890E+02  d E =-.947832E-03
       N       E                     dE             d eps       ncg     rms          rms(c)
DAV:   1    -0.354668079979E+02   -0.91858E-03   -0.64749E-03    96   0.760E-01    0.303E-02
DAV:   2    -0.354667978765E+02    0.10121E-04   -0.12116E-04    96   0.103E-01    0.169E-02
DAV:   3    -0.354667945818E+02    0.32947E-05   -0.26478E-05    48   0.521E-02    0.832E-03
DAV:   4    -0.354667955324E+02   -0.95058E-06   -0.14891E-05    48   0.358E-02    0.333E-03
DAV:   5    -0.354667957971E+02   -0.26476E-06   -0.26417E-06    48   0.173E-02    0.166E-03
DAV:   6    -0.354667963374E+02   -0.54031E-06   -0.65034E-07    64   0.708E-03
  22 F= -.35466796E+02 E0= -.35466796E+02  d E =-.906567E-03
       N       E                     dE             d eps       ncg     rms          rms(c)
DAV:   1    -0.354678066818E+02   -0.10109E-02   -0.79980E-03    96   0.841E-01    0.297E-02
DAV:   2    -0.354677979412E+02    0.87406E-05   -0.12749E-04    96   0.104E-01    0.176E-02
DAV:   3    -0.354677952691E+02    0.26721E-05   -0.26998E-05    48   0.522E-02    0.859E-03
DAV:   4    -0.354677966656E+02   -0.13964E-05   -0.13796E-05    48   0.344E-02    0.340E-03
DAV:   5    -0.354677970634E+02   -0.39788E-06   -0.24456E-06    48   0.164E-02    0.159E-03
DAV:   6    -0.354677977383E+02   -0.67481E-06   -0.61889E-07    64   0.679E-03
  23 F= -.35467798E+02 E0= -.35467798E+02  d E =-.100140E-02
       N       E                     dE             d eps       ncg     rms          rms(c)
DAV:   1    -0.354690355301E+02   -0.12385E-02   -0.97551E-03    96   0.923E-01    0.273E-02
DAV:   2    -0.354690308540E+02    0.46761E-05   -0.12231E-04    96   0.101E-01    0.172E-02
DAV:   3    -0.354690302787E+02    0.57528E-06   -0.25144E-05    48   0.494E-02    0.753E-03
DAV:   4    -0.354690319684E+02   -0.16897E-05   -0.93571E-06    48   0.279E-02    0.323E-03
DAV:   5    -0.354690325344E+02   -0.56602E-06   -0.17094E-06    48   0.128E-02    0.131E-03
DAV:   6    -0.354690333094E+02   -0.77496E-06   -0.52018E-07    64   0.607E-03
  24 F= -.35469033E+02 E0= -.35469033E+02  d E =-.123557E-02
       N       E                     dE             d eps       ncg     rms          rms(c)
DAV:   1    -0.354707075955E+02   -0.16751E-02   -0.13175E-02    96   0.107E+00    0.280E-02
DAV:   2    -0.354707079406E+02   -0.34509E-06   -0.14023E-04    76   0.106E-01    0.176E-02
DAV:   3    -0.354707110578E+02   -0.31172E-05   -0.26022E-05    64   0.483E-02    0.506E-03
DAV:   4    -0.354707123027E+02   -0.12449E-05   -0.62565E-06    48   0.220E-02    0.268E-03
DAV:   5    -0.354707129527E+02   -0.64998E-06   -0.14685E-06    48   0.103E-02    0.118E-03
DAV:   6    -0.354707136832E+02   -0.73050E-06   -0.57719E-07    64   0.605E-03
  25 F= -.35470714E+02 E0= -.35470714E+02  d E =-.168037E-02
       N       E                     dE             d eps       ncg     rms          rms(c)
DAV:   1    -0.354729957268E+02   -0.22828E-02   -0.20683E-02    96   0.136E+00    0.352E-02
DAV:   2    -0.354730036965E+02   -0.79697E-05   -0.27573E-04   112   0.139E-01    0.221E-02
DAV:   3    -0.354730055038E+02   -0.18073E-05   -0.10295E-05    88   0.339E-02    0.733E-03
DAV:   4    -0.354730076575E+02   -0.21536E-05   -0.43906E-06    64   0.182E-02    0.239E-03
DAV:   5    -0.354730083540E+02   -0.69650E-06   -0.98545E-07    64   0.911E-03    0.715E-04
DAV:   6    -0.354730087058E+02   -0.35185E-06   -0.22020E-07    48   0.364E-03
  26 F= -.35473009E+02 E0= -.35473009E+02  d E =-.229502E-02
       N       E                     dE             d eps       ncg     rms          rms(c)
DAV:   1    -0.354759029519E+02   -0.28946E-02   -0.34795E-02    96   0.178E+00    0.486E-02
DAV:   2    -0.354759158476E+02   -0.12896E-04   -0.53603E-04   108   0.194E-01    0.299E-02
DAV:   3    -0.354759139714E+02    0.18762E-05   -0.22898E-05    96   0.526E-02    0.130E-02
DAV:   4    -0.354759189643E+02   -0.49928E-05   -0.15493E-05    64   0.369E-02    0.388E-03
DAV:   5    -0.354759195180E+02   -0.55377E-06   -0.32787E-06    80   0.184E-02    0.181E-03
DAV:   6    -0.354759201378E+02   -0.61979E-06   -0.81684E-07    56   0.753E-03
  27 F= -.35475920E+02 E0= -.35475920E+02  d E =-.291143E-02
       N       E                     dE             d eps       ncg     rms          rms(c)
DAV:   1    -0.354792687037E+02   -0.33492E-02   -0.56146E-02    96   0.227E+00    0.631E-02
DAV:   2    -0.354792874669E+02   -0.18763E-04   -0.89927E-04   104   0.252E-01    0.387E-02
DAV:   3    -0.354792823467E+02    0.51202E-05   -0.40687E-05    96   0.704E-02    0.178E-02
DAV:   4    -0.354792911769E+02   -0.88302E-05   -0.30150E-05    64   0.522E-02    0.525E-03
DAV:   5    -0.354792920564E+02   -0.87950E-06   -0.62515E-06    64   0.256E-02    0.261E-03
DAV:   6    -0.354792932376E+02   -0.11812E-05   -0.15786E-06    48   0.108E-02
  28 F= -.35479293E+02 E0= -.35479293E+02  d E =-.337310E-02
       N       E                     dE             d eps       ncg     rms          rms(c)
DAV:   1    -0.354831065162E+02   -0.38145E-02   -0.82943E-02    96   0.274E+00    0.732E-02
DAV:   2    -0.354831341424E+02   -0.27626E-04   -0.11987E-03   112   0.291E-01    0.455E-02
DAV:   3    -0.354831350655E+02   -0.92311E-06   -0.49722E-05    80   0.778E-02    0.186E-02
DAV:   4    -0.354831478754E+02   -0.12810E-04   -0.30091E-05    64   0.507E-02    0.566E-03
DAV:   5    -0.354831495801E+02   -0.17047E-05   -0.63548E-06    64   0.251E-02    0.254E-03
DAV:   6    -0.354831513901E+02   -0.18100E-05   -0.16080E-06    48   0.105E-02
  29 F= -.35483151E+02 E0= -.35483151E+02  d E =-.385815E-02
       N       E                     dE             d eps       ncg     rms          rms(c)
DAV:   1    -0.354878885386E+02   -0.47390E-02   -0.11834E-01    96   0.323E+00    0.825E-02
DAV:   2    -0.354879212538E+02   -0.32715E-04   -0.14543E-03   112   0.319E-01    0.524E-02
DAV:   3    -0.354879419212E+02   -0.20667E-04   -0.55560E-05    80   0.792E-02    0.148E-02
DAV:   4    -0.354879529495E+02   -0.11028E-04   -0.21050E-05    64   0.384E-02    0.541E-03
DAV:   5    -0.354879563601E+02   -0.34106E-05   -0.42517E-06    64   0.181E-02    0.136E-03
DAV:   6    -0.354879583535E+02   -0.19933E-05   -0.99848E-07    48   0.770E-03
  30 F= -.35487958E+02 E0= -.35487958E+02  d E =-.480696E-02
       N       E                     dE             d eps       ncg     rms          rms(c)
DAV:   1    -0.354940653511E+02   -0.61090E-02   -0.17798E-01    96   0.393E+00    0.101E-01
DAV:   2    -0.354940910375E+02   -0.25686E-04   -0.20905E-03   112   0.383E-01    0.657E-02
DAV:   3    -0.354941153075E+02   -0.24270E-04   -0.11440E-04    96   0.113E-01    0.200E-02
DAV:   4    -0.354941328993E+02   -0.17592E-04   -0.37465E-05    96   0.566E-02    0.780E-03
DAV:   5    -0.354941364570E+02   -0.35577E-05   -0.63294E-06    64   0.238E-02    0.326E-03
DAV:   6    -0.354941400856E+02   -0.36285E-05   -0.20443E-06    80   0.123E-02
  31 F= -.35494140E+02 E0= -.35494140E+02  d E =-.618173E-02
       N       E                     dE             d eps       ncg     rms          rms(c)
DAV:   1    -0.355013749210E+02   -0.72385E-02   -0.27423E-01    96   0.487E+00    0.128E-01
DAV:   2    -0.355014010391E+02   -0.26118E-04   -0.33093E-03   128   0.484E-01    0.835E-02
DAV:   3    -0.355014082927E+02   -0.72536E-05   -0.24628E-04   128   0.156E-01    0.303E-02
DAV:   4    -0.355014411864E+02   -0.32894E-04   -0.39232E-05    96   0.611E-02    0.109E-02
DAV:   5    -0.355014473066E+02   -0.61202E-05   -0.74636E-06    64   0.267E-02    0.438E-03
DAV:   6    -0.355014529309E+02   -0.56243E-05   -0.24829E-06    80   0.130E-02
  32 F= -.35501453E+02 E0= -.35501453E+02  d E =-.731285E-02
       N       E                     dE             d eps       ncg     rms          rms(c)
DAV:   1    -0.355098392675E+02   -0.83920E-02   -0.39850E-01    96   0.588E+00    0.150E-01
DAV:   2    -0.355099326844E+02   -0.93417E-04   -0.46206E-03   112   0.569E-01    0.974E-02
DAV:   3    -0.355099601249E+02   -0.27441E-04   -0.27704E-04   128   0.166E-01    0.278E-02
DAV:   4    -0.355099945246E+02   -0.34400E-04   -0.47271E-05    64   0.620E-02    0.112E-02
DAV:   5    -0.355100053017E+02   -0.10777E-04   -0.83538E-06    64   0.272E-02    0.365E-03
DAV:   6    -0.355100125283E+02   -0.72266E-05   -0.22446E-06    68   0.123E-02
  33 F= -.35510013E+02 E0= -.35510013E+02  d E =-.855960E-02
       N       E                     dE             d eps       ncg     rms          rms(c)
DAV:   1    -0.355202624489E+02   -0.10257E-01   -0.57629E-01    96   0.711E+00    0.181E-01
DAV:   2    -0.355204775750E+02   -0.21513E-03   -0.68052E-03   112   0.687E-01    0.117E-01
DAV:   3    -0.355205187518E+02   -0.41177E-04   -0.31715E-04   112   0.177E-01    0.295E-02
DAV:   4    -0.355205589736E+02   -0.40222E-04   -0.62257E-05    96   0.650E-02    0.115E-02
DAV:   5    -0.355205724371E+02   -0.13463E-04   -0.96115E-06    64   0.270E-02    0.433E-03
DAV:   6    -0.355205814198E+02   -0.89827E-05   -0.25943E-06    64   0.128E-02
  34 F= -.35520581E+02 E0= -.35520581E+02  d E =-.105689E-01
       N       E                     dE             d eps       ncg     rms          rms(c)
DAV:   1    -0.355322671633E+02   -0.11695E-01   -0.84730E-01    96   0.864E+00    0.220E-01
DAV:   2    -0.355325913188E+02   -0.32416E-03   -0.10059E-02   112   0.835E-01    0.143E-01
DAV:   3    -0.355326309374E+02   -0.39619E-04   -0.49775E-04   112   0.222E-01    0.386E-02
DAV:   4    -0.355326906697E+02   -0.59732E-04   -0.92358E-05    96   0.831E-02    0.144E-02
DAV:   5    -0.355327071431E+02   -0.16473E-04   -0.15368E-05    64   0.353E-02    0.608E-03
DAV:   6    -0.355327195233E+02   -0.12380E-04   -0.44155E-06    80   0.172E-02
  35 F= -.35532720E+02 E0= -.35532720E+02  d E =-.121381E-01
       N       E                     dE             d eps       ncg     rms          rms(c)
DAV:   1    -0.355465410292E+02   -0.13834E-01   -0.11969E+00    96   0.102E+01    0.256E-01
DAV:   2    -0.355469010957E+02   -0.36007E-03   -0.13354E-02   112   0.964E-01    0.165E-01
DAV:   3    -0.355469607570E+02   -0.59661E-04   -0.70626E-04   128   0.265E-01    0.406E-02
DAV:   4    -0.355470315251E+02   -0.70768E-04   -0.13125E-04    96   0.975E-02    0.176E-02
DAV:   5    -0.355470560394E+02   -0.24514E-04   -0.21916E-05    80   0.431E-02    0.513E-03
DAV:   6    -0.355470681408E+02   -0.12101E-04   -0.52288E-06    80   0.191E-02
  36 F= -.35547068E+02 E0= -.35547068E+02  d E =-.143486E-01
       N       E                     dE             d eps       ncg     rms          rms(c)
DAV:   1    -0.355624194934E+02   -0.15363E-01   -0.17423E+00    96   0.124E+01    0.308E-01
DAV:   2    -0.355629020045E+02   -0.48251E-03   -0.19679E-02   112   0.117E+00    0.199E-01
DAV:   3    -0.355628970947E+02    0.49098E-05   -0.11527E-03   128   0.340E-01    0.557E-02
DAV:   4    -0.355630205621E+02   -0.12347E-03   -0.23962E-04   128   0.127E-01    0.247E-02
DAV:   5    -0.355630481947E+02   -0.27633E-04   -0.27635E-05    92   0.538E-02    0.709E-03
DAV:   6    -0.355630660819E+02   -0.17887E-04   -0.77066E-06    68   0.261E-02
  37 F= -.35563066E+02 E0= -.35563066E+02  d E =-.159979E-01
       N       E                     dE             d eps       ncg     rms          rms(c)
DAV:   1    -0.355797971664E+02   -0.16749E-01   -0.24009E+00    96   0.146E+01    0.357E-01
DAV:   2    -0.355807878577E+02   -0.99069E-03   -0.27218E-02   112   0.135E+00    0.234E-01
DAV:   3    -0.355808123887E+02   -0.24531E-04   -0.12830E-03   128   0.344E-01    0.626E-02
DAV:   4    -0.355809592502E+02   -0.14686E-03   -0.25542E-04   112   0.130E-01    0.239E-02
DAV:   5    -0.355809883061E+02   -0.29056E-04   -0.14241E-05    64   0.382E-02    0.115E-02
DAV:   6    -0.355810207979E+02   -0.32492E-04   -0.80394E-06    80   0.234E-02
  38 F= -.35581021E+02 E0= -.35581021E+02  d E =-.179547E-01
       N       E                     dE             d eps       ncg     rms          rms(c)
DAV:   1    -0.355982377143E+02   -0.17249E-01   -0.33616E+00    96   0.173E+01    0.405E-01
DAV:   2    -0.355996778729E+02   -0.14402E-02   -0.36445E-02   112   0.156E+00    0.267E-01
DAV:   3    -0.355996353470E+02    0.42526E-04   -0.15611E-03   128   0.376E-01    0.655E-02
DAV:   4    -0.355998154634E+02   -0.18012E-03   -0.33162E-04   112   0.140E-01    0.262E-02
DAV:   5    -0.355998517281E+02   -0.36265E-04   -0.14581E-05    80   0.385E-02    0.118E-02
DAV:   6    -0.355998881753E+02   -0.36447E-04   -0.94351E-06    80   0.259E-02
  39 F= -.35599888E+02 E0= -.35599888E+02  d E =-.188674E-01
       N       E                     dE             d eps       ncg     rms          rms(c)
DAV:   1    -0.356158365815E+02   -0.15985E-01   -0.48616E+00    96   0.209E+01    0.470E-01
DAV:   2    -0.356182565626E+02   -0.24200E-02   -0.53366E-02   112   0.186E+00    0.316E-01
DAV:   3    -0.356179468322E+02    0.30973E-03   -0.22887E-03   128   0.448E-01    0.881E-02
DAV:   4    -0.356182301370E+02   -0.28330E-03   -0.48604E-04   128   0.173E-01    0.314E-02
DAV:   5    -0.356182749077E+02   -0.44771E-04   -0.33936E-05    68   0.597E-02    0.128E-02
DAV:   6    -0.356183196884E+02   -0.44781E-04   -0.16772E-05    84   0.349E-02
  40 F= -.35618320E+02 E0= -.35618320E+02  d E =-.184315E-01
       N       E                     dE             d eps       ncg     rms          rms(c)
DAV:   1    -0.356277289851E+02   -0.94541E-02   -0.70652E+00    96   0.252E+01    0.563E-01
DAV:   2    -0.356323741855E+02   -0.46452E-02   -0.84351E-02   112   0.230E+00    0.385E-01
DAV:   3    -0.356316982978E+02    0.67589E-03   -0.34694E-03   128   0.518E-01    0.165E-01
DAV:   4    -0.356321509492E+02   -0.45265E-03   -0.70774E-04   156   0.221E-01    0.387E-02
DAV:   5    -0.356322236170E+02   -0.72668E-04   -0.63264E-05    96   0.756E-02    0.166E-02
DAV:   6    -0.356322868902E+02   -0.63273E-04   -0.21206E-05    84   0.386E-02
  41 F= -.35632287E+02 E0= -.35632287E+02  d E =-.139672E-01
       N       E                     dE             d eps       ncg     rms          rms(c)
DAV:   1    -0.356309432006E+02    0.12804E-02   -0.99494E+00    96   0.301E+01    0.667E-01
DAV:   2    -0.356377333359E+02   -0.67901E-02   -0.13255E-01   120   0.294E+00    0.467E-01
DAV:   3    -0.356356647900E+02    0.20685E-02   -0.63299E-03   128   0.773E-01    0.211E-01
DAV:   4    -0.356362174979E+02   -0.55271E-03   -0.29457E-03   128   0.482E-01    0.649E-02
DAV:   5    -0.356362171901E+02    0.30772E-06   -0.51091E-04   112   0.208E-01    0.271E-02
DAV:   6    -0.356362854403E+02   -0.68250E-04   -0.52914E-05    96   0.648E-02
  42 F= -.35636285E+02 E0= -.35636285E+02  d E =-.399855E-02
       N       E                     dE             d eps       ncg     rms          rms(c)
DAV:   1    -0.355843204754E+02    0.51897E-01   -0.15403E+01    96   0.378E+01    0.107E+00
DAV:   2    -0.355883697574E+02   -0.40493E-02   -0.28941E-01   128   0.435E+00    0.685E-01
DAV:   3    -0.355837472321E+02    0.46225E-02   -0.19450E-02   128   0.127E+00    0.422E-01
DAV:   4    -0.355836689981E+02    0.78234E-04   -0.68532E-03   128   0.801E-01    0.106E-01
DAV:   5    -0.355838954888E+02   -0.22649E-03   -0.74659E-04   128   0.242E-01    0.484E-02
DAV:   6    -0.355840036776E+02   -0.10819E-03   -0.69171E-05    64   0.710E-02    0.175E-02
DAV:   7    -0.355840714499E+02   -0.67772E-04   -0.11746E-05    88   0.315E-02
  43 F= -.35584071E+02 E0= -.35584071E+02  d E =0.522140E-01
       N       E                     dE             d eps       ncg     rms          rms(c)
DAV:   1    -0.356456585518E+02   -0.61655E-01   -0.21180E+00    96   0.137E+01    0.772E-01
DAV:   2    -0.356412061778E+02    0.44524E-02   -0.57639E-02   128   0.219E+00    0.340E-01
DAV:   3    -0.356391223760E+02    0.20838E-02   -0.89589E-03   128   0.913E-01    0.163E-01
DAV:   4    -0.356390490115E+02    0.73364E-04   -0.24788E-03   128   0.493E-01    0.536E-02
DAV:   5    -0.356390528357E+02   -0.38242E-05   -0.20998E-04   112   0.142E-01    0.251E-02
DAV:   6    -0.356390595036E+02   -0.66679E-05   -0.21000E-05    96   0.442E-02
  44 F= -.35639060E+02 E0= -.35639060E+02  d E =-.549881E-01
       N       E                     dE             d eps       ncg     rms          rms(c)
DAV:   1    -0.355954472076E+02    0.43606E-01   -0.21921E+00    96   0.140E+01    0.779E-01
DAV:   2    -0.355898661150E+02    0.55811E-02   -0.58755E-02   128   0.224E+00    0.356E-01
DAV:   3    -0.355875074537E+02    0.23587E-02   -0.11245E-02   128   0.997E-01    0.166E-01
DAV:   4    -0.355874564283E+02    0.51025E-04   -0.23978E-03   128   0.485E-01    0.593E-02
DAV:   5    -0.355874526694E+02    0.37590E-05   -0.24126E-04   128   0.142E-01    0.260E-02
DAV:   6    -0.355874777876E+02   -0.25118E-04   -0.28030E-05    96   0.512E-02
  45 F= -.35587478E+02 E0= -.35587478E+02  d E =0.515817E-01
       N       E                     dE             d eps       ncg     rms          rms(c)
DAV:   1    -0.356137295198E+02   -0.26277E-01   -0.16408E-01    96   0.387E+00    0.208E-01
DAV:   2    -0.356133850545E+02    0.34447E-03   -0.41905E-03   128   0.598E-01    0.958E-02
DAV:   3    -0.356132702618E+02    0.11479E-03   -0.80411E-04   128   0.268E-01    0.436E-02
DAV:   4    -0.356133226003E+02   -0.52338E-04   -0.13412E-04    96   0.124E-01    0.149E-02
DAV:   5    -0.356133618662E+02   -0.39266E-04   -0.23736E-05    96   0.482E-02    0.499E-03
DAV:   6    -0.356133812550E+02   -0.19389E-04   -0.57273E-06    96   0.231E-02
  46 F= -.35613381E+02 E0= -.35613381E+02  d E =-.259035E-01
       N       E                     dE             d eps       ncg     rms          rms(c)
DAV:   1    -0.356384461082E+02   -0.25084E-01   -0.47261E-01    96   0.655E+00    0.355E-01
DAV:   2    -0.356372615408E+02    0.11846E-02   -0.12218E-02   128   0.102E+00    0.161E-01
DAV:   3    -0.356368013926E+02    0.46015E-03   -0.21946E-03   128   0.446E-01    0.738E-02
DAV:   4    -0.356367896720E+02    0.11721E-04   -0.47307E-04   112   0.217E-01    0.246E-02
DAV:   5    -0.356367904535E+02   -0.78157E-06   -0.34727E-05    96   0.617E-02    0.101E-02
DAV:   6    -0.356367944376E+02   -0.39840E-05   -0.10085E-05    64   0.290E-02
  47 F= -.35636794E+02 E0= -.35636794E+02  d E =-.234132E-01
       N       E                     dE             d eps       ncg     rms          rms(c)
DAV:   1    -0.356369968161E+02   -0.20636E-03   -0.59716E-01    96   0.735E+00    0.400E-01
DAV:   2    -0.356355343672E+02    0.14624E-02   -0.15789E-02   128   0.115E+00    0.179E-01
DAV:   3    -0.356349423764E+02    0.59199E-03   -0.25618E-03   128   0.486E-01    0.840E-02
DAV:   4    -0.356349026957E+02    0.39681E-04   -0.66285E-04   128   0.256E-01    0.270E-02
DAV:   5    -0.356349084716E+02   -0.57759E-05   -0.48633E-05    64   0.734E-02    0.121E-02
DAV:   6    -0.356349215676E+02   -0.13096E-04   -0.13842E-05    80   0.333E-02
  48 F= -.35634922E+02 E0= -.35634922E+02  d E =0.187287E-02
       N       E                     dE             d eps       ncg     rms          rms(c)
DAV:   1    -0.356355048143E+02   -0.59634E-03   -0.73714E-04    96   0.260E-01    0.135E-02
DAV:   2    -0.356355157014E+02   -0.10887E-04   -0.18408E-05    96   0.417E-02    0.638E-03
DAV:   3    -0.356355263236E+02   -0.10622E-04   -0.45354E-06    64   0.210E-02    0.320E-03
DAV:   4    -0.356355401664E+02   -0.13843E-04   -0.24271E-06    96   0.137E-02    0.126E-03
DAV:   5    -0.356355507695E+02   -0.10603E-04   -0.66988E-07    64   0.706E-03    0.649E-04
DAV:   6    -0.356355607767E+02   -0.10007E-04   -0.55467E-07    96   0.487E-03
  49 F= -.35635561E+02 E0= -.35635561E+02  d E =-.639209E-03
       N       E                     dE             d eps       ncg     rms          rms(c)
DAV:   1    -0.356365660413E+02   -0.10153E-02   -0.28504E-03    96   0.508E-01    0.267E-02
DAV:   2    -0.356365631502E+02    0.28911E-05   -0.66176E-05    96   0.799E-02    0.123E-02
DAV:   3    -0.356365647444E+02   -0.15942E-05   -0.18176E-05    64   0.427E-02    0.547E-03
DAV:   4    -0.356365691818E+02   -0.44374E-05   -0.83779E-06    96   0.273E-02    0.197E-03
DAV:   5    -0.356365717201E+02   -0.25382E-05   -0.15801E-06    64   0.123E-02    0.939E-04
DAV:   6    -0.356365734959E+02   -0.17759E-05   -0.28785E-07    96   0.535E-03
  50 F= -.35636573E+02 E0= -.35636573E+02  d E =-.101272E-02
       N       E                     dE             d eps       ncg     rms          rms(c)
DAV:   1    -0.356377742481E+02   -0.12025E-02   -0.57888E-03    96   0.725E-01    0.376E-02
DAV:   2    -0.356377609046E+02    0.13344E-04   -0.13423E-04    64   0.113E-01    0.174E-02
DAV:   3    -0.356377575264E+02    0.33782E-05   -0.36304E-05    96   0.603E-02    0.782E-03
DAV:   4    -0.356377590722E+02   -0.15458E-05   -0.17023E-05    64   0.389E-02    0.283E-03
DAV:   5    -0.356377597858E+02   -0.71360E-06   -0.31506E-06    96   0.174E-02    0.136E-03
DAV:   6    -0.356377601905E+02   -0.40471E-06   -0.54307E-07    64   0.739E-03
  51 F= -.35637760E+02 E0= -.35637760E+02  d E =-.118669E-02
       N       E                     dE             d eps       ncg     rms          rms(c)
DAV:   1    -0.356388871984E+02   -0.11274E-02   -0.88606E-03    96   0.898E-01    0.461E-02
DAV:   2    -0.356388680788E+02    0.19120E-04   -0.23876E-04    96   0.140E-01    0.214E-02
DAV:   3    -0.356388591959E+02    0.88829E-05   -0.30209E-05    96   0.573E-02    0.106E-02
DAV:   4    -0.356388589150E+02    0.28081E-06   -0.23656E-05    64   0.478E-02    0.389E-03
DAV:   5    -0.356388588452E+02    0.69792E-07   -0.40749E-06    80   0.203E-02    0.208E-03
DAV:   6    -0.356388588738E+02   -0.28581E-07   -0.82861E-07    64   0.866E-03
  52 F= -.35638859E+02 E0= -.35638859E+02  d E =-.109868E-02
       N       E                     dE             d eps       ncg     rms          rms(c)
DAV:   1    -0.356396561628E+02   -0.79732E-03   -0.11244E-02    96   0.101E+00    0.512E-02
DAV:   2    -0.356396330347E+02    0.23128E-04   -0.30212E-04   128   0.156E-01    0.240E-02
DAV:   3    -0.356396218112E+02    0.11224E-04   -0.37561E-05    48   0.641E-02    0.119E-02
DAV:   4    -0.356396214990E+02    0.31215E-06   -0.30172E-05    96   0.539E-02    0.442E-03
DAV:   5    -0.356396216255E+02   -0.12647E-06   -0.52764E-06    48   0.232E-02    0.236E-03
DAV:   6    -0.356396220672E+02   -0.44165E-06   -0.11095E-06    64   0.996E-03
  53 F= -.35639622E+02 E0= -.35639622E+02  d E =-.763193E-03
       N       E                     dE             d eps       ncg     rms          rms(c)
DAV:   1    -0.356399351048E+02   -0.31348E-03   -0.12035E-02    96   0.105E+00    0.514E-02
DAV:   2    -0.356399121892E+02    0.22916E-04   -0.32016E-04   128   0.160E-01    0.246E-02
DAV:   3    -0.356399006702E+02    0.11519E-04   -0.38982E-05    48   0.652E-02    0.123E-02
DAV:   4    -0.356399007030E+02   -0.32788E-07   -0.31464E-05    48   0.550E-02    0.458E-03
DAV:   5    -0.356399010142E+02   -0.31118E-06   -0.55615E-06    48   0.240E-02    0.239E-03
DAV:   6    -0.356399017136E+02   -0.69940E-06   -0.12092E-06    80   0.102E-02
  54 F= -.35639902E+02 E0= -.35639902E+02  d E =-.279646E-03
       N       E                     dE             d eps       ncg     rms          rms(c)
DAV:   1    -0.356397497229E+02    0.15129E-03   -0.12043E-02    96   0.106E+00    0.478E-02
DAV:   2    -0.356397312520E+02    0.18471E-04   -0.31078E-04   128   0.156E-01    0.239E-02
DAV:   3    -0.356397207018E+02    0.10550E-04   -0.35453E-05    48   0.622E-02    0.122E-02
DAV:   4    -0.356397210814E+02   -0.37960E-06   -0.29729E-05    48   0.534E-02    0.456E-03
DAV:   5    -0.356397215065E+02   -0.42513E-06   -0.53624E-06    48   0.239E-02    0.232E-03
DAV:   6    -0.356397223335E+02   -0.82695E-06   -0.12153E-06    48   0.999E-03
  55 F= -.35639722E+02 E0= -.35639722E+02  d E =0.179380E-03
       N       E                     dE             d eps       ncg     rms          rms(c)
DAV:   1    -0.356397394414E+02   -0.17935E-04   -0.68940E-06    48   0.263E-02    0.105E-03
DAV:   2    -0.356397401933E+02   -0.75187E-06   -0.51367E-07    48   0.702E-03    0.762E-04
DAV:   3    -0.356397409553E+02   -0.76200E-06   -0.93009E-08    48   0.275E-03    0.454E-04
DAV:   4    -0.356397423384E+02   -0.13831E-05   -0.97765E-08    64   0.234E-03    0.194E-04
DAV:   5    -0.356397427393E+02   -0.40098E-06   -0.35217E-08    48   0.114E-03    0.140E-04
DAV:   6    -0.356397437771E+02   -0.10378E-05   -0.48723E-08    64   0.113E-03
  56 F= -.35639744E+02 E0= -.35639744E+02  d E =-.214437E-04
       N       E                     dE             d eps       ncg     rms          rms(c)
DAV:   1    -0.356397752442E+02   -0.32505E-04   -0.25113E-05    48   0.495E-02    0.197E-03
DAV:   2    -0.356397756754E+02   -0.43123E-06   -0.14348E-06    56   0.118E-02    0.107E-03
DAV:   3    -0.356397759821E+02   -0.30668E-06   -0.17559E-07    48   0.383E-03    0.679E-04
DAV:   4    -0.356397764873E+02   -0.50517E-06   -0.12506E-07    64   0.338E-03    0.215E-04
DAV:   5    -0.356397766110E+02   -0.12371E-06   -0.43983E-08    48   0.159E-03    0.175E-04
DAV:   6    -0.356397767467E+02   -0.13570E-06   -0.23984E-08    48   0.749E-04
  57 F= -.35639777E+02 E0= -.35639777E+02  d E =-.329695E-04
       N       E                     dE             d eps       ncg     rms          rms(c)
DAV:   1    -0.356398203744E+02   -0.43763E-04   -0.54402E-05    56   0.728E-02    0.291E-03
DAV:   2    -0.356398205856E+02   -0.21117E-06   -0.31253E-06    64   0.175E-02    0.158E-03
DAV:   3    -0.356398206301E+02   -0.44479E-07   -0.35491E-07    48   0.565E-03    0.102E-03
DAV:   4    -0.356398207635E+02   -0.13339E-06   -0.24040E-07    76   0.505E-03    0.314E-04
DAV:   5    -0.356398208105E+02   -0.46979E-07   -0.75715E-08    48   0.238E-03    0.260E-04
DAV:   6    -0.356398208537E+02   -0.43234E-07   -0.30920E-08    48   0.103E-03
  58 F= -.35639821E+02 E0= -.35639821E+02  d E =-.441070E-04
       N       E                     dE             d eps       ncg     rms          rms(c)
DAV:   1    -0.356398737373E+02   -0.52927E-04   -0.91564E-05    64   0.944E-02    0.381E-03
DAV:   2    -0.356398739479E+02   -0.21053E-06   -0.52673E-06    68   0.228E-02    0.205E-03
DAV:   3    -0.356398739069E+02    0.40997E-07   -0.59168E-07    48   0.734E-03    0.132E-03
DAV:   4    -0.356398739023E+02    0.45731E-08   -0.40177E-07    80   0.660E-03    0.409E-04
DAV:   5    -0.356398739183E+02   -0.16026E-07   -0.12309E-07    48   0.312E-03    0.338E-04
DAV:   6    -0.356398739316E+02   -0.13246E-07   -0.45713E-08    48   0.134E-03
  59 F= -.35639874E+02 E0= -.35639874E+02  d E =-.530779E-04
       N       E                     dE             d eps       ncg     rms          rms(c)
DAV:   1    -0.356399324550E+02   -0.58537E-04   -0.13352E-04    64   0.114E-01    0.464E-03
DAV:   2    -0.356399327164E+02   -0.26140E-06   -0.76860E-06    64   0.275E-02    0.248E-03
DAV:   3    -0.356399326257E+02    0.90719E-07   -0.86082E-07    48   0.887E-03    0.160E-03
DAV:   4    -0.356399325653E+02    0.60369E-07   -0.58240E-07    64   0.801E-03    0.494E-04
DAV:   5    -0.356399325758E+02   -0.10524E-07   -0.17369E-07    48   0.379E-03    0.408E-04
DAV:   6    -0.356399325829E+02   -0.70490E-08   -0.58427E-08    48   0.162E-03
  60 F= -.35639933E+02 E0= -.35639933E+02  d E =-.586513E-04
       N       E                     dE             d eps       ncg     rms          rms(c)
DAV:   1    -0.356399929418E+02   -0.60366E-04   -0.17724E-04    48   0.131E-01    0.536E-03
DAV:   2    -0.356399933175E+02   -0.37571E-06   -0.10186E-05    64   0.317E-02    0.285E-03
DAV:   3    -0.356399932008E+02    0.11666E-06   -0.11336E-06    48   0.102E-02    0.184E-03
DAV:   4    -0.356399931213E+02    0.79540E-07   -0.76281E-07    48   0.923E-03    0.566E-04
DAV:   5    -0.356399931347E+02   -0.13396E-07   -0.22148E-07    48   0.438E-03    0.468E-04
DAV:   6    -0.356399931422E+02   -0.75078E-08   -0.67204E-08    48   0.187E-03
  61 F= -.35639993E+02 E0= -.35639993E+02  d E =-.605593E-04
       N       E                     dE             d eps       ncg     rms          rms(c)
DAV:   1    -0.356400587073E+02   -0.65573E-04   -0.28322E-04    80   0.162E-01    0.756E-03
DAV:   2    -0.356400579944E+02    0.71295E-06   -0.64332E-06    64   0.240E-02    0.363E-03
DAV:   3    -0.356400577661E+02    0.22828E-06   -0.16445E-06    48   0.125E-02    0.165E-03
DAV:   4    -0.356400577565E+02    0.96220E-08   -0.80078E-07    48   0.824E-03    0.591E-04
DAV:   5    -0.356400577646E+02   -0.80777E-08   -0.17220E-07    48   0.375E-03    0.304E-04
DAV:   6    -0.356400577839E+02   -0.19287E-07   -0.60326E-08    48   0.166E-03
  62 F= -.35640058E+02 E0= -.35640058E+02  d E =-.646417E-04
       N       E                     dE             d eps       ncg     rms          rms(c)
DAV:   1    -0.356401228332E+02   -0.65069E-04   -0.40769E-04    96   0.195E-01    0.886E-03
DAV:   2    -0.356401219191E+02    0.91408E-06   -0.91285E-06    64   0.284E-02    0.426E-03
DAV:   3    -0.356401216231E+02    0.29607E-06   -0.22154E-06    48   0.145E-02    0.197E-03
DAV:   4    -0.356401216103E+02    0.12750E-07   -0.10815E-06    48   0.961E-03    0.704E-04
DAV:   5    -0.356401216220E+02   -0.11700E-07   -0.21676E-07    48   0.436E-03    0.361E-04
DAV:   6    -0.356401216481E+02   -0.26128E-07   -0.71942E-08    48   0.196E-03
  63 F= -.35640122E+02 E0= -.35640122E+02  d E =-.638643E-04
       N       E                     dE             d eps       ncg     rms          rms(c)
DAV:   1    -0.356401798587E+02   -0.58237E-04   -0.55453E-04    96   0.228E-01    0.999E-03
DAV:   2    -0.356401787485E+02    0.11102E-05   -0.12324E-05    64   0.328E-02    0.486E-03
DAV:   3    -0.356401783787E+02    0.36977E-06   -0.28594E-06    48   0.165E-02    0.230E-03
DAV:   4    -0.356401783641E+02    0.14639E-07   -0.14089E-06    48   0.110E-02    0.822E-04
DAV:   5    -0.356401783809E+02   -0.16887E-07   -0.27396E-07    48   0.502E-03    0.432E-04
DAV:   6    -0.356401784146E+02   -0.33661E-07   -0.86444E-08    48   0.227E-03
  64 F= -.35640178E+02 E0= -.35640178E+02  d E =-.567665E-04
       N       E                     dE             d eps       ncg     rms          rms(c)
DAV:   1    -0.356402246570E+02   -0.46276E-04   -0.69005E-04    96   0.255E-01    0.104E-02
DAV:   2    -0.356402235271E+02    0.11299E-05   -0.15134E-05    64   0.357E-02    0.521E-03
DAV:   3    -0.356402231295E+02    0.39752E-06   -0.32465E-06    48   0.174E-02    0.258E-03
DAV:   4    -0.356402231158E+02    0.13754E-07   -0.16197E-06    48   0.118E-02    0.922E-04
DAV:   5    -0.356402231411E+02   -0.25357E-07   -0.31242E-07    48   0.542E-03    0.506E-04
DAV:   6    -0.356402231851E+02   -0.43934E-07   -0.99277E-08    48   0.250E-03
  65 F= -.35640223E+02 E0= -.35640223E+02  d E =-.447705E-04
       N       E                     dE             d eps       ncg     rms          rms(c)
DAV:   1    -0.356402577618E+02   -0.34621E-04   -0.76317E-04    96   0.269E-01    0.982E-03
DAV:   2    -0.356402569230E+02    0.83879E-06   -0.16045E-05    64   0.359E-02    0.510E-03
DAV:   3    -0.356402565895E+02    0.33352E-06   -0.30548E-06    48   0.167E-02    0.271E-03
DAV:   4    -0.356402565852E+02    0.43397E-08   -0.15072E-06    48   0.114E-02    0.948E-04
DAV:   5    -0.356402566226E+02   -0.37413E-07   -0.29905E-07    48   0.523E-03    0.555E-04
DAV:   6    -0.356402566767E+02   -0.54082E-07   -0.98854E-08    48   0.247E-03
  66 F= -.35640257E+02 E0= -.35640257E+02  d E =-.334916E-04
       N       E                     dE             d eps       ncg     rms          rms(c)
DAV:   1    -0.356402886423E+02   -0.32020E-04   -0.76831E-04    96   0.269E-01    0.838E-03
DAV:   2    -0.356402882736E+02    0.36871E-06   -0.14004E-05    64   0.331E-02    0.453E-03
DAV:   3    -0.356402880860E+02    0.18752E-06   -0.23666E-06    48   0.144E-02    0.247E-03
DAV:   4    -0.356402881178E+02   -0.31783E-07   -0.10681E-06    48   0.966E-03    0.802E-04
DAV:   5    -0.356402881649E+02   -0.47105E-07   -0.23252E-07    48   0.436E-03    0.482E-04
DAV:   6    -0.356402882222E+02   -0.57322E-07   -0.81643E-08    48   0.212E-03
  67 F= -.35640288E+02 E0= -.35640288E+02  d E =-.315456E-04
       N       E                     dE             d eps       ncg     rms          rms(c)
DAV:   1    -0.356403335322E+02   -0.45367E-04   -0.76595E-04    96   0.267E-01    0.679E-03
DAV:   2    -0.356403335957E+02   -0.63471E-07   -0.10260E-05    48   0.281E-02    0.374E-03
DAV:   3    -0.356403335908E+02    0.48660E-08   -0.15835E-06    48   0.115E-02    0.182E-03
DAV:   4    -0.356403336780E+02   -0.87133E-07   -0.54303E-07    48   0.675E-03    0.458E-04
DAV:   5    -0.356403337270E+02   -0.48999E-07   -0.14703E-07    48   0.305E-03    0.285E-04
DAV:   6    -0.356403337791E+02   -0.52191E-07   -0.61296E-08    48   0.155E-03
  68 F= -.35640334E+02 E0= -.35640334E+02  d E =-.455569E-04
       N       E                     dE             d eps       ncg     rms          rms(c)
DAV:   1    -0.356404093025E+02   -0.75576E-04   -0.85266E-04    96   0.279E-01    0.552E-03
DAV:   2    -0.356404096852E+02   -0.38270E-06   -0.86270E-06    48   0.246E-02    0.344E-03
DAV:   3    -0.356404098359E+02   -0.15062E-06   -0.12560E-06    48   0.992E-03    0.142E-03
DAV:   4    -0.356404099445E+02   -0.10869E-06   -0.31230E-07    48   0.467E-03    0.467E-04
DAV:   5    -0.356404099904E+02   -0.45825E-07   -0.11034E-07    48   0.232E-03    0.261E-04
DAV:   6    -0.356404100529E+02   -0.62561E-07   -0.55687E-08    48   0.133E-03
  69 F= -.35640410E+02 E0= -.35640410E+02  d E =-.762738E-04
       N       E                     dE             d eps       ncg     rms          rms(c)
DAV:   1    -0.356405254342E+02   -0.11544E-03   -0.11512E-03    96   0.324E-01    0.639E-03
DAV:   2    -0.356405259009E+02   -0.46668E-06   -0.12761E-05    96   0.302E-02    0.450E-03
DAV:   3    -0.356405259656E+02   -0.64717E-07   -0.20964E-06    64   0.137E-02    0.217E-03
DAV:   4    -0.356405261006E+02   -0.13494E-06   -0.65186E-07    68   0.703E-03    0.952E-04
DAV:   5    -0.356405261469E+02   -0.46333E-07   -0.15571E-07    48   0.336E-03    0.376E-04
DAV:   6    -0.356405261923E+02   -0.45390E-07   -0.61491E-08    48   0.179E-03
  70 F= -.35640526E+02 E0= -.35640526E+02  d E =-.116139E-03
       N       E                     dE             d eps       ncg     rms          rms(c)
DAV:   1    -0.356406745439E+02   -0.14840E-03   -0.17784E-03    96   0.405E-01    0.960E-03
DAV:   2    -0.356406745306E+02    0.13256E-07   -0.23990E-05    64   0.427E-02    0.653E-03
DAV:   3    -0.356406742569E+02    0.27375E-06   -0.42738E-06    96   0.201E-02    0.352E-03
DAV:   4    -0.356406744617E+02   -0.20481E-06   -0.18746E-06    64   0.124E-02    0.144E-03
DAV:   5    -0.356406745056E+02   -0.43893E-07   -0.37650E-07    48   0.590E-03    0.649E-04
DAV:   6    -0.356406745617E+02   -0.56141E-07   -0.11065E-07    48   0.271E-03
  71 F= -.35640675E+02 E0= -.35640675E+02  d E =-.148369E-03
       N       E                     dE             d eps       ncg     rms          rms(c)
DAV:   1    -0.356408289174E+02   -0.15441E-03   -0.27461E-03    96   0.505E-01    0.135E-02
DAV:   2    -0.356408282054E+02    0.71207E-06   -0.40980E-05    64   0.566E-02    0.873E-03
DAV:   3    -0.356408275415E+02    0.66389E-06   -0.76809E-06    48   0.273E-02    0.474E-03
DAV:   4    -0.356408278523E+02   -0.31079E-06   -0.37773E-06    56   0.178E-02    0.190E-03
DAV:   5    -0.356408279036E+02   -0.51287E-07   -0.72333E-07    48   0.856E-03    0.940E-04
DAV:   6    -0.356408279921E+02   -0.88573E-07   -0.19742E-07    48   0.383E-03
  72 F= -.35640828E+02 E0= -.35640828E+02  d E =-.153430E-03
       N       E                     dE             d eps       ncg     rms          rms(c)
DAV:   1    -0.356409602885E+02   -0.13238E-03   -0.37832E-03    96   0.593E-01    0.152E-02
DAV:   2    -0.356409596279E+02    0.66059E-06   -0.54415E-05    88   0.648E-02    0.997E-03
DAV:   3    -0.356409588651E+02    0.76281E-06   -0.10038E-05    48   0.310E-02    0.541E-03
DAV:   4    -0.356409593060E+02   -0.44089E-06   -0.47349E-06    48   0.199E-02    0.216E-03
DAV:   5    -0.356409594037E+02   -0.97776E-07   -0.91367E-07    48   0.953E-03    0.105E-03
DAV:   6    -0.356409595537E+02   -0.14998E-06   -0.24422E-07    48   0.429E-03
  73 F= -.35640960E+02 E0= -.35640960E+02  d E =-.131562E-03
       N       E                     dE             d eps       ncg     rms          rms(c)
DAV:   1    -0.356410844810E+02   -0.12508E-03   -0.43894E-03    96   0.636E-01    0.134E-02
DAV:   2    -0.356410854041E+02   -0.92315E-06   -0.51495E-05    68   0.609E-02    0.929E-03
DAV:   3    -0.356410853513E+02    0.52845E-07   -0.87912E-06    48   0.282E-02    0.472E-03
DAV:   4    -0.356410858907E+02   -0.53943E-06   -0.30608E-06    48   0.156E-02    0.197E-03
DAV:   5    -0.356410860956E+02   -0.20493E-06   -0.65109E-07    48   0.745E-03    0.761E-04
DAV:   6    -0.356410863330E+02   -0.23733E-06   -0.19842E-07    48   0.365E-03
  74 F= -.35641086E+02 E0= -.35641086E+02  d E =-.126779E-03
       N       E                     dE             d eps       ncg     rms          rms(c)
DAV:   1    -0.356412521503E+02   -0.16605E-03   -0.52504E-03    96   0.694E-01    0.132E-02
DAV:   2    -0.356412543297E+02   -0.21794E-05   -0.50936E-05    64   0.588E-02    0.865E-03
DAV:   3    -0.356412552048E+02   -0.87505E-06   -0.76411E-06    48   0.248E-02    0.318E-03
DAV:   4    -0.356412556398E+02   -0.43505E-06   -0.18114E-06    48   0.113E-02    0.130E-03
DAV:   5    -0.356412558515E+02   -0.21167E-06   -0.52301E-07    48   0.578E-03    0.662E-04
DAV:   6    -0.356412561297E+02   -0.27819E-06   -0.20200E-07    64   0.353E-03
  75 F= -.35641256E+02 E0= -.35641256E+02  d E =-.169797E-03
       N       E                     dE             d eps       ncg     rms          rms(c)
DAV:   1    -0.356414639909E+02   -0.20814E-03   -0.72933E-03    96   0.824E-01    0.185E-02
DAV:   2    -0.356414660910E+02   -0.21001E-05   -0.83492E-05    68   0.788E-02    0.109E-02
DAV:   3    -0.356414665991E+02   -0.50811E-06   -0.12027E-05    96   0.313E-02    0.481E-03
DAV:   4    -0.356414672276E+02   -0.62854E-06   -0.33091E-06    64   0.168E-02    0.110E-03
DAV:   5    -0.356414673996E+02   -0.17196E-06   -0.84843E-07    80   0.775E-03    0.670E-04
DAV:   6    -0.356414675303E+02   -0.13069E-06   -0.25613E-07    48   0.402E-03
  76 F= -.35641468E+02 E0= -.35641468E+02  d E =-.211401E-03
       N       E                     dE             d eps       ncg     rms          rms(c)
DAV:   1    -0.356416435730E+02   -0.17617E-03   -0.10170E-02    96   0.977E-01    0.241E-02
DAV:   2    -0.356416471092E+02   -0.35362E-05   -0.15369E-04   100   0.102E-01    0.147E-02
DAV:   3    -0.356416451039E+02    0.20053E-05   -0.64904E-06    96   0.269E-02    0.754E-03
DAV:   4    -0.356416458672E+02   -0.76323E-06   -0.63116E-06    64   0.241E-02    0.212E-03
DAV:   5    -0.356416459577E+02   -0.90592E-07   -0.12489E-06    48   0.113E-02    0.118E-03
DAV:   6    -0.356416461091E+02   -0.15132E-06   -0.37307E-07    60   0.553E-03
  77 F= -.35641646E+02 E0= -.35641646E+02  d E =-.178579E-03
       N       E                     dE             d eps       ncg     rms          rms(c)
DAV:   1    -0.356417953481E+02   -0.14939E-03   -0.10715E-02    96   0.996E-01    0.208E-02
DAV:   2    -0.356417985928E+02   -0.32447E-05   -0.10885E-04    84   0.887E-02    0.128E-02
DAV:   3    -0.356418001788E+02   -0.15860E-05   -0.15400E-05    52   0.350E-02    0.483E-03
DAV:   4    -0.356418010849E+02   -0.90605E-06   -0.36108E-06    60   0.167E-02    0.117E-03
DAV:   5    -0.356418013816E+02   -0.29671E-06   -0.10504E-06    48   0.818E-03    0.628E-04
DAV:   6    -0.356418016396E+02   -0.25805E-06   -0.36068E-07    48   0.437E-03
  78 F= -.35641802E+02 E0= -.35641802E+02  d E =-.155531E-03
       N       E                     dE             d eps       ncg     rms          rms(c)
DAV:   1    -0.356420029059E+02   -0.20152E-03   -0.11976E-02    96   0.105E+00    0.215E-02
DAV:   2    -0.356420057056E+02   -0.27997E-05   -0.12276E-04    64   0.928E-02    0.146E-02
DAV:   3    -0.356420074387E+02   -0.17330E-05   -0.21296E-05    96   0.429E-02    0.557E-03
DAV:   4    -0.356420086212E+02   -0.11825E-05   -0.55426E-06    64   0.204E-02    0.253E-03
DAV:   5    -0.356420089435E+02   -0.32233E-06   -0.12759E-06    64   0.102E-02    0.939E-04
DAV:   6    -0.356420092470E+02   -0.30342E-06   -0.49101E-07    48   0.571E-03
  79 F= -.35642009E+02 E0= -.35642009E+02  d E =-.207607E-03
       N       E                     dE             d eps       ncg     rms          rms(c)
DAV:   1    -0.356421699882E+02   -0.16104E-03   -0.15013E-02    96   0.117E+00    0.287E-02
DAV:   2    -0.356421713798E+02   -0.13916E-05   -0.21603E-04    96   0.119E-01    0.203E-02
DAV:   3    -0.356421683066E+02    0.30732E-05   -0.15735E-05    96   0.408E-02    0.102E-02
DAV:   4    -0.356421704837E+02   -0.21771E-05   -0.83588E-06    64   0.287E-02    0.307E-03
DAV:   5    -0.356421708181E+02   -0.33441E-06   -0.16359E-06    48   0.125E-02    0.152E-03
DAV:   6    -0.356421712028E+02   -0.38473E-06   -0.41988E-07    64   0.604E-03
  80 F= -.35642171E+02 E0= -.35642171E+02  d E =-.161956E-03
       N       E                     dE             d eps       ncg     rms          rms(c)
DAV:   1    -0.356421786603E+02   -0.78422E-05   -0.24393E-05    48   0.484E-02    0.183E-03
DAV:   2    -0.356421789879E+02   -0.32752E-06   -0.15792E-06    48   0.123E-02    0.114E-03
DAV:   3    -0.356421791808E+02   -0.19297E-06   -0.19580E-07    48   0.407E-03    0.780E-04
DAV:   4    -0.356421795993E+02   -0.41844E-06   -0.13477E-07    64   0.367E-03    0.224E-04
DAV:   5    -0.356421797439E+02   -0.14467E-06   -0.49336E-08    48   0.173E-03    0.189E-04
DAV:   6    -0.356421798918E+02   -0.14782E-06   -0.24290E-08    48   0.834E-04
  81 F= -.35642180E+02 E0= -.35642180E+02  d E =-.868894E-05
       N       E                     dE             d eps       ncg     rms          rms(c)
DAV:   1    -0.356421898636E+02   -0.10120E-04   -0.82109E-05    60   0.886E-02    0.346E-03
DAV:   2    -0.356421901936E+02   -0.33000E-06   -0.49698E-06    68   0.221E-02    0.200E-03
DAV:   3    -0.356421902368E+02   -0.43173E-07   -0.57817E-07    48   0.721E-03    0.132E-03
DAV:   4    -0.356421903658E+02   -0.12904E-06   -0.35131E-07    80   0.617E-03    0.395E-04
DAV:   5    -0.356421904172E+02   -0.51368E-07   -0.10707E-07    48   0.290E-03    0.335E-04
DAV:   6    -0.356421904636E+02   -0.46434E-07   -0.37564E-08    48   0.138E-03
  82 F= -.35642190E+02 E0= -.35642190E+02  d E =-.105718E-04
       N       E                     dE             d eps       ncg     rms          rms(c)
DAV:   1    -0.356421971659E+02   -0.67487E-05   -0.13729E-04    80   0.115E-01    0.414E-03
DAV:   2    -0.356421975391E+02   -0.37326E-06   -0.81382E-06    64   0.284E-02    0.248E-03
DAV:   3    -0.356421974969E+02    0.42245E-07   -0.95330E-07    80   0.923E-03    0.166E-03
DAV:   4    -0.356421974823E+02    0.14638E-07   -0.52053E-07    64   0.750E-03    0.481E-04
DAV:   5    -0.356421975003E+02   -0.18072E-07   -0.16659E-07    48   0.352E-03    0.422E-04
DAV:   6    -0.356421975151E+02   -0.14785E-07   -0.58540E-08    48   0.171E-03
  83 F= -.35642198E+02 E0= -.35642198E+02  d E =-.705152E-05
       N       E                     dE             d eps       ncg     rms          rms(c)
DAV:   1    -0.356421985650E+02   -0.10647E-05   -0.16260E-04    48   0.124E-01    0.389E-03
DAV:   2    -0.356421990115E+02   -0.44647E-06   -0.92399E-06    64   0.305E-02    0.247E-03
DAV:   3    -0.356421989875E+02    0.23997E-07   -0.11008E-06    48   0.977E-03    0.170E-03
DAV:   4    -0.356421989654E+02    0.22086E-07   -0.49871E-07    48   0.719E-03    0.485E-04
DAV:   5    -0.356421989811E+02   -0.15655E-07   -0.17460E-07    48   0.340E-03    0.424E-04
DAV:   6    -0.356421989960E+02   -0.14964E-07   -0.63005E-08    48   0.169E-03
  84 F= -.35642199E+02 E0= -.35642199E+02  d E =-.148093E-05
       N       E                     dE             d eps       ncg     rms          rms(c)
DAV:   1    -0.356421975047E+02    0.14764E-05   -0.15931E-04    64   0.121E-01    0.321E-03
DAV:   2    -0.356421980356E+02   -0.53090E-06   -0.84119E-06    48   0.294E-02    0.210E-03
DAV:   3    -0.356421980861E+02   -0.50428E-07   -0.10338E-06    48   0.921E-03    0.142E-03
DAV:   4    -0.356421981120E+02   -0.25970E-07   -0.36249E-07    48   0.567E-03    0.407E-04
DAV:   5    -0.356421981327E+02   -0.20680E-07   -0.13662E-07    48   0.268E-03    0.336E-04
DAV:   6    -0.356421981527E+02   -0.20041E-07   -0.58027E-08    48   0.139E-03
  85 F= -.35642198E+02 E0= -.35642198E+02  d E =0.843305E-06
       N       E                     dE             d eps       ncg     rms          rms(c)
DAV:   1    -0.356421994534E+02   -0.13207E-05   -0.17234E-04    96   0.121E-01    0.304E-03
DAV:   2    -0.356421994549E+02   -0.14445E-08   -0.19791E-06    48   0.124E-02    0.191E-03
DAV:   3    -0.356421995105E+02   -0.55666E-07   -0.34903E-07    48   0.527E-03    0.557E-04
DAV:   4    -0.356421995398E+02   -0.29225E-07   -0.11410E-07    48   0.243E-03    0.241E-04
DAV:   5    -0.356421995640E+02   -0.24283E-07   -0.53066E-08    48   0.119E-03    0.869E-05
DAV:   6    -0.356421995885E+02   -0.24496E-07   -0.39608E-08    48   0.654E-04
  86 F= -.35642200E+02 E0= -.35642200E+02  d E =-.143580E-05
       N       E                     dE             d eps       ncg     rms          rms(c)
DAV:   1    -0.356422057028E+02   -0.61388E-05   -0.26832E-04    96   0.151E-01    0.394E-03
DAV:   2    -0.356422057328E+02   -0.29988E-07   -0.30504E-06    56   0.156E-02    0.244E-03
DAV:   3    -0.356422058070E+02   -0.74160E-07   -0.50277E-07    56   0.659E-03    0.810E-04
DAV:   4    -0.356422058484E+02   -0.41408E-07   -0.16518E-07    48   0.322E-03    0.304E-04
DAV:   5    -0.356422058665E+02   -0.18101E-07   -0.61291E-08    48   0.149E-03    0.122E-04
DAV:   6    -0.356422058844E+02   -0.17907E-07   -0.40835E-08    48   0.797E-04
  87 F= -.35642206E+02 E0= -.35642206E+02  d E =-.629585E-05
       N       E                     dE             d eps       ncg     rms          rms(c)
DAV:   1    -0.356422158472E+02   -0.99807E-05   -0.45042E-04    96   0.198E-01    0.587E-03
DAV:   2    -0.356422157864E+02    0.60764E-07   -0.62343E-06    80   0.225E-02    0.347E-03
DAV:   3    -0.356422157998E+02   -0.13369E-07   -0.10564E-06    48   0.975E-03    0.158E-03
DAV:   4    -0.356422158709E+02   -0.71147E-07   -0.41584E-07    64   0.581E-03    0.550E-04
DAV:   5    -0.356422158856E+02   -0.14693E-07   -0.10721E-07    48   0.264E-03    0.216E-04
DAV:   6    -0.356422159038E+02   -0.18158E-07   -0.50545E-08    48   0.124E-03
  88 F= -.35642216E+02 E0= -.35642216E+02  d E =-.100194E-04
       N       E                     dE             d eps       ncg     rms          rms(c)
DAV:   1    -0.356422274886E+02   -0.11603E-04   -0.65602E-04    96   0.239E-01    0.721E-03
DAV:   2    -0.356422273804E+02    0.10816E-06   -0.92646E-06    64   0.273E-02    0.422E-03
DAV:   3    -0.356422274054E+02   -0.24971E-07   -0.15547E-06    48   0.118E-02    0.193E-03
DAV:   4    -0.356422275075E+02   -0.10207E-06   -0.57407E-07    48   0.694E-03    0.671E-04
DAV:   5    -0.356422275277E+02   -0.20279E-07   -0.14005E-07    48   0.314E-03    0.248E-04
DAV:   6    -0.356422275544E+02   -0.26685E-07   -0.57306E-08    48   0.147E-03
  89 F= -.35642228E+02 E0= -.35642228E+02  d E =-.116507E-04
       N       E                     dE             d eps       ncg     rms          rms(c)
DAV:   1    -0.356422450128E+02   -0.17485E-04   -0.81334E-04    96   0.263E-01    0.733E-03
DAV:   2    -0.356422449670E+02    0.45815E-07   -0.92334E-06    64   0.269E-02    0.441E-03
DAV:   3    -0.356422451988E+02   -0.23185E-06   -0.15162E-06    48   0.114E-02    0.135E-03
DAV:   4    -0.356422452969E+02   -0.98069E-07   -0.39855E-07    48   0.533E-03    0.522E-04
DAV:   5    -0.356422453365E+02   -0.39608E-07   -0.12054E-07    48   0.254E-03    0.189E-04
DAV:   6    -0.356422453763E+02   -0.39797E-07   -0.58100E-08    48   0.137E-03
  90 F= -.35642245E+02 E0= -.35642245E+02  d E =-.178219E-04
       N       E                     dE             d eps       ncg     rms          rms(c)
DAV:   1    -0.356422773050E+02   -0.31968E-04   -0.11076E-03    96   0.303E-01    0.852E-03
DAV:   2    -0.356422771438E+02    0.16114E-06   -0.11512E-05    68   0.292E-02    0.532E-03
DAV:   3    -0.356422774697E+02   -0.32585E-06   -0.22797E-06    76   0.141E-02    0.126E-03
DAV:   4    -0.356422775657E+02   -0.96050E-07   -0.54187E-07    48   0.626E-03    0.722E-04
DAV:   5    -0.356422776172E+02   -0.51455E-07   -0.14693E-07    48   0.294E-03    0.315E-04
DAV:   6    -0.356422776732E+02   -0.56058E-07   -0.75444E-08    48   0.180E-03
  91 F= -.35642278E+02 E0= -.35642278E+02  d E =-.322969E-04
       N       E                     dE             d eps       ncg     rms          rms(c)
DAV:   1    -0.356423213152E+02   -0.43698E-04   -0.17047E-03    96   0.378E-01    0.111E-02
DAV:   2    -0.356423206202E+02    0.69501E-06   -0.19754E-05    80   0.388E-02    0.707E-03
DAV:   3    -0.356423209472E+02   -0.32699E-06   -0.41740E-06    96   0.196E-02    0.229E-03
DAV:   4    -0.356423211724E+02   -0.22524E-06   -0.11356E-06    48   0.937E-03    0.116E-03
DAV:   5    -0.356423212468E+02   -0.74350E-07   -0.24272E-07    48   0.416E-03    0.500E-04
DAV:   6    -0.356423213328E+02   -0.85995E-07   -0.11930E-07    48   0.256E-03
  92 F= -.35642321E+02 E0= -.35642321E+02  d E =-.436595E-04
       N       E                     dE             d eps       ncg     rms          rms(c)
DAV:   1    -0.356423782236E+02   -0.56977E-04   -0.23878E-03    96   0.449E-01    0.124E-02
DAV:   2    -0.356423775246E+02    0.69901E-06   -0.24376E-05    64   0.427E-02    0.782E-03
DAV:   3    -0.356423785142E+02   -0.98956E-06   -0.50386E-06    64   0.211E-02    0.175E-03
DAV:   4    -0.356423786777E+02   -0.16355E-06   -0.11274E-06    48   0.921E-03    0.108E-03
DAV:   5    -0.356423787866E+02   -0.10889E-06   -0.28811E-07    48   0.434E-03    0.485E-04
DAV:   6    -0.356423789101E+02   -0.12343E-06   -0.13404E-07    48   0.270E-03
  93 F= -.35642379E+02 E0= -.35642379E+02  d E =-.575773E-04
       N       E                     dE             d eps       ncg     rms          rms(c)
DAV:   1    -0.356424624714E+02   -0.83685E-04   -0.37119E-03    96   0.569E-01    0.149E-02
DAV:   2    -0.356424622253E+02    0.24604E-06   -0.39154E-05    64   0.543E-02    0.917E-03
DAV:   3    -0.356424635358E+02   -0.13104E-05   -0.63761E-06    80   0.231E-02    0.220E-03
DAV:   4    -0.356424638455E+02   -0.30972E-06   -0.13993E-06    48   0.100E-02    0.930E-04
DAV:   5    -0.356424639903E+02   -0.14480E-06   -0.40740E-07    64   0.494E-03    0.367E-04
DAV:   6    -0.356424641203E+02   -0.12995E-06   -0.16256E-07    48   0.280E-03
  94 F= -.35642464E+02 E0= -.35642464E+02  d E =-.852102E-04
       N       E                     dE             d eps       ncg     rms          rms(c)
DAV:   1    -0.356425683758E+02   -0.10439E-03   -0.60781E-03    96   0.734E-01    0.183E-02
DAV:   2    -0.356425684056E+02   -0.29745E-07   -0.64219E-05    72   0.692E-02    0.114E-02
DAV:   3    -0.356425699815E+02   -0.15760E-05   -0.10100E-05    96   0.291E-02    0.316E-03
DAV:   4    -0.356425705467E+02   -0.56518E-06   -0.23298E-06    48   0.131E-02    0.117E-03
DAV:   5    -0.356425707288E+02   -0.18209E-06   -0.63612E-07    48   0.629E-03    0.457E-04
DAV:   6    -0.356425708869E+02   -0.15804E-06   -0.23948E-07    48   0.353E-03
  95 F= -.35642571E+02 E0= -.35642571E+02  d E =-.106767E-03
       N       E                     dE             d eps       ncg     rms          rms(c)
DAV:   1    -0.356427050092E+02   -0.13428E-03   -0.93833E-03    96   0.909E-01    0.210E-02
DAV:   2    -0.356427057799E+02   -0.77072E-06   -0.88977E-05    64   0.800E-02    0.136E-02
DAV:   3    -0.356427085422E+02   -0.27623E-05   -0.14551E-05    80   0.346E-02    0.259E-03
DAV:   4    -0.356427090256E+02   -0.48338E-06   -0.31017E-06    48   0.145E-02    0.147E-03
DAV:   5    -0.356427093183E+02   -0.29266E-06   -0.92696E-07    48   0.745E-03    0.598E-04
DAV:   6    -0.356427095642E+02   -0.24590E-06   -0.35936E-07    48   0.430E-03
  96 F= -.35642710E+02 E0= -.35642710E+02  d E =-.138677E-03
       N       E                     dE             d eps       ncg     rms          rms(c)
DAV:   1    -0.356428644724E+02   -0.15515E-03   -0.15511E-02    96   0.117E+00    0.260E-02
DAV:   2    -0.356428691293E+02   -0.46568E-05   -0.17426E-04   112   0.103E-01    0.183E-02
DAV:   3    -0.356428702707E+02   -0.11414E-05   -0.82890E-06    80   0.295E-02    0.482E-03
DAV:   4    -0.356428712627E+02   -0.99209E-06   -0.25536E-06    64   0.139E-02    0.189E-03
DAV:   5    -0.356428715555E+02   -0.29271E-06   -0.51178E-07    48   0.637E-03    0.825E-04
DAV:   6    -0.356428718726E+02   -0.31719E-06   -0.18536E-07    48   0.333E-03
  97 F= -.35642872E+02 E0= -.35642872E+02  d E =-.162308E-03
       N       E                     dE             d eps       ncg     rms          rms(c)
DAV:   1    -0.356430498718E+02   -0.17832E-03   -0.24557E-02    96   0.148E+00    0.313E-02
DAV:   2    -0.356430588110E+02   -0.89391E-05   -0.26736E-04   120   0.127E-01    0.220E-02
DAV:   3    -0.356430601528E+02   -0.13418E-05   -0.96838E-06    96   0.315E-02    0.634E-03
DAV:   4    -0.356430618170E+02   -0.16642E-05   -0.37870E-06    64   0.162E-02    0.198E-03
DAV:   5    -0.356430623341E+02   -0.51711E-06   -0.80348E-07    48   0.781E-03    0.560E-04
DAV:   6    -0.356430626051E+02   -0.27092E-06   -0.20701E-07    48   0.323E-03
  98 F= -.35643063E+02 E0= -.35643063E+02  d E =-.190732E-03
       N       E                     dE             d eps       ncg     rms          rms(c)
DAV:   1    -0.356432404438E+02   -0.17811E-03   -0.36821E-02    96   0.181E+00    0.369E-02
DAV:   2    -0.356432545248E+02   -0.14081E-04   -0.38567E-04   128   0.151E-01    0.264E-02
DAV:   3    -0.356432578180E+02   -0.32932E-05   -0.12723E-05    68   0.343E-02    0.605E-03
DAV:   4    -0.356432595183E+02   -0.17003E-05   -0.42723E-06    48   0.159E-02    0.212E-03
DAV:   5    -0.356432602876E+02   -0.76928E-06   -0.89191E-07    48   0.725E-03    0.536E-04
DAV:   6    -0.356432607255E+02   -0.43790E-06   -0.26336E-07    48   0.333E-03
  99 F= -.35643261E+02 E0= -.35643261E+02  d E =-.198120E-03
       N       E                     dE             d eps       ncg     rms          rms(c)
DAV:   1    -0.356434113642E+02   -0.15108E-03   -0.52687E-02    96   0.216E+00    0.445E-02
DAV:   2    -0.356434311441E+02   -0.19780E-04   -0.55936E-04   128   0.182E-01    0.317E-02
DAV:   3    -0.356434352050E+02   -0.40609E-05   -0.20577E-05    80   0.453E-02    0.792E-03
DAV:   4    -0.356434379419E+02   -0.27369E-05   -0.70586E-06    64   0.218E-02    0.286E-03
DAV:   5    -0.356434388882E+02   -0.94627E-06   -0.14685E-06    48   0.106E-02    0.816E-04
DAV:   6    -0.356434394138E+02   -0.52562E-06   -0.40686E-07    48   0.462E-03
 100 F= -.35643439E+02 E0= -.35643439E+02  d E =-.178688E-03
       N       E                     dE             d eps       ncg     rms          rms(c)
DAV:   1    -0.356435099638E+02   -0.71076E-04   -0.68854E-02    96   0.248E+00    0.549E-02
DAV:   2    -0.356435326386E+02   -0.22675E-04   -0.81390E-04   112   0.225E-01    0.390E-02
DAV:   3    -0.356435283989E+02    0.42397E-05   -0.39507E-05    96   0.652E-02    0.161E-02
DAV:   4    -0.356435362600E+02   -0.78611E-05   -0.20027E-05    64   0.417E-02    0.458E-03
DAV:   5    -0.356435372245E+02   -0.96448E-06   -0.40393E-06    92   0.197E-02    0.187E-03
DAV:   6    -0.356435382707E+02   -0.10461E-05   -0.10269E-06    60   0.849E-03
 101 F= -.35643538E+02 E0= -.35643538E+02  d E =-.988569E-04
       N       E                     dE             d eps       ncg     rms          rms(c)
DAV:   1    -0.356435945121E+02   -0.57288E-04   -0.13927E-03    96   0.355E-01    0.191E-02
DAV:   2    -0.356435915171E+02    0.29951E-05   -0.31502E-05    64   0.555E-02    0.872E-03
DAV:   3    -0.356435909535E+02    0.56357E-06   -0.89422E-06    96   0.300E-02    0.385E-03
DAV:   4    -0.356435917257E+02   -0.77222E-06   -0.41755E-06    64   0.193E-02    0.133E-03
DAV:   5    -0.356435921859E+02   -0.46016E-06   -0.80251E-07    84   0.865E-03    0.629E-04
DAV:   6    -0.356435925154E+02   -0.32949E-06   -0.15774E-07    48   0.380E-03
 102 F= -.35643593E+02 E0= -.35643593E+02  d E =-.542447E-04
       N       E                     dE             d eps       ncg     rms          rms(c)
DAV:   1    -0.356435741000E+02    0.18086E-04   -0.19433E-03    96   0.420E-01    0.222E-02
DAV:   2    -0.356435688660E+02    0.52340E-05   -0.44915E-05    80   0.656E-02    0.102E-02
DAV:   3    -0.356435673509E+02    0.15152E-05   -0.12588E-05    96   0.352E-02    0.443E-03
DAV:   4    -0.356435675540E+02   -0.20311E-06   -0.57590E-06    64   0.227E-02    0.153E-03
DAV:   5    -0.356435676582E+02   -0.10426E-06   -0.10781E-06    80   0.101E-02    0.763E-04
DAV:   6    -0.356435677410E+02   -0.82771E-07   -0.21260E-07    48   0.444E-03
 103 F= -.35643568E+02 E0= -.35643568E+02  d E =0.247744E-04
       N       E                     dE             d eps       ncg     rms          rms(c)
DAV:   1    -0.356435788551E+02   -0.11197E-04   -0.46123E-05    56   0.663E-02    0.317E-03
DAV:   2    -0.356435791426E+02   -0.28748E-06   -0.27736E-06    48   0.162E-02    0.157E-03
DAV:   3    -0.356435792424E+02   -0.99830E-07   -0.31493E-07    48   0.536E-03    0.101E-03
DAV:   4    -0.356435794550E+02   -0.21264E-06   -0.22673E-07    72   0.478E-03    0.313E-04
DAV:   5    -0.356435795321E+02   -0.77093E-07   -0.75522E-08    48   0.225E-03    0.239E-04
DAV:   6    -0.356435796160E+02   -0.83891E-07   -0.36856E-08    48   0.996E-04
 104 F= -.35643580E+02 E0= -.35643580E+02  d E =-.118750E-04
       N       E                     dE             d eps       ncg     rms          rms(c)
DAV:   1    -0.356435934512E+02   -0.13919E-04   -0.15030E-04    56   0.119E-01    0.564E-03
DAV:   2    -0.356435939649E+02   -0.51373E-06   -0.91365E-06    92   0.296E-02    0.288E-03
DAV:   3    -0.356435939276E+02    0.37346E-07   -0.10020E-06    64   0.979E-03    0.187E-03
DAV:   4    -0.356435939884E+02   -0.60810E-07   -0.72561E-07    92   0.900E-03    0.572E-04
DAV:   5    -0.356435940248E+02   -0.36418E-07   -0.19848E-07    48   0.431E-03    0.423E-04
DAV:   6    -0.356435940546E+02   -0.29758E-07   -0.54890E-08    48   0.181E-03
 105 F= -.35643594E+02 E0= -.35643594E+02  d E =-.144386E-04
       N       E                     dE             d eps       ncg     rms          rms(c)
DAV:   1    -0.356436017159E+02   -0.76911E-05   -0.24288E-04   112   0.148E-01    0.800E-03
DAV:   2    -0.356436009633E+02    0.75264E-06   -0.57554E-06    72   0.236E-02    0.370E-03
DAV:   3    -0.356436007654E+02    0.19789E-06   -0.17538E-06    96   0.131E-02    0.161E-03
DAV:   4    -0.356436007899E+02   -0.24465E-07   -0.76050E-07    56   0.816E-03    0.578E-04
DAV:   5    -0.356436008058E+02   -0.15884E-07   -0.17247E-07    48   0.365E-03    0.278E-04
DAV:   6    -0.356436008235E+02   -0.17753E-07   -0.50109E-08    48   0.155E-03
 106 F= -.35643601E+02 E0= -.35643601E+02  d E =-.676896E-05
       N       E                     dE             d eps       ncg     rms          rms(c)
DAV:   1    -0.356435973977E+02    0.34081E-05   -0.18450E-04    48   0.133E-01    0.589E-03
DAV:   2    -0.356435978832E+02   -0.48547E-06   -0.11276E-05    64   0.332E-02    0.317E-03
DAV:   3    -0.356435977567E+02    0.12643E-06   -0.12339E-06    48   0.108E-02    0.207E-03
DAV:   4    -0.356435977032E+02    0.53570E-07   -0.87062E-07    48   0.988E-03    0.626E-04
DAV:   5    -0.356435977156E+02   -0.12469E-07   -0.24042E-07    48   0.473E-03    0.493E-04
DAV:   6    -0.356435977277E+02   -0.12097E-07   -0.64655E-08    48   0.206E-03
 107 F= -.35643598E+02 E0= -.35643598E+02  d E =0.309580E-05
       N       E                     dE             d eps       ncg     rms          rms(c)
DAV:   1    -0.356435983206E+02   -0.60502E-06   -0.48941E-07    48   0.676E-03    0.240E-04
DAV:   2    -0.356435983458E+02   -0.25154E-07   -0.51383E-08    48   0.159E-03    0.140E-04
DAV:   3    -0.356435983710E+02   -0.25237E-07   -0.28470E-08    48   0.518E-04    0.936E-05
DAV:   4    -0.356435984288E+02   -0.57723E-07   -0.26615E-08    48   0.325E-04    0.237E-05
DAV:   5    -0.356435984553E+02   -0.26573E-07   -0.25665E-08    48   0.161E-04    0.184E-05
DAV:   6    -0.356435984982E+02   -0.42868E-07   -0.25637E-08    48   0.120E-04
 108 F= -.35643598E+02 E0= -.35643598E+02  d E =-.770481E-06
       N       E                     dE             d eps       ncg     rms          rms(c)
DAV:   1    -0.356435995616E+02   -0.11063E-05   -0.19588E-06    64   0.136E-02    0.604E-04
DAV:   2    -0.356435995780E+02   -0.16382E-07   -0.14221E-07    48   0.334E-03    0.319E-04
DAV:   3    -0.356435995893E+02   -0.11263E-07   -0.38118E-08    48   0.109E-03    0.207E-04
DAV:   4    -0.356435996125E+02   -0.23195E-07   -0.34663E-08    76   0.103E-03    0.648E-05
DAV:   5    -0.356435996190E+02   -0.64929E-08   -0.27781E-08    48   0.487E-04    0.532E-05
DAV:   6    -0.356435996249E+02   -0.59219E-08   -0.26019E-08    48   0.211E-04
 109 F= -.35643600E+02 E0= -.35643600E+02  d E =-.112668E-05
       N       E                     dE             d eps       ncg     rms          rms(c)
DAV:   1    -0.356436009536E+02   -0.13347E-05   -0.40381E-06    48   0.196E-02    0.868E-04
DAV:   2    -0.356436009575E+02   -0.39092E-08   -0.26959E-07    48   0.482E-03    0.462E-04
DAV:   3    -0.356436009547E+02    0.28176E-08   -0.52709E-08    48   0.159E-03    0.300E-04
DAV:   4    -0.356436009561E+02   -0.13579E-08   -0.45632E-08    48   0.150E-03    0.945E-05
DAV:   5    -0.356436009577E+02   -0.16296E-08   -0.31306E-08    48   0.711E-04    0.778E-05
DAV:   6    -0.356436009589E+02   -0.12087E-08   -0.27458E-08    48   0.308E-04
 110 F= -.35643601E+02 E0= -.35643601E+02  d E =-.133405E-05
       N       E                     dE             d eps       ncg     rms          rms(c)
DAV:   1    -0.356436023671E+02   -0.14094E-05   -0.63448E-06    48   0.246E-02    0.108E-03
DAV:   2    -0.356436023677E+02   -0.63073E-09   -0.41082E-07    48   0.606E-03    0.579E-04
DAV:   3    -0.356436023590E+02    0.87055E-08   -0.69108E-08    48   0.200E-03    0.377E-04
DAV:   4    -0.356436023535E+02    0.55163E-08   -0.57040E-08    48   0.187E-03    0.118E-04
DAV:   5    -0.356436023544E+02   -0.92746E-09   -0.34782E-08    48   0.886E-04    0.978E-05
DAV:   6    -0.356436023553E+02   -0.91541E-09   -0.28680E-08    48   0.388E-04
 111 F= -.35643602E+02 E0= -.35643602E+02  d E =-.139641E-05
       N       E                     dE             d eps       ncg     rms          rms(c)
DAV:   1    -0.356436036511E+02   -0.12967E-05   -0.83642E-06    48   0.283E-02    0.122E-03
DAV:   2    -0.356436036531E+02   -0.20042E-08   -0.53363E-07    48   0.697E-03    0.661E-04
DAV:   3    -0.356436036422E+02    0.10873E-07   -0.83214E-08    48   0.230E-03    0.433E-04
DAV:   4    -0.356436036353E+02    0.68726E-08   -0.65781E-08    48   0.211E-03    0.132E-04
DAV:   5    -0.356436036366E+02   -0.12503E-08   -0.37507E-08    48   0.997E-04    0.112E-04
DAV:   6    -0.356436036383E+02   -0.16753E-08   -0.29594E-08    48   0.445E-04
 112 F= -.35643604E+02 E0= -.35643604E+02  d E =-.128293E-05
       N       E                     dE             d eps       ncg     rms          rms(c)
DAV:   1    -0.356436046828E+02   -0.10462E-05   -0.95639E-06    48   0.304E-02    0.126E-03
DAV:   2    -0.356436046868E+02   -0.39397E-08   -0.60427E-07    48   0.746E-03    0.699E-04
DAV:   3    -0.356436046756E+02    0.11194E-07   -0.91477E-08    48   0.246E-03    0.460E-04
DAV:   4    -0.356436046691E+02    0.65031E-08   -0.68997E-08    48   0.218E-03    0.137E-04
DAV:   5    -0.356436046710E+02   -0.19290E-08   -0.38668E-08    48   0.103E-03    0.117E-04
DAV:   6    -0.356436046736E+02   -0.25966E-08   -0.30110E-08    48   0.469E-04
 113 F= -.35643605E+02 E0= -.35643605E+02  d E =-.103532E-05
       N       E                     dE             d eps       ncg     rms          rms(c)
DAV:   1    -0.356436054973E+02   -0.82636E-06   -0.11863E-05    48   0.340E-02    0.133E-03
DAV:   2    -0.356436055070E+02   -0.96561E-08   -0.73231E-07    48   0.830E-03    0.757E-04
DAV:   3    -0.356436054955E+02    0.11495E-07   -0.10576E-07    48   0.272E-03    0.503E-04
DAV:   4    -0.356436054893E+02    0.62132E-08   -0.74547E-08    48   0.232E-03    0.145E-04
DAV:   5    -0.356436054918E+02   -0.25020E-08   -0.40358E-08    48   0.109E-03    0.126E-04
DAV:   6    -0.356436054949E+02   -0.30720E-08   -0.30521E-08    48   0.501E-04
 114 F= -.35643605E+02 E0= -.35643605E+02  d E =-.821287E-06
       N       E                     dE             d eps       ncg     rms          rms(c)
DAV:   1    -0.356436061351E+02   -0.64327E-06   -0.13545E-05    48   0.365E-02    0.128E-03
DAV:   2    -0.356436061527E+02   -0.17617E-07   -0.79931E-07    48   0.880E-03    0.762E-04
DAV:   3    -0.356436061437E+02    0.90181E-08   -0.11323E-07    48   0.285E-03    0.508E-04
DAV:   4    -0.356436061392E+02    0.44672E-08   -0.74785E-08    48   0.233E-03    0.143E-04
DAV:   5    -0.356436061421E+02   -0.29265E-08   -0.40528E-08    48   0.108E-03    0.126E-04
DAV:   6    -0.356436061456E+02   -0.34563E-08   -0.30457E-08    48   0.490E-04
 115 F= -.35643606E+02 E0= -.35643606E+02  d E =-.650713E-06
       N       E                     dE             d eps       ncg     rms          rms(c)
DAV:   1    -0.356436068521E+02   -0.70993E-06   -0.15459E-05    48   0.389E-02    0.113E-03
DAV:   2    -0.356436068821E+02   -0.30054E-07   -0.82830E-07    48   0.914E-03    0.716E-04
DAV:   3    -0.356436068786E+02    0.34734E-08   -0.11701E-07    48   0.289E-03    0.469E-04
DAV:   4    -0.356436068782E+02    0.46657E-09   -0.67403E-08    48   0.210E-03    0.125E-04
DAV:   5    -0.356436068820E+02   -0.38604E-08   -0.38624E-08    48   0.964E-04    0.114E-04
DAV:   6    -0.356436068852E+02   -0.31350E-08   -0.29792E-08    48   0.434E-04
 116 F= -.35643607E+02 E0= -.35643607E+02  d E =-.739582E-06
       N       E                     dE             d eps       ncg     rms          rms(c)
DAV:   1    -0.356436081011E+02   -0.12191E-05   -0.19940E-05    48   0.435E-02    0.103E-03
DAV:   2    -0.356436081542E+02   -0.53050E-07   -0.92924E-07    48   0.993E-03    0.661E-04
DAV:   3    -0.356436081605E+02   -0.63528E-08   -0.13050E-07    48   0.302E-03    0.386E-04
DAV:   4    -0.356436081654E+02   -0.48228E-08   -0.56670E-08    48   0.162E-03    0.965E-05
DAV:   5    -0.356436081697E+02   -0.43783E-08   -0.35699E-08    48   0.764E-04    0.868E-05
DAV:   6    -0.356436081735E+02   -0.37076E-08   -0.29229E-08    48   0.395E-04
 117 F= -.35643608E+02 E0= -.35643608E+02  d E =-.128829E-05
       N       E                     dE             d eps       ncg     rms          rms(c)
DAV:   1    -0.356436103745E+02   -0.22048E-05   -0.32142E-05    48   0.546E-02    0.122E-03
DAV:   2    -0.356436104770E+02   -0.10249E-06   -0.13803E-06    48   0.124E-02    0.731E-04
DAV:   3    -0.356436104985E+02   -0.21495E-07   -0.18164E-07    48   0.365E-03    0.336E-04
DAV:   4    -0.356436105055E+02   -0.69483E-08   -0.63657E-08    48   0.163E-03    0.801E-05
DAV:   5    -0.356436105091E+02   -0.35982E-08   -0.37577E-08    48   0.794E-04    0.599E-05
DAV:   6    -0.356436105117E+02   -0.26450E-08   -0.29952E-08    48   0.459E-04
 118 F= -.35643611E+02 E0= -.35643611E+02  d E =-.233827E-05
       N       E                     dE             d eps       ncg     rms          rms(c)
DAV:   1    -0.356436138908E+02   -0.33817E-05   -0.60142E-05    48   0.750E-02    0.166E-03
DAV:   2    -0.356436140965E+02   -0.20578E-06   -0.26261E-06    48   0.171E-02    0.102E-03
DAV:   3    -0.356436141332E+02   -0.36651E-07   -0.31892E-07    48   0.508E-03    0.523E-04
DAV:   4    -0.356436141431E+02   -0.98721E-08   -0.10119E-07    48   0.242E-03    0.127E-04
DAV:   5    -0.356436141459E+02   -0.28538E-08   -0.48076E-08    48   0.115E-03    0.118E-04
DAV:   6    -0.356436141474E+02   -0.14456E-08   -0.32379E-08    48   0.648E-04
 119 F= -.35643614E+02 E0= -.35643614E+02  d E =-.363564E-05
       N       E                     dE             d eps       ncg     rms          rms(c)
DAV:   1    -0.356436183294E+02   -0.41835E-05   -0.11339E-04    64   0.103E-01    0.232E-03
DAV:   2    -0.356436187206E+02   -0.39118E-06   -0.50772E-06    48   0.238E-02    0.146E-03
DAV:   3    -0.356436187758E+02   -0.55280E-07   -0.58837E-07    48   0.710E-03    0.830E-04
DAV:   4    -0.356436187924E+02   -0.16523E-07   -0.18270E-07    48   0.367E-03    0.201E-04
DAV:   5    -0.356436187968E+02   -0.44338E-08   -0.72053E-08    48   0.173E-03    0.202E-04
DAV:   6    -0.356436187988E+02   -0.20244E-08   -0.37476E-08    48   0.906E-04
 120 F= -.35643619E+02 E0= -.35643619E+02  d E =-.465146E-05
       N       E                     dE             d eps       ncg     rms          rms(c)
DAV:   1    -0.356436237579E+02   -0.49611E-05   -0.20842E-04    96   0.138E-01    0.323E-03
DAV:   2    -0.356436237713E+02   -0.13384E-07   -0.25428E-06    64   0.140E-02    0.205E-03
DAV:   3    -0.356436237839E+02   -0.12673E-07   -0.42959E-07    48   0.600E-03    0.854E-04
DAV:   4    -0.356436238073E+02   -0.23311E-07   -0.15930E-07    48   0.331E-03    0.304E-04
DAV:   5    -0.356436238121E+02   -0.48011E-08   -0.54100E-08    48   0.159E-03    0.124E-04
DAV:   6    -0.356436238204E+02   -0.83189E-08   -0.33617E-08    48   0.811E-04
 121 F= -.35643624E+02 E0= -.35643624E+02  d E =-.502155E-05
       N       E                     dE             d eps       ncg     rms          rms(c)
DAV:   1    -0.356436288776E+02   -0.50656E-05   -0.34814E-04    96   0.177E-01    0.389E-03
DAV:   2    -0.356436289438E+02   -0.66199E-07   -0.38235E-06    64   0.170E-02    0.251E-03
DAV:   3    -0.356436289942E+02   -0.50342E-07   -0.60303E-07    48   0.708E-03    0.882E-04
DAV:   4    -0.356436290282E+02   -0.33984E-07   -0.18325E-07    48   0.349E-03    0.316E-04
DAV:   5    -0.356436290386E+02   -0.10390E-07   -0.62640E-08    48   0.171E-03    0.123E-04
DAV:   6    -0.356436290516E+02   -0.13076E-07   -0.36796E-08    48   0.921E-04
 122 F= -.35643629E+02 E0= -.35643629E+02  d E =-.523126E-05
       N       E                     dE             d eps       ncg     rms          rms(c)
DAV:   1    -0.356436349263E+02   -0.58877E-05   -0.58178E-04    96   0.228E-01    0.477E-03
DAV:   2    -0.356436350938E+02   -0.16753E-06   -0.59419E-06    48   0.211E-02    0.314E-03
DAV:   3    -0.356436352135E+02   -0.11970E-06   -0.86592E-07    48   0.835E-03    0.835E-04
DAV:   4    -0.356436352538E+02   -0.40290E-07   -0.21584E-07    48   0.368E-03    0.303E-04
DAV:   5    -0.356436352725E+02   -0.18728E-07   -0.78205E-08    48   0.185E-03    0.117E-04
DAV:   6    -0.356436352912E+02   -0.18670E-07   -0.42379E-08    48   0.104E-03
 123 F= -.35643635E+02 E0= -.35643635E+02  d E =-.623955E-05
       N       E                     dE             d eps       ncg     rms          rms(c)
DAV:   1    -0.356436423688E+02   -0.70963E-05   -0.10041E-03    96   0.299E-01    0.625E-03
DAV:   2    -0.356436426808E+02   -0.31199E-06   -0.10389E-05    64   0.278E-02    0.416E-03
DAV:   3    -0.356436428553E+02   -0.17456E-06   -0.14712E-06    48   0.110E-02    0.119E-03
DAV:   4    -0.356436429231E+02   -0.67789E-07   -0.35826E-07    48   0.488E-03    0.432E-04
DAV:   5    -0.356436429549E+02   -0.31758E-07   -0.11775E-07    48   0.243E-03    0.171E-04
DAV:   6    -0.356436429817E+02   -0.26829E-07   -0.54794E-08    48   0.133E-03
 124 F= -.35643643E+02 E0= -.35643643E+02  d E =-.769051E-05
       N       E                     dE             d eps       ncg     rms          rms(c)
DAV:   1    -0.356436494556E+02   -0.65008E-05   -0.16653E-03    96   0.385E-01    0.808E-03
DAV:   2    -0.356436499922E+02   -0.53654E-06   -0.17583E-05    64   0.363E-02    0.541E-03
DAV:   3    -0.356436502393E+02   -0.24718E-06   -0.24844E-06    56   0.145E-02    0.170E-03
DAV:   4    -0.356436503601E+02   -0.12074E-06   -0.62745E-07    48   0.663E-03    0.607E-04
DAV:   5    -0.356436504076E+02   -0.47495E-07   -0.18752E-07    48   0.326E-03    0.251E-04
DAV:   6    -0.356436504488E+02   -0.41192E-07   -0.77974E-08    48   0.177E-03
 125 F= -.35643650E+02 E0= -.35643650E+02  d E =-.746707E-05
       N       E                     dE             d eps       ncg     rms          rms(c)
DAV:   1    -0.356436555416E+02   -0.51340E-05   -0.25966E-03    96   0.480E-01    0.992E-03
DAV:   2    -0.356436565185E+02   -0.97693E-06   -0.26782E-05    64   0.447E-02    0.661E-03
DAV:   3    -0.356436569889E+02   -0.47041E-06   -0.36720E-06    48   0.175E-02    0.186E-03
DAV:   4    -0.356436571582E+02   -0.16928E-06   -0.86929E-07    48   0.772E-03    0.640E-04
DAV:   5    -0.356436572280E+02   -0.69773E-07   -0.26881E-07    48   0.387E-03    0.241E-04
DAV:   6    -0.356436572837E+02   -0.55705E-07   -0.10735E-07    48   0.211E-03
 126 F= -.35643657E+02 E0= -.35643657E+02  d E =-.683489E-05
       N       E                     dE             d eps       ncg     rms          rms(c)
DAV:   1    -0.356436619141E+02   -0.46862E-05   -0.38777E-03    96   0.587E-01    0.121E-02
DAV:   2    -0.356436634845E+02   -0.15703E-05   -0.39979E-05    64   0.547E-02    0.804E-03
DAV:   3    -0.356436642149E+02   -0.73048E-06   -0.54415E-06    64   0.213E-02    0.226E-03
DAV:   4    -0.356436644712E+02   -0.25629E-06   -0.12870E-06    48   0.944E-03    0.739E-04
DAV:   5    -0.356436645666E+02   -0.95310E-07   -0.39039E-07    48   0.474E-03    0.250E-04
DAV:   6    -0.356436646353E+02   -0.68729E-07   -0.14888E-07    48   0.258E-03
 127 F= -.35643665E+02 E0= -.35643665E+02  d E =-.735162E-05
       N       E                     dE             d eps       ncg     rms          rms(c)
DAV:   1    -0.356436644098E+02    0.15671E-06   -0.54967E-03    96   0.700E-01    0.146E-02
DAV:   2    -0.356436666008E+02   -0.21910E-05   -0.57360E-05    64   0.657E-02    0.968E-03
DAV:   3    -0.356436675791E+02   -0.97832E-06   -0.78781E-06    64   0.259E-02    0.290E-03
DAV:   4    -0.356436679682E+02   -0.38908E-06   -0.19189E-06    48   0.117E-02    0.974E-04
DAV:   5    -0.356436681034E+02   -0.13521E-06   -0.55893E-07    48   0.582E-03    0.325E-04
DAV:   6    -0.356436682095E+02   -0.10610E-06   -0.20544E-07    48   0.313E-03
 128 F= -.35643668E+02 E0= -.35643668E+02  d E =-.357423E-05
       N       E                     dE             d eps       ncg     rms          rms(c)
DAV:   1    -0.356436627785E+02    0.53249E-05   -0.69513E-03    96   0.789E-01    0.164E-02
DAV:   2    -0.356436654875E+02   -0.27090E-05   -0.72031E-05    68   0.736E-02    0.109E-02
DAV:   3    -0.356436669163E+02   -0.14288E-05   -0.98900E-06    64   0.289E-02    0.304E-03
DAV:   4    -0.356436674000E+02   -0.48366E-06   -0.23364E-06    48   0.128E-02    0.109E-03
DAV:   5    -0.356436675945E+02   -0.19445E-06   -0.70278E-07    48   0.650E-03    0.383E-04
DAV:   6    -0.356436677395E+02   -0.14507E-06   -0.25723E-07    48   0.355E-03
 129 F= -.35643668E+02 E0= -.35643668E+02  d E =0.469982E-06
       N       E                     dE             d eps       ncg     rms          rms(c)
DAV:   1    -0.356436550976E+02    0.12497E-04   -0.79666E-03    96   0.845E-01    0.182E-02
DAV:   2    -0.356436579131E+02   -0.28155E-05   -0.83091E-05    80   0.797E-02    0.119E-02
DAV:   3    -0.356436597557E+02   -0.18426E-05   -0.11982E-05    64   0.316E-02    0.331E-03
DAV:   4    -0.356436602906E+02   -0.53494E-06   -0.27676E-06    48   0.141E-02    0.134E-03
DAV:   5    -0.356436604926E+02   -0.20201E-06   -0.82308E-07    48   0.714E-03    0.524E-04
DAV:   6    -0.356436606629E+02   -0.17030E-06   -0.30471E-07    48   0.396E-03
 130 F= -.35643661E+02 E0= -.35643661E+02  d E =0.707662E-05
       N       E                     dE             d eps       ncg     rms          rms(c)
DAV:   1    -0.356436611220E+02   -0.62938E-06   -0.18439E-06    48   0.132E-02    0.452E-04
DAV:   2    -0.356436612155E+02   -0.93545E-07   -0.15593E-07    48   0.353E-03    0.298E-04
DAV:   3    -0.356436612920E+02   -0.76490E-07   -0.42375E-08    48   0.134E-03    0.213E-04
DAV:   4    -0.356436614336E+02   -0.14154E-06   -0.31908E-08    48   0.103E-03    0.657E-05
DAV:   5    -0.356436614795E+02   -0.45944E-07   -0.23354E-08    48   0.541E-04    0.513E-05
DAV:   6    -0.356436615314E+02   -0.51904E-07   -0.20812E-08    48   0.288E-04
 131 F= -.35643662E+02 E0= -.35643662E+02  d E =-.868498E-06
       N       E                     dE             d eps       ncg     rms          rms(c)
DAV:   1    -0.356436619948E+02   -0.51533E-06   -0.52933E-06    48   0.226E-02    0.739E-04
DAV:   2    -0.356436620529E+02   -0.58086E-07   -0.29530E-07    48   0.533E-03    0.464E-04
DAV:   3    -0.356436620857E+02   -0.32806E-07   -0.49909E-08    48   0.170E-03    0.307E-04
DAV:   4    -0.356436621453E+02   -0.59594E-07   -0.40271E-08    60   0.142E-03    0.999E-05
DAV:   5    -0.356436621610E+02   -0.15672E-07   -0.26278E-08    48   0.667E-04    0.784E-05
DAV:   6    -0.356436621815E+02   -0.20502E-07   -0.23360E-08    48   0.302E-04
 132 F= -.35643662E+02 E0= -.35643662E+02  d E =-.650089E-06
       N       E                     dE             d eps       ncg     rms          rms(c)
DAV:   1    -0.356436625135E+02   -0.35247E-06   -0.73777E-06    48   0.268E-02    0.730E-04
DAV:   2    -0.356436625568E+02   -0.43343E-07   -0.37928E-07    48   0.617E-03    0.491E-04
DAV:   3    -0.356436625692E+02   -0.12349E-07   -0.61897E-08    48   0.193E-03    0.331E-04
DAV:   4    -0.356436625881E+02   -0.18947E-07   -0.43387E-08    48   0.142E-03    0.103E-04
DAV:   5    -0.356436625936E+02   -0.55461E-08   -0.28857E-08    48   0.659E-04    0.859E-05
DAV:   6    -0.356436626001E+02   -0.64474E-08   -0.25295E-08    48   0.299E-04
 133 F= -.35643663E+02 E0= -.35643663E+02  d E =-.418604E-06
       N       E                     dE             d eps       ncg     rms          rms(c)
DAV:   1    -0.356436629234E+02   -0.32980E-06   -0.69753E-06    48   0.259E-02    0.536E-04
DAV:   2    -0.356436629559E+02   -0.32405E-07   -0.32001E-07    48   0.575E-03    0.358E-04
DAV:   3    -0.356436629622E+02   -0.63794E-08   -0.58778E-08    48   0.175E-03    0.238E-04
DAV:   4    -0.356436629683E+02   -0.60204E-08   -0.34729E-08    48   0.869E-04    0.106E-04
DAV:   5    -0.356436629720E+02   -0.37037E-08   -0.28362E-08    48   0.423E-04    0.500E-05
DAV:   6    -0.356436629749E+02   -0.28940E-08   -0.26597E-08    48   0.213E-04
 134 F= -.35643663E+02 E0= -.35643663E+02  d E =-.374757E-06
       N       E                     dE             d eps       ncg     rms          rms(c)
DAV:   1    -0.356436630062E+02   -0.34253E-07   -0.75332E-08    48   0.217E-03    0.875E-05
DAV:   2    -0.356436630070E+02   -0.83060E-09   -0.29248E-08    48   0.534E-04    0.471E-05
DAV:   3    -0.356436630078E+02   -0.79331E-09   -0.26654E-08    48   0.178E-04    0.309E-05
DAV:   4    -0.356436630099E+02   -0.20774E-08   -0.26647E-08    48   0.153E-04    0.834E-06
DAV:   5    -0.356436630104E+02   -0.48681E-09   -0.26563E-08    48   0.724E-05    0.777E-06
DAV:   6    -0.356436630109E+02   -0.54001E-09   -0.26572E-08    48   0.319E-05
 135 F= -.35643663E+02 E0= -.35643663E+02  d E =-.360869E-07
