 vasp.5.4.1 24Jun15 (build Jan 13 2020 12:58:22) complex                        
  
 executed on           IFC91_ompi date 2020.02.03  09:53:44
 running on   15 total cores
 each image running on    1 cores
 distrk:  each k-point on    1 cores,    1 groups
 distr:  one band on NCORES_PER_BAND=   1 cores,    1 groups


--------------------------------------------------------------------------------------------------------


 INCAR:
 POTCAR:    PAW_PBE H 15Jun2001                   
 POTCAR:    PAW_PBE C 08Apr2002                   
 POTCAR:    PAW_PBE N 08Apr2002                   
 POTCAR:    PAW_PBE H 15Jun2001                   
   VRHFIN =H: ultrasoft test                                                    
   LEXCH  = PE                                                                  
   EATOM  =    12.4884 eV,    0.9179 Ry                                         
                                                                                
   TITEL  = PAW_PBE H 15Jun2001                                                 
   LULTRA =        F    use ultrasoft PP ?                                      
   IUNSCR =        0    unscreen: 0-lin 1-nonlin 2-no                           
   RPACOR =    0.000    partial core radius                                     
   POMASS =    1.000; ZVAL   =    1.000    mass and valenz                      
   RCORE  =    1.100    outmost cutoff radius                                   
   RWIGS  =    0.700; RWIGS  =    0.370    wigner-seitz radius (au A)           
   ENMAX  =  250.000; ENMIN  =  200.000 eV                                      
   RCLOC  =    0.701    cutoff for local pot                                    
   LCOR   =        T    correct aug charges                                     
   LPAW   =        T    paw PP                                                  
   EAUG   =  400.000                                                            
   RMAX   =    1.123    core radius for proj-oper                               
   RAUG   =    1.200    factor for augmentation sphere                          
   RDEP   =    1.112    radius for radial grids                                 
   RDEPT  =    0.926    core radius for aug-charge                              
                                                                                
   Atomic configuration                                                         
    2 entries                                                                   
     n  l   j            E        occ.                                          
     1  0  0.50        -6.4927   1.0000                                         
     2  1  0.50        -3.4015   0.0000                                         
   Description                                                                  
     l       E           TYP  RCUT    TYP  RCUT                                 
     0     -6.4927494     23  1.100                                             
     0      6.8029130     23  1.100                                             
     1     -4.0817478     23  1.100                                             
  local pseudopotential read in
  atomic valenz-charges read in
  non local Contribution for L=           0  read in
    real space projection operators read in
  non local Contribution for L=           0  read in
    real space projection operators read in
  non local Contribution for L=           1  read in
    real space projection operators read in
    PAW grid and wavefunctions read in
 
   number of l-projection  operators is LMAX  =           3
   number of lm-projection operators is LMMAX =           5
 
 POTCAR:    PAW_PBE C 08Apr2002                   
   VRHFIN =C: s2p2                                                              
   LEXCH  = PE                                                                  
   EATOM  =   147.1560 eV,   10.8157 Ry                                         
                                                                                
   TITEL  = PAW_PBE C 08Apr2002                                                 
   LULTRA =        F    use ultrasoft PP ?                                      
   IUNSCR =        1    unscreen: 0-lin 1-nonlin 2-no                           
   RPACOR =    1.200    partial core radius                                     
   POMASS =   12.011; ZVAL   =    4.000    mass and valenz                      
   RCORE  =    1.500    outmost cutoff radius                                   
   RWIGS  =    1.630; RWIGS  =    0.863    wigner-seitz radius (au A)           
   ENMAX  =  400.000; ENMIN  =  300.000 eV                                      
   ICORE  =        2    local potential                                         
   LCOR   =        T    correct aug charges                                     
   LPAW   =        T    paw PP                                                  
   EAUG   =  644.873                                                            
   DEXC   =    0.000                                                            
   RMAX   =    1.529    core radius for proj-oper                               
   RAUG   =    1.300    factor for augmentation sphere                          
   RDEP   =    1.501    radius for radial grids                                 
   RDEPT  =    1.300    core radius for aug-charge                              
                                                                                
   Atomic configuration                                                         
    4 entries                                                                   
     n  l   j            E        occ.                                          
     1  0  0.50      -273.3789   2.0000                                         
     2  0  0.50       -13.7508   2.0000                                         
     2  1  0.50        -5.2854   2.0000                                         
     3  2  1.50        -5.4423   0.0000                                         
   Description                                                                  
     l       E           TYP  RCUT    TYP  RCUT                                 
     0    -13.7508458     23  1.200                                             
     0     -8.2022199     23  1.200                                             
     1     -5.2854383     23  1.500                                             
     1     34.0145650     23  1.500                                             
     2     -5.4423304      7  1.500                                             
  local pseudopotential read in
  partial core-charges read in
  partial kinetic energy density read in
  atomic valenz-charges read in
  non local Contribution for L=           0  read in
    real space projection operators read in
  non local Contribution for L=           0  read in
    real space projection operators read in
  non local Contribution for L=           1  read in
    real space projection operators read in
  non local Contribution for L=           1  read in
    real space projection operators read in
    PAW grid and wavefunctions read in
 
   number of l-projection  operators is LMAX  =           4
   number of lm-projection operators is LMMAX =           8
 
 POTCAR:    PAW_PBE N 08Apr2002                   
   VRHFIN =N: s2p3                                                              
   LEXCH  = PE                                                                  
   EATOM  =   264.5486 eV,   19.4438 Ry                                         
                                                                                
   TITEL  = PAW_PBE N 08Apr2002                                                 
   LULTRA =        F    use ultrasoft PP ?                                      
   IUNSCR =        1    unscreen: 0-lin 1-nonlin 2-no                           
   RPACOR =    1.200    partial core radius                                     
   POMASS =   14.001; ZVAL   =    5.000    mass and valenz                      
   RCORE  =    1.500    outmost cutoff radius                                   
   RWIGS  =    1.400; RWIGS  =    0.741    wigner-seitz radius (au A)           
   ENMAX  =  400.000; ENMIN  =  300.000 eV                                      
   ICORE  =        2    local potential                                         
   LCOR   =        T    correct aug charges                                     
   LPAW   =        T    paw PP                                                  
   EAUG   =  627.112                                                            
   DEXC   =    0.000                                                            
   RMAX   =    1.529    core radius for proj-oper                               
   RAUG   =    1.300    factor for augmentation sphere                          
   RDEP   =    1.514    radius for radial grids                                 
   RDEPT  =    1.338    core radius for aug-charge                              
                                                                                
   Atomic configuration                                                         
    4 entries                                                                   
     n  l   j            E        occ.                                          
     1  0  0.50      -384.7179   2.0000                                         
     2  0  0.50       -18.5828   2.0000                                         
     2  1  0.50        -7.0898   3.0000                                         
     3  2  1.50        -6.8029   0.0000                                         
   Description                                                                  
     l       E           TYP  RCUT    TYP  RCUT                                 
     0    -18.5828119     23  1.200                                             
     0    -13.5018863     23  1.200                                             
     1     -7.0897853     23  1.500                                             
     1      9.5240782     23  1.500                                             
     2     -6.8029130      7  1.500                                             
  local pseudopotential read in
  partial core-charges read in
  partial kinetic energy density read in
  atomic valenz-charges read in
  non local Contribution for L=           0  read in
    real space projection operators read in
  non local Contribution for L=           0  read in
    real space projection operators read in
  non local Contribution for L=           1  read in
    real space projection operators read in
  non local Contribution for L=           1  read in
    real space projection operators read in
    PAW grid and wavefunctions read in
 
   number of l-projection  operators is LMAX  =           4
   number of lm-projection operators is LMMAX =           8
 

 ----------------------------------------------------------------------------- 
|                                                                             |
|  ADVICE TO THIS USER RUNNING 'VASP/VAMP'   (HEAR YOUR MASTER'S VOICE ...):  |
|                                                                             |
|      You have a (more or less) 'small supercell' and for smaller cells      |
|      it is recommended  to use the reciprocal-space projection scheme!      |
|      The real space optimization is not  efficient for small cells and it   |
|      is also less accurate ...                                              |
|      Therefore set LREAL=.FALSE. in the  INCAR file                         |
|                                                                             |
 ----------------------------------------------------------------------------- 

 Optimization of the real space projectors (new method)

 maximal supplied QI-value         = 34.20
 optimisation between [QCUT,QGAM] = [  9.92, 20.18] = [ 27.55,114.04] Ry 
 Optimized for a Real-space Cutoff    1.26 Angstroem

   l    n(q)    QCUT    max X(q) W(low)/X(q) W(high)/X(q)  e(spline) 
   0      8     9.919    19.460    0.50E-03    0.23E-03    0.29E-06
   0      8     9.919    12.209    0.48E-03    0.23E-03    0.28E-06
   1      7     9.919     4.655    0.17E-03    0.75E-03    0.30E-06
 Optimization of the real space projectors (new method)

 maximal supplied QI-value         = 25.13
 optimisation between [QCUT,QGAM] = [ 10.05, 20.36] = [ 28.30,116.06] Ry 
 Optimized for a Real-space Cutoff    1.30 Angstroem

   l    n(q)    QCUT    max X(q) W(low)/X(q) W(high)/X(q)  e(spline) 
   0      8    10.053   115.676    0.49E-03    0.72E-03    0.18E-06
   0      8    10.053    87.132    0.49E-03    0.71E-03    0.18E-06
   1      7    10.053     4.429    0.32E-03    0.31E-03    0.18E-06
   1      7    10.053     2.733    0.23E-03    0.19E-03    0.20E-06
 Optimization of the real space projectors (new method)

 maximal supplied QI-value         = 25.13
 optimisation between [QCUT,QGAM] = [ 10.05, 20.36] = [ 28.30,116.06] Ry 
 Optimized for a Real-space Cutoff    1.65 Angstroem

   l    n(q)    QCUT    max X(q) W(low)/X(q) W(high)/X(q)  e(spline) 
   0     10    10.053    79.467    0.76E-04    0.72E-04    0.56E-06
   0     10    10.053    66.151    0.76E-04    0.72E-04    0.55E-06
   1     10    10.053     8.350    0.25E-03    0.92E-03    0.41E-05
   1     10    10.053     5.531    0.27E-03    0.10E-02    0.45E-05
  PAW_PBE H 15Jun2001                   :
 energy of atom  1       EATOM=  -12.4884
 kinetic energy error for atom=    0.0098 (will be added to EATOM!!)
  PAW_PBE C 08Apr2002                   :
 energy of atom  2       EATOM= -147.1560
 kinetic energy error for atom=    0.0288 (will be added to EATOM!!)
  PAW_PBE N 08Apr2002                   :
 energy of atom  3       EATOM= -264.5486
 kinetic energy error for atom=    0.0736 (will be added to EATOM!!)
 
 
 POSCAR: H3 C2 N1                                
  positions in direct lattice
  velocities in cartesian coordinates
 exchange correlation table for  LEXCH =        8
   RHO(1)=    0.500       N(1)  =     2000
   RHO(2)=  100.500       N(2)  =     4000

 VTST: version 3.2, (02/03/18)

 CHAIN: initializing optimizer
 
 OPT: Using FIRE optimizer
 OPT: FIRE, Init
 OPT: FIRE, MAXMOVE       0.20000
 OPT: FIRE, TIMESTEP      0.10000
 OPT: FIRE, FTIMEMAX      1.00000
 OPT: FIRE, FTIMEINC      1.10000
 OPT: FIRE, FTIMEDEC      0.50000
 OPT: FIRE, FALPHADEC     0.99000
 OPT: FIRE, FALPHA        0.10000
 OPT: FIRE, FNMIN         5
 
 CHAIN: Read ICHAIN            0
 CHAIN: Running the NEB
 NEB:          SPRING     -5.000000
 NEB:          LCLIMB      T
 NEB:     LTANGENTOLD      F
 NEB:           LDNEB      F
 NEB:        LDNEBORG      F
 NEB:        LNEBCELL      F
 NEB:          EFIRST      0.000000
 NEB:           ELAST      0.000000
 
 POSCAR: H3 C2 N1                                
  positions in direct lattice
  No initial velocities read in
 
 POSCAR: H3 C2 N1                                
  positions in direct lattice
  No initial velocities read in
 


--------------------------------------------------------------------------------------------------------


 ion  position               nearest neighbor table
   1  0.473  0.465  0.504-   4 1.10
   2  0.464  0.519  0.481-   4 1.10
   3  0.480  0.513  0.538-   4 1.10
   4  0.485  0.499  0.504-   1 1.10   2 1.10   3 1.10   6 1.42
   5  0.568  0.503  0.481-   6 1.18
   6  0.530  0.501  0.491-   5 1.18   4 1.42
 
  LATTYP: Found a simple cubic cell.
 ALAT       =    30.0000000000
  
  Lattice vectors:
  
 A1 = (  30.0000000000,   0.0000000000,   0.0000000000)
 A2 = (   0.0000000000,  30.0000000000,   0.0000000000)
 A3 = (   0.0000000000,   0.0000000000,  30.0000000000)


Analysis of symmetry for initial positions (statically):
=====================================================================
 Subroutine PRICEL returns:
 Original cell was already a primitive cell.
 

 Routine SETGRP: Setting up the symmetry group for a 
 simple cubic supercell.


 Subroutine GETGRP returns: Found  1 space group operations
 (whereof  1 operations were pure point group operations)
 out of a pool of 48 trial point group operations.


The static configuration has the point symmetry C_1 .


Analysis of symmetry for dynamics (positions and initial velocities):
=====================================================================
 Subroutine PRICEL returns:
 Original cell was already a primitive cell.
 

 Routine SETGRP: Setting up the symmetry group for a 
 simple cubic supercell.


 Subroutine GETGRP returns: Found  1 space group operations
 (whereof  1 operations were pure point group operations)
 out of a pool of 48 trial point group operations.


The dynamic configuration has the point symmetry C_1 .
 
 
 KPOINTS: Mo2C                                    

Automatic generation of k-mesh.
Space group operators:
 irot       det(A)        alpha          n_x          n_y          n_z        tau_x        tau_y        tau_z
    1     1.000000     0.000000     1.000000     0.000000     0.000000     0.000000     0.000000     0.000000
 
 Subroutine IBZKPT returns following result:
 ===========================================
 
 Found      4 irreducible k-points:
 
 Following reciprocal coordinates:
            Coordinates               Weight
  0.250000  0.250000  0.250000      2.000000
 -0.250000  0.250000  0.250000      2.000000
  0.250000 -0.250000  0.250000      2.000000
 -0.250000 -0.250000  0.250000      2.000000
 
 Following cartesian coordinates:
            Coordinates               Weight
  0.008333  0.008333  0.008333      2.000000
 -0.008333  0.008333  0.008333      2.000000
  0.008333 -0.008333  0.008333      2.000000
 -0.008333 -0.008333  0.008333      2.000000
 


--------------------------------------------------------------------------------------------------------




 Dimension of arrays:
   k-points           NKPTS =      4   k-points in BZ     NKDIM =      4   number of bands    NBANDS=     12
   number of dos      NEDOS =    301   number of ions     NIONS =      6
   non local maximal  LDIM  =      4   non local SUM 2l+1 LMDIM =      8
   total plane-waves  NPLWV = ******
   max r-space proj   IRMAX =   2395   max aug-charges    IRDMAX=   1738
   dimension x,y,z NGX =   150 NGY =  150 NGZ =  150
   dimension x,y,z NGXF=   300 NGYF=  300 NGZF=  300
   support grid    NGXF=   300 NGYF=  300 NGZF=  300
   ions per type =               3   2   1
 NGX,Y,Z   is equivalent  to a cutoff of   8.31,  8.31,  8.31 a.u.
 NGXF,Y,Z  is equivalent  to a cutoff of  16.62, 16.62, 16.62 a.u.


 I would recommend the setting:
   dimension x,y,z NGX =   147 NGY =  147 NGZ =  147
 SYSTEM =  unknown system                          
 POSCAR =  H3 C2 N1                                

 Startparameter for this run:
   NWRITE =      2    write-flag & timer
   PREC   = normal    normal or accurate (medium, high low for compatibility)
   ISTART =      0    job   : 0-new  1-cont  2-samecut
   ICHARG =      2    charge: 1-file 2-atom 10-const
   ISPIN  =      1    spin polarized calculation?
   LNONCOLLINEAR =      F non collinear calculations
   LSORBIT =      F    spin-orbit coupling
   INIWAV =      1    electr: 0-lowe 1-rand  2-diag
   LASPH  =      F    aspherical Exc in radial PAW
   METAGGA=      F    non-selfconsistent MetaGGA calc.

 Electronic Relaxation 1
   ENCUT  =  400.0 eV  29.40 Ry    5.42 a.u.  48.92 48.92 48.92*2*pi/ulx,y,z
   ENINI  =  400.0     initial cutoff
   ENAUG  =  644.9 eV  augmentation charge cutoff
   NELM   =    500;   NELMIN=  6; NELMDL= -5     # of ELM steps 
   EDIFF  = 0.1E-03   stopping-criterion for ELM
   LREAL  =      T    real-space projection
   NLSPLINE    = F    spline interpolate recip. space projectors
   LCOMPAT=      F    compatible to vasp.4.4
   GGA_COMPAT  = T    GGA compatible to vasp.4.4-vasp.4.6
   LMAXPAW     = -100 max onsite density
   LMAXMIX     =    2 max onsite mixed and CHGCAR
   VOSKOWN=      0    Vosko Wilk Nusair interpolation
   ROPT   =   -0.00050  -0.00050  -0.00050
 Ionic relaxation
   EDIFFG = -.1E+00   stopping-criterion for IOM
   NSW    =    300    number of steps for IOM
   NBLOCK =      1;   KBLOCK =    300    inner block; outer block 
   IBRION =      3    ionic relax: 0-MD 1-quasi-New 2-CG
   NFREE  =      0    steps in history (QN), initial steepest desc. (CG)
   ISIF   =      2    stress and relaxation
   IWAVPR =     11    prediction:  0-non 1-charg 2-wave 3-comb
   ISYM   =      2    0-nonsym 1-usesym 2-fastsym
   LCORR  =      T    Harris-Foulkes like correction to forces

   POTIM  = 0.0000    time-step for ionic-motion
   TEIN   =    0.0    initial temperature
   TEBEG  =    0.0;   TEEND  =   0.0 temperature during run
   SMASS  =   2.00    Nose mass-parameter (am)
   estimated Nose-frequenzy (Omega)   =  0.12E+10 period in steps =  0.00 mass=   0.137E-25a.u.
   SCALEE = 1.0000    scale energy and forces
   NPACO  =    256;   APACO  = 16.0  distance and # of slots for P.C.
   PSTRESS=    0.0 pullay stress

  Mass of Ions in am
   POMASS =   1.00 12.01 14.00
  Ionic Valenz
   ZVAL   =   1.00  4.00  5.00
  Atomic Wigner-Seitz radii
   RWIGS  =  -1.00 -1.00 -1.00
  virtual crystal weights 
   VCA    =   1.00  1.00  1.00
   NELECT =      16.0000    total number of electrons
   NUPDOWN=      -1.0000    fix difference up-down

 DOS related values:
   EMIN   =  10.00;   EMAX   =-10.00  energy-range for DOS
   EFERMI =   0.00
   ISMEAR =     0;   SIGMA  =   0.20  broadening in eV -4-tet -1-fermi 0-gaus

 Electronic relaxation 2 (details)
   IALGO  =     38    algorithm
   LDIAG  =      T    sub-space diagonalisation (order eigenvalues)
   LSUBROT=      F    optimize rotation matrix (better conditioning)
   TURBO    =      0    0=normal 1=particle mesh
   IRESTART =      0    0=no restart 2=restart with 2 vectors
   NREBOOT  =      0    no. of reboots
   NMIN     =      0    reboot dimension
   EREF     =   0.00    reference energy to select bands
   IMIX   =      4    mixing-type and parameters
     AMIX     =   0.40;   BMIX     =  1.00
     AMIX_MAG =   1.60;   BMIX_MAG =  1.00
     AMIN     =   0.10
     WC   =   100.;   INIMIX=   1;  MIXPRE=   1;  MAXMIX= -45

 Intra band minimization:
   WEIMIN = 0.0010     energy-eigenvalue tresh-hold
   EBREAK =  0.21E-05  absolut break condition
   DEPER  =   0.30     relativ break condition  

   TIME   =   0.40     timestep for ELM

  volume/ion in A,a.u.               =    4500.00     30367.50
  Fermi-wavevector in a.u.,A,eV,Ry     =   0.137508  0.259852  0.257264  0.018908
  Thomas-Fermi vector in A             =   0.790710
 
 Write flags
   LWAVE  =      F    write WAVECAR
   LCHARG =      F    write CHGCAR
   LVTOT  =      F    write LOCPOT, total local potential
   LVHAR  =      F    write LOCPOT, Hartree potential only
   LELF   =      F    write electronic localiz. function (ELF)
   LORBIT =      0    0 simple, 1 ext, 2 COOP (PROOUT)


 Dipole corrections
   LMONO  =      F    monopole corrections only (constant potential shift)
   LDIPOL =      F    correct potential (dipole corrections)
   IDIPOL =      0    1-x, 2-y, 3-z, 4-all directions 
   EPSILON=  1.0000000 bulk dielectric constant

 Exchange correlation treatment:
   GGA     =    PE    GGA type
   LEXCH   =     8    internal setting for exchange type
   VOSKOWN=      0    Vosko Wilk Nusair interpolation
   LHFCALC =     F    Hartree Fock is set to
   LHFONE  =     F    Hartree Fock one center treatment
   AEXX    =    0.0000 exact exchange contribution

 Linear response parameters
   LEPSILON=     F    determine dielectric tensor
   LRPA    =     F    only Hartree local field effects (RPA)
   LNABLA  =     F    use nabla operator in PAW spheres
   LVEL    =     F    velocity operator in full k-point grid
   LINTERFAST=   F  fast interpolation
   KINTER  =     0    interpolate to denser k-point grid
   CSHIFT  =0.1000    complex shift for real part using Kramers Kronig
   OMEGAMAX=  -1.0    maximum frequency
   DEG_THRESHOLD= 0.2000000E-02 threshold for treating states as degnerate
   RTIME   =    0.100 relaxation time in fs

 Orbital magnetization related:
   ORBITALMAG=     F  switch on orbital magnetization
   LCHIMAG   =     F  perturbation theory with respect to B field
   DQ        =  0.001000  dq finite difference perturbation B field



--------------------------------------------------------------------------------------------------------


 quickmin algorithm: (dynamic with friction)
 charge density and potential will be updated during run
 non-spin polarized calculation
 Variant of blocked Davidson
 Davidson routine will perform the subspace rotation
 perform sub-space diagonalisation
    after iterative eigenvector-optimisation
 modified Broyden-mixing scheme, WC =      100.0
 initial mixing is a Kerker type mixing with AMIX =  0.4000 and BMIX =      1.0000
 Hartree-type preconditioning will be used
 using additional bands            4
 real space projection scheme for non local part
 use partial core corrections
 calculate Harris-corrections to forces 
   (improved forces if not selfconsistent)
 use gradient corrections 
 use of overlap-Matrix (Vanderbilt PP)
 Gauss-broadening in eV      SIGMA  =   0.20


--------------------------------------------------------------------------------------------------------


  energy-cutoff  :      400.00
  volume of cell :    27000.00
      direct lattice vectors                 reciprocal lattice vectors
    30.000000000  0.000000000  0.000000000     0.033333333  0.000000000  0.000000000
     0.000000000 30.000000000  0.000000000     0.000000000  0.033333333  0.000000000
     0.000000000  0.000000000 30.000000000     0.000000000  0.000000000  0.033333333

  length of vectors
    30.000000000 30.000000000 30.000000000     0.033333333  0.033333333  0.033333333


 
 k-points in units of 2pi/SCALE and weight: Mo2C                                    
   0.00833333  0.00833333  0.00833333       0.250
  -0.00833333  0.00833333  0.00833333       0.250
   0.00833333 -0.00833333  0.00833333       0.250
  -0.00833333 -0.00833333  0.00833333       0.250
 
 k-points in reciprocal lattice and weights: Mo2C                                    
   0.25000000  0.25000000  0.25000000       0.250
  -0.25000000  0.25000000  0.25000000       0.250
   0.25000000 -0.25000000  0.25000000       0.250
  -0.25000000 -0.25000000  0.25000000       0.250
 
 position of ions in fractional coordinates (direct lattice) 
   0.47304240  0.46451021  0.50386164
   0.46409677  0.51893060  0.48116964
   0.48008293  0.51270293  0.53826816
   0.48458987  0.49930353  0.50438646
   0.56805911  0.50318713  0.48082987
   0.53013892  0.50138448  0.49148418
 
 position of ions in cartesian coordinates  (Angst):
  14.19127195 13.93530632 15.11584933
  13.92290303 15.56791815 14.43508909
  14.40248775 15.38108787 16.14804475
  14.53769616 14.97910594 15.13159386
  17.04177316 15.09561404 14.42489609
  15.90416765 15.04153434 14.74452551
 


--------------------------------------------------------------------------------------------------------


 k-point  1 :   0.2500 0.2500 0.2500  plane waves:  490454
 k-point  2 :  -0.2500 0.2500 0.2500  plane waves:  490454
 k-point  3 :   0.2500-0.2500 0.2500  plane waves:  490454
 k-point  4 :  -0.2500-0.2500 0.2500  plane waves:  490454

 maximum and minimum number of plane-waves per node :    490454   490454

 maximum number of plane-waves:    490454
 maximum index in each direction: 
   IXMAX=   49   IYMAX=   49   IZMAX=   48
   IXMIN=  -49   IYMIN=  -49   IZMIN=  -49

 WARNING: aliasing errors must be expected set NGX to 198 to avoid them
 WARNING: aliasing errors must be expected set NGY to 198 to avoid them
 WARNING: aliasing errors must be expected set NGZ to 196 to avoid them
 aliasing errors are usually negligible using standard VASP settings
 and one can safely disregard these warnings

 serial   3D FFT for wavefunctions
 parallel 3D FFT for charge:
    minimum data exchange during FFTs selected (reduces bandwidth)


 total amount of memory used by VASP on root node  3203889. kBytes
========================================================================

   base      :      30000. kBytes
   nonlr-proj:        693. kBytes
   fftplans  :     924480. kBytes
   grid      :    1872000. kBytes
   one-center:         18. kBytes
   wavefun   :     376698. kBytes
 
     INWAV:  cpu time    0.0010: real time    0.0006
 Broyden mixing: mesh for mixing (old mesh)
   NGX = 97   NGY = 97   NGZ = 97
  (NGX  =300   NGY  =300   NGZ  =300)
  gives a total of 912673 points

 initial charge density was supplied:
 charge density of overlapping atoms calculated
 number of electron      16.0000000 magnetization 
 keeping initial charge density in first step


--------------------------------------------------------------------------------------------------------


 Maximum index for non-local projection operator         2275
 Maximum index for augmentation-charges         1503 (set IRDMAX)


--------------------------------------------------------------------------------------------------------


 First call to EWALD:  gamma=   0.059
 Maximum number of real-space cells 3x 3x 3
 Maximum number of reciprocal cells 3x 3x 3

 FEWALD executed in parallel
    FEWALD:  cpu time    0.0030: real time    0.0021


----------------------------------------- Iteration    1(   1)  ---------------------------------------


    POTLOK:  cpu time   19.4180: real time   19.4020
    SETDIJ:  cpu time    0.0080: real time    0.0080
     EDDAV:  cpu time   87.9536: real time   87.8812
       DOS:  cpu time    0.0000: real time    0.0003
    --------------------------------------------
      LOOP:  cpu time  107.3837: real time  107.2962

 eigenvalue-minimisations  :   160
 total energy-change (2. order) : 0.1130494E+03  (-0.2139525E+03)
 number of electron      16.0000000 magnetization 
 augmentation part       16.0000000 magnetization 

 Free energy of the ion-electron system (eV)
  ---------------------------------------------------
  alpha Z        PSCENC =         0.04144063
  Ewald energy   TEWEN  =       700.55226929
  -Hartree energ DENC   =     -1115.44787219
  -exchange      EXHF   =         0.00000000
  -V(xc)+E(xc)   XCENC  =        51.38637992
  PAW double counting   =       428.37890668     -430.73533574
  entropy T*S    EENTRO =        -0.19148346
  eigenvalues    EBANDS =      -117.10029529
  atomic energy  EATOM  =       596.16534815
  Solvation  Ediel_sol  =         0.00000000
  ---------------------------------------------------
  free energy    TOTEN  =       113.04935798 eV

  energy without entropy =      113.24084144  energy(sigma->0) =      113.14509971


--------------------------------------------------------------------------------------------------------




----------------------------------------- Iteration    1(   2)  ---------------------------------------


     EDDAV:  cpu time  112.3229: real time  112.2310
       DOS:  cpu time    0.0000: real time    0.0002
    --------------------------------------------
      LOOP:  cpu time  112.3239: real time  112.2345

 eigenvalue-minimisations  :   192
 total energy-change (2. order) :-0.1149689E+03  (-0.1126451E+03)
 number of electron      16.0000000 magnetization 
 augmentation part       16.0000000 magnetization 

 Free energy of the ion-electron system (eV)
  ---------------------------------------------------
  alpha Z        PSCENC =         0.04144063
  Ewald energy   TEWEN  =       700.55226929
  -Hartree energ DENC   =     -1115.44787219
  -exchange      EXHF   =         0.00000000
  -V(xc)+E(xc)   XCENC  =        51.38637992
  PAW double counting   =       428.37890668     -430.73533574
  entropy T*S    EENTRO =         0.00000000
  eigenvalues    EBANDS =      -232.26069190
  atomic energy  EATOM  =       596.16534815
  Solvation  Ediel_sol  =         0.00000000
  ---------------------------------------------------
  free energy    TOTEN  =        -1.91955517 eV

  energy without entropy =       -1.91955517  energy(sigma->0) =       -1.91955517


--------------------------------------------------------------------------------------------------------




----------------------------------------- Iteration    1(   3)  ---------------------------------------


     EDDAV:  cpu time  100.6717: real time  100.5906
       DOS:  cpu time    0.0000: real time    0.0002
    --------------------------------------------
      LOOP:  cpu time  100.6737: real time  100.5943

 eigenvalue-minimisations  :   152
 total energy-change (2. order) :-0.3304393E+02  (-0.3298363E+02)
 number of electron      16.0000000 magnetization 
 augmentation part       16.0000000 magnetization 

 Free energy of the ion-electron system (eV)
  ---------------------------------------------------
  alpha Z        PSCENC =         0.04144063
  Ewald energy   TEWEN  =       700.55226929
  -Hartree energ DENC   =     -1115.44787219
  -exchange      EXHF   =         0.00000000
  -V(xc)+E(xc)   XCENC  =        51.38637992
  PAW double counting   =       428.37890668     -430.73533574
  entropy T*S    EENTRO =         0.00000000
  eigenvalues    EBANDS =      -265.30462592
  atomic energy  EATOM  =       596.16534815
  Solvation  Ediel_sol  =         0.00000000
  ---------------------------------------------------
  free energy    TOTEN  =       -34.96348918 eV

  energy without entropy =      -34.96348918  energy(sigma->0) =      -34.96348918


--------------------------------------------------------------------------------------------------------




----------------------------------------- Iteration    1(   4)  ---------------------------------------


     EDDAV:  cpu time   92.2130: real time   92.1388
       DOS:  cpu time    0.0000: real time    0.0002
    --------------------------------------------
      LOOP:  cpu time   92.2150: real time   92.1423

 eigenvalue-minimisations  :   136
 total energy-change (2. order) :-0.3994092E+01  (-0.3964426E+01)
 number of electron      16.0000000 magnetization 
 augmentation part       16.0000000 magnetization 

 Free energy of the ion-electron system (eV)
  ---------------------------------------------------
  alpha Z        PSCENC =         0.04144063
  Ewald energy   TEWEN  =       700.55226929
  -Hartree energ DENC   =     -1115.44787219
  -exchange      EXHF   =         0.00000000
  -V(xc)+E(xc)   XCENC  =        51.38637992
  PAW double counting   =       428.37890668     -430.73533574
  entropy T*S    EENTRO =         0.00000000
  eigenvalues    EBANDS =      -269.29871841
  atomic energy  EATOM  =       596.16534815
  Solvation  Ediel_sol  =         0.00000000
  ---------------------------------------------------
  free energy    TOTEN  =       -38.95758167 eV

  energy without entropy =      -38.95758167  energy(sigma->0) =      -38.95758167


--------------------------------------------------------------------------------------------------------




----------------------------------------- Iteration    1(   5)  ---------------------------------------


     EDDAV:  cpu time   86.7448: real time   86.6751
       DOS:  cpu time    0.0000: real time    0.0002
    CHARGE:  cpu time    6.4330: real time    6.4286
    MIXING:  cpu time    0.6779: real time    0.6775
    --------------------------------------------
      LOOP:  cpu time   93.8577: real time   93.7848

 eigenvalue-minimisations  :   120
 total energy-change (2. order) :-0.1019508E+00  (-0.1007139E+00)
 number of electron      15.9999997 magnetization 
 augmentation part        0.5180206 magnetization 

 Broyden mixing:
  rms(total) = 0.10332E+01    rms(broyden)= 0.10326E+01
  rms(prec ) = 0.10695E+01
  weight for this iteration     100.00

 Free energy of the ion-electron system (eV)
  ---------------------------------------------------
  alpha Z        PSCENC =         0.04144063
  Ewald energy   TEWEN  =       700.55226929
  -Hartree energ DENC   =     -1115.44787219
  -exchange      EXHF   =         0.00000000
  -V(xc)+E(xc)   XCENC  =        51.38637992
  PAW double counting   =       428.37890668     -430.73533574
  entropy T*S    EENTRO =         0.00000000
  eigenvalues    EBANDS =      -269.40066922
  atomic energy  EATOM  =       596.16534815
  Solvation  Ediel_sol  =         0.00000000
  ---------------------------------------------------
  free energy    TOTEN  =       -39.05953249 eV

  energy without entropy =      -39.05953249  energy(sigma->0) =      -39.05953249


--------------------------------------------------------------------------------------------------------




----------------------------------------- Iteration    1(   6)  ---------------------------------------


    POTLOK:  cpu time   21.8317: real time   21.8142
    SETDIJ:  cpu time    0.0080: real time    0.0083
     EDDAV:  cpu time   88.4286: real time   88.3566
       DOS:  cpu time    0.0000: real time    0.0002
    CHARGE:  cpu time    6.2790: real time    6.2748
    MIXING:  cpu time    0.7069: real time    0.7061
    --------------------------------------------
      LOOP:  cpu time  117.2572: real time  117.1638

 eigenvalue-minimisations  :   124
 total energy-change (2. order) : 0.2660532E+01  (-0.4541268E+00)
 number of electron      15.9999999 magnetization 
 augmentation part        0.4713877 magnetization 

 Broyden mixing:
  rms(total) = 0.55965E+00    rms(broyden)= 0.55955E+00
  rms(prec ) = 0.57504E+00
  weight for this iteration     100.00

 eigenvalues of (default mixing * dielectric matrix)
  average eigenvalue GAMMA=   1.6023
  1.6023

 Free energy of the ion-electron system (eV)
  ---------------------------------------------------
  alpha Z        PSCENC =         0.04144063
  Ewald energy   TEWEN  =       700.55226929
  -Hartree energ DENC   =     -1144.44499810
  -exchange      EXHF   =         0.00000000
  -V(xc)+E(xc)   XCENC  =        52.98148566
  PAW double counting   =       717.54704279     -720.23681426
  entropy T*S    EENTRO =         0.00000000
  eigenvalues    EBANDS =      -239.00477478
  atomic energy  EATOM  =       596.16534815
  Solvation  Ediel_sol  =         0.00000000
  ---------------------------------------------------
  free energy    TOTEN  =       -36.39900062 eV

  energy without entropy =      -36.39900062  energy(sigma->0) =      -36.39900062


--------------------------------------------------------------------------------------------------------




----------------------------------------- Iteration    1(   7)  ---------------------------------------


    POTLOK:  cpu time   21.3777: real time   21.3608
    SETDIJ:  cpu time    0.0090: real time    0.0086
     EDDAV:  cpu time   83.8463: real time   83.7782
       DOS:  cpu time    0.0000: real time    0.0002
    CHARGE:  cpu time    6.0331: real time    6.0283
    MIXING:  cpu time    0.6979: real time    0.6981
    --------------------------------------------
      LOOP:  cpu time  111.9660: real time  111.8777

 eigenvalue-minimisations  :   116
 total energy-change (2. order) : 0.6906283E+00  (-0.1757610E+00)
 number of electron      15.9999999 magnetization 
 augmentation part        0.4562210 magnetization 

 Broyden mixing:
  rms(total) = 0.22295E+00    rms(broyden)= 0.22289E+00
  rms(prec ) = 0.22813E+00
  weight for this iteration     100.00

 eigenvalues of (default mixing * dielectric matrix)
  average eigenvalue GAMMA=   1.5708
  1.0788  2.0628

 Free energy of the ion-electron system (eV)
  ---------------------------------------------------
  alpha Z        PSCENC =         0.04144063
  Ewald energy   TEWEN  =       700.55226929
  -Hartree energ DENC   =     -1163.99414190
  -exchange      EXHF   =         0.00000000
  -V(xc)+E(xc)   XCENC  =        54.23347205
  PAW double counting   =      1089.37728468    -1092.25317520
  entropy T*S    EENTRO =         0.00000000
  eigenvalues    EBANDS =      -219.83087003
  atomic energy  EATOM  =       596.16534815
  Solvation  Ediel_sol  =         0.00000000
  ---------------------------------------------------
  free energy    TOTEN  =       -35.70837234 eV

  energy without entropy =      -35.70837234  energy(sigma->0) =      -35.70837234


--------------------------------------------------------------------------------------------------------




----------------------------------------- Iteration    1(   8)  ---------------------------------------


    POTLOK:  cpu time   21.1378: real time   21.1205
    SETDIJ:  cpu time    0.0080: real time    0.0083
     EDDAV:  cpu time   90.6242: real time   90.5497
       DOS:  cpu time    0.0000: real time    0.0002
    CHARGE:  cpu time    6.4490: real time    6.4438
    MIXING:  cpu time    0.7659: real time    0.7645
    --------------------------------------------
      LOOP:  cpu time  118.9859: real time  118.8906

 eigenvalue-minimisations  :   128
 total energy-change (2. order) : 0.7074238E-01  (-0.1445476E-01)
 number of electron      15.9999999 magnetization 
 augmentation part        0.4473552 magnetization 

 Broyden mixing:
  rms(total) = 0.87896E-01    rms(broyden)= 0.87874E-01
  rms(prec ) = 0.92181E-01
  weight for this iteration     100.00

 eigenvalues of (default mixing * dielectric matrix)
  average eigenvalue GAMMA=   1.5891
  2.3148  1.6312  0.8214

 Free energy of the ion-electron system (eV)
  ---------------------------------------------------
  alpha Z        PSCENC =         0.04144063
  Ewald energy   TEWEN  =       700.55226929
  -Hartree energ DENC   =     -1170.47142653
  -exchange      EXHF   =         0.00000000
  -V(xc)+E(xc)   XCENC  =        54.65312945
  PAW double counting   =      1264.66136779    -1267.55926426
  entropy T*S    EENTRO =         0.00000000
  eigenvalues    EBANDS =      -213.68049447
  atomic energy  EATOM  =       596.16534815
  Solvation  Ediel_sol  =         0.00000000
  ---------------------------------------------------
  free energy    TOTEN  =       -35.63762996 eV

  energy without entropy =      -35.63762996  energy(sigma->0) =      -35.63762996


--------------------------------------------------------------------------------------------------------




----------------------------------------- Iteration    1(   9)  ---------------------------------------


    POTLOK:  cpu time   21.2338: real time   21.2164
    SETDIJ:  cpu time    0.0080: real time    0.0081
     EDDAV:  cpu time   89.7923: real time   89.7190
       DOS:  cpu time    0.0000: real time    0.0002
    CHARGE:  cpu time    6.2421: real time    6.2372
    MIXING:  cpu time    0.8749: real time    0.8751
    --------------------------------------------
      LOOP:  cpu time  118.1520: real time  118.0597

 eigenvalue-minimisations  :   128
 total energy-change (2. order) : 0.1867440E-01  (-0.2124873E-02)
 number of electron      15.9999999 magnetization 
 augmentation part        0.4479574 magnetization 

 Broyden mixing:
  rms(total) = 0.21611E-01    rms(broyden)= 0.21601E-01
  rms(prec ) = 0.27862E-01
  weight for this iteration     100.00

 eigenvalues of (default mixing * dielectric matrix)
  average eigenvalue GAMMA=   1.5408
  2.0153  2.0153  0.8459  1.2868

 Free energy of the ion-electron system (eV)
  ---------------------------------------------------
  alpha Z        PSCENC =         0.04144063
  Ewald energy   TEWEN  =       700.55226929
  -Hartree energ DENC   =     -1171.68372090
  -exchange      EXHF   =         0.00000000
  -V(xc)+E(xc)   XCENC  =        54.73596325
  PAW double counting   =      1329.42024805    -1332.29059832
  entropy T*S    EENTRO =         0.00000000
  eigenvalues    EBANDS =      -212.55990573
  atomic energy  EATOM  =       596.16534815
  Solvation  Ediel_sol  =         0.00000000
  ---------------------------------------------------
  free energy    TOTEN  =       -35.61895556 eV

  energy without entropy =      -35.61895556  energy(sigma->0) =      -35.61895556


--------------------------------------------------------------------------------------------------------




----------------------------------------- Iteration    1(  10)  ---------------------------------------


    POTLOK:  cpu time   21.8277: real time   21.8107
    SETDIJ:  cpu time    0.0090: real time    0.0086
     EDDAV:  cpu time   91.2501: real time   91.1756
       DOS:  cpu time    0.0000: real time    0.0002
    CHARGE:  cpu time    6.4160: real time    6.4103
    MIXING:  cpu time    0.9439: real time    0.9429
    --------------------------------------------
      LOOP:  cpu time  120.4487: real time  120.3523

 eigenvalue-minimisations  :   128
 total energy-change (2. order) : 0.3079863E-03  (-0.4205742E-03)
 number of electron      15.9999999 magnetization 
 augmentation part        0.4488458 magnetization 

 Broyden mixing:
  rms(total) = 0.13068E-01    rms(broyden)= 0.13061E-01
  rms(prec ) = 0.18762E-01
  weight for this iteration     100.00

 eigenvalues of (default mixing * dielectric matrix)
  average eigenvalue GAMMA=   1.5086
  2.1820  2.1820  0.8955  0.8955  1.3884

 Free energy of the ion-electron system (eV)
  ---------------------------------------------------
  alpha Z        PSCENC =         0.04144063
  Ewald energy   TEWEN  =       700.55226929
  -Hartree energ DENC   =     -1172.65590518
  -exchange      EXHF   =         0.00000000
  -V(xc)+E(xc)   XCENC  =        54.75906495
  PAW double counting   =      1324.83577605    -1327.70125657
  entropy T*S    EENTRO =         0.00000000
  eigenvalues    EBANDS =      -211.61538490
  atomic energy  EATOM  =       596.16534815
  Solvation  Ediel_sol  =         0.00000000
  ---------------------------------------------------
  free energy    TOTEN  =       -35.61864758 eV

  energy without entropy =      -35.61864758  energy(sigma->0) =      -35.61864758


--------------------------------------------------------------------------------------------------------




----------------------------------------- Iteration    1(  11)  ---------------------------------------


    POTLOK:  cpu time   21.9617: real time   21.9456
    SETDIJ:  cpu time    0.0090: real time    0.0083
     EDDAV:  cpu time   87.4547: real time   87.3839
       DOS:  cpu time    0.0000: real time    0.0002
    CHARGE:  cpu time    6.5140: real time    6.5098
    MIXING:  cpu time    1.1938: real time    1.1930
    --------------------------------------------
      LOOP:  cpu time  117.1362: real time  117.0447

 eigenvalue-minimisations  :   124
 total energy-change (2. order) :-0.1724212E-02  (-0.1756309E-03)
 number of electron      15.9999999 magnetization 
 augmentation part        0.4483197 magnetization 

 Broyden mixing:
  rms(total) = 0.80713E-02    rms(broyden)= 0.80699E-02
  rms(prec ) = 0.12996E-01
  weight for this iteration     100.00

 eigenvalues of (default mixing * dielectric matrix)
  average eigenvalue GAMMA=   1.6540
  2.6404  2.6404  1.4348  1.4348  0.8866  0.8866

 Free energy of the ion-electron system (eV)
  ---------------------------------------------------
  alpha Z        PSCENC =         0.04144063
  Ewald energy   TEWEN  =       700.55226929
  -Hartree energ DENC   =     -1173.69202259
  -exchange      EXHF   =         0.00000000
  -V(xc)+E(xc)   XCENC  =        54.79083368
  PAW double counting   =      1324.15090703    -1327.01505633
  entropy T*S    EENTRO =         0.00000000
  eigenvalues    EBANDS =      -210.61409164
  atomic energy  EATOM  =       596.16534815
  Solvation  Ediel_sol  =         0.00000000
  ---------------------------------------------------
  free energy    TOTEN  =       -35.62037179 eV

  energy without entropy =      -35.62037179  energy(sigma->0) =      -35.62037179


--------------------------------------------------------------------------------------------------------




----------------------------------------- Iteration    1(  12)  ---------------------------------------


    POTLOK:  cpu time   22.3346: real time   22.3174
    SETDIJ:  cpu time    0.0090: real time    0.0085
     EDDAV:  cpu time   80.2158: real time   80.1501
       DOS:  cpu time    0.0010: real time    0.0002
    CHARGE:  cpu time    6.2171: real time    6.2137
    MIXING:  cpu time    1.0948: real time    1.0929
    --------------------------------------------
      LOOP:  cpu time  109.8743: real time  109.7870

 eigenvalue-minimisations  :   112
 total energy-change (2. order) :-0.5688545E-02  (-0.3060705E-03)
 number of electron      15.9999999 magnetization 
 augmentation part        0.4480230 magnetization 

 Broyden mixing:
  rms(total) = 0.45713E-02    rms(broyden)= 0.45662E-02
  rms(prec ) = 0.73814E-02
  weight for this iteration     100.00

 eigenvalues of (default mixing * dielectric matrix)
  average eigenvalue GAMMA=   1.7826
  3.8340  2.2371  1.8685  1.6080  0.9027  1.0140  1.0140

 Free energy of the ion-electron system (eV)
  ---------------------------------------------------
  alpha Z        PSCENC =         0.04144063
  Ewald energy   TEWEN  =       700.55226929
  -Hartree energ DENC   =     -1174.92763217
  -exchange      EXHF   =         0.00000000
  -V(xc)+E(xc)   XCENC  =        54.82005568
  PAW double counting   =      1320.42718491    -1323.28902117
  entropy T*S    EENTRO =         0.00000000
  eigenvalues    EBANDS =      -209.41570566
  atomic energy  EATOM  =       596.16534815
  Solvation  Ediel_sol  =         0.00000000
  ---------------------------------------------------
  free energy    TOTEN  =       -35.62606034 eV

  energy without entropy =      -35.62606034  energy(sigma->0) =      -35.62606034


--------------------------------------------------------------------------------------------------------




----------------------------------------- Iteration    1(  13)  ---------------------------------------


    POTLOK:  cpu time   21.7597: real time   21.7428
    SETDIJ:  cpu time    0.0080: real time    0.0084
     EDDAV:  cpu time   89.3104: real time   89.2367
       DOS:  cpu time    0.0000: real time    0.0002
    CHARGE:  cpu time    6.3830: real time    6.3784
    MIXING:  cpu time    1.1298: real time    1.1272
    --------------------------------------------
      LOOP:  cpu time  118.5920: real time  118.4974

 eigenvalue-minimisations  :   128
 total energy-change (2. order) :-0.5935922E-02  (-0.1566970E-03)
 number of electron      15.9999999 magnetization 
 augmentation part        0.4478541 magnetization 

 Broyden mixing:
  rms(total) = 0.28450E-02    rms(broyden)= 0.28425E-02
  rms(prec ) = 0.43820E-02
  weight for this iteration     100.00

 eigenvalues of (default mixing * dielectric matrix)
  average eigenvalue GAMMA=   1.8869
  4.9088  2.4025  1.7622  1.7622  1.4257  0.9160  0.9160  1.0018

 Free energy of the ion-electron system (eV)
  ---------------------------------------------------
  alpha Z        PSCENC =         0.04144063
  Ewald energy   TEWEN  =       700.55226929
  -Hartree energ DENC   =     -1175.52324476
  -exchange      EXHF   =         0.00000000
  -V(xc)+E(xc)   XCENC  =        54.82730129
  PAW double counting   =      1319.95298795    -1322.81518157
  entropy T*S    EENTRO =         0.00000000
  eigenvalues    EBANDS =      -208.83291725
  atomic energy  EATOM  =       596.16534815
  Solvation  Ediel_sol  =         0.00000000
  ---------------------------------------------------
  free energy    TOTEN  =       -35.63199626 eV

  energy without entropy =      -35.63199626  energy(sigma->0) =      -35.63199626


--------------------------------------------------------------------------------------------------------




----------------------------------------- Iteration    1(  14)  ---------------------------------------


    POTLOK:  cpu time   23.0975: real time   23.0785
    SETDIJ:  cpu time    0.0080: real time    0.0084
     EDDAV:  cpu time   88.7015: real time   88.6287
       DOS:  cpu time    0.0000: real time    0.0002
    CHARGE:  cpu time    6.9070: real time    6.9015
    MIXING:  cpu time    1.3478: real time    1.3472
    --------------------------------------------
      LOOP:  cpu time  120.0627: real time  119.9688

 eigenvalue-minimisations  :   128
 total energy-change (2. order) :-0.4070036E-02  (-0.5111053E-04)
 number of electron      15.9999999 magnetization 
 augmentation part        0.4478774 magnetization 

 Broyden mixing:
  rms(total) = 0.18407E-02    rms(broyden)= 0.18400E-02
  rms(prec ) = 0.26941E-02
  weight for this iteration     100.00

 eigenvalues of (default mixing * dielectric matrix)
  average eigenvalue GAMMA=   1.9767
  5.1669  2.7640  2.4549  1.8412  1.5897  1.1006  1.1006  0.8864  0.8864

 Free energy of the ion-electron system (eV)
  ---------------------------------------------------
  alpha Z        PSCENC =         0.04144063
  Ewald energy   TEWEN  =       700.55226929
  -Hartree energ DENC   =     -1175.71531531
  -exchange      EXHF   =         0.00000000
  -V(xc)+E(xc)   XCENC  =        54.82132035
  PAW double counting   =      1318.24741024    -1321.10951259
  entropy T*S    EENTRO =         0.00000000
  eigenvalues    EBANDS =      -208.63902705
  atomic energy  EATOM  =       596.16534815
  Solvation  Ediel_sol  =         0.00000000
  ---------------------------------------------------
  free energy    TOTEN  =       -35.63606629 eV

  energy without entropy =      -35.63606629  energy(sigma->0) =      -35.63606629


--------------------------------------------------------------------------------------------------------




----------------------------------------- Iteration    1(  15)  ---------------------------------------


    POTLOK:  cpu time   22.5176: real time   22.5004
    SETDIJ:  cpu time    0.0080: real time    0.0083
     EDDAV:  cpu time   88.7885: real time   88.7167
       DOS:  cpu time    0.0000: real time    0.0002
    CHARGE:  cpu time    6.8340: real time    6.8287
    MIXING:  cpu time    1.4048: real time    1.4033
    --------------------------------------------
      LOOP:  cpu time  119.5558: real time  119.4616

 eigenvalue-minimisations  :   128
 total energy-change (2. order) :-0.3305206E-02  (-0.3596156E-04)
 number of electron      15.9999999 magnetization 
 augmentation part        0.4479167 magnetization 

 Broyden mixing:
  rms(total) = 0.11233E-02    rms(broyden)= 0.11231E-02
  rms(prec ) = 0.15518E-02
  weight for this iteration     100.00

 eigenvalues of (default mixing * dielectric matrix)
  average eigenvalue GAMMA=   2.0953
  6.5452  3.4923  2.3545  1.6273  1.6273  1.5447  1.0447  0.9226  0.9226  0.8719

 Free energy of the ion-electron system (eV)
  ---------------------------------------------------
  alpha Z        PSCENC =         0.04144063
  Ewald energy   TEWEN  =       700.55226929
  -Hartree energ DENC   =     -1175.74644984
  -exchange      EXHF   =         0.00000000
  -V(xc)+E(xc)   XCENC  =        54.81532158
  PAW double counting   =      1319.11661900    -1321.97899587
  entropy T*S    EENTRO =         0.00000000
  eigenvalues    EBANDS =      -208.60492444
  atomic energy  EATOM  =       596.16534815
  Solvation  Ediel_sol  =         0.00000000
  ---------------------------------------------------
  free energy    TOTEN  =       -35.63937150 eV

  energy without entropy =      -35.63937150  energy(sigma->0) =      -35.63937150


--------------------------------------------------------------------------------------------------------




----------------------------------------- Iteration    1(  16)  ---------------------------------------


    POTLOK:  cpu time   22.6446: real time   22.6270
    SETDIJ:  cpu time    0.0080: real time    0.0082
     EDDAV:  cpu time   89.5804: real time   89.5062
       DOS:  cpu time    0.0000: real time    0.0002
    CHARGE:  cpu time    6.3330: real time    6.3291
    MIXING:  cpu time    1.3168: real time    1.3147
    --------------------------------------------
      LOOP:  cpu time  119.8838: real time  119.7890

 eigenvalue-minimisations  :   128
 total energy-change (2. order) :-0.1251900E-02  (-0.1094206E-04)
 number of electron      15.9999999 magnetization 
 augmentation part        0.4478930 magnetization 

 Broyden mixing:
  rms(total) = 0.65432E-03    rms(broyden)= 0.65407E-03
  rms(prec ) = 0.89825E-03
  weight for this iteration     100.00

 eigenvalues of (default mixing * dielectric matrix)
  average eigenvalue GAMMA=   2.1562
  7.2491  3.4480  2.3123  2.3123  1.6603  1.6603  1.3025  0.9942  0.9942  0.8927
  0.8927

 Free energy of the ion-electron system (eV)
  ---------------------------------------------------
  alpha Z        PSCENC =         0.04144063
  Ewald energy   TEWEN  =       700.55226929
  -Hartree energ DENC   =     -1175.77652096
  -exchange      EXHF   =         0.00000000
  -V(xc)+E(xc)   XCENC  =        54.81310926
  PAW double counting   =      1319.02423729    -1321.88661485
  entropy T*S    EENTRO =         0.00000000
  eigenvalues    EBANDS =      -208.57389220
  atomic energy  EATOM  =       596.16534815
  Solvation  Ediel_sol  =         0.00000000
  ---------------------------------------------------
  free energy    TOTEN  =       -35.64062340 eV

  energy without entropy =      -35.64062340  energy(sigma->0) =      -35.64062340


--------------------------------------------------------------------------------------------------------




----------------------------------------- Iteration    1(  17)  ---------------------------------------


    POTLOK:  cpu time   21.8387: real time   21.8209
    SETDIJ:  cpu time    0.0080: real time    0.0081
     EDDAV:  cpu time   58.7671: real time   58.7193
       DOS:  cpu time    0.0000: real time    0.0002
    CHARGE:  cpu time    6.3510: real time    6.3456
    MIXING:  cpu time    1.3778: real time    1.3760
    --------------------------------------------
      LOOP:  cpu time   88.3436: real time   90.2005

 eigenvalue-minimisations  :    72
 total energy-change (2. order) :-0.8237766E-03  (-0.2778197E-05)
 number of electron      15.9999999 magnetization 
 augmentation part        0.4478635 magnetization 

 Broyden mixing:
  rms(total) = 0.41511E-03    rms(broyden)= 0.41494E-03
  rms(prec ) = 0.53684E-03
  weight for this iteration     100.00

 eigenvalues of (default mixing * dielectric matrix)
  average eigenvalue GAMMA=   2.2592
  8.0886  4.2854  2.7346  2.3418  1.6308  1.6308  1.5831  1.0821  0.9865  0.9865
  0.8800  0.8800

 Free energy of the ion-electron system (eV)
  ---------------------------------------------------
  alpha Z        PSCENC =         0.04144063
  Ewald energy   TEWEN  =       700.55226929
  -Hartree energ DENC   =     -1175.78575310
  -exchange      EXHF   =         0.00000000
  -V(xc)+E(xc)   XCENC  =        54.81207049
  PAW double counting   =      1318.89067378    -1321.75281359
  entropy T*S    EENTRO =         0.00000000
  eigenvalues    EBANDS =      -208.56468283
  atomic energy  EATOM  =       596.16534815
  Solvation  Ediel_sol  =         0.00000000
  ---------------------------------------------------
  free energy    TOTEN  =       -35.64144718 eV

  energy without entropy =      -35.64144718  energy(sigma->0) =      -35.64144718


--------------------------------------------------------------------------------------------------------




----------------------------------------- Iteration    1(  18)  ---------------------------------------


    POTLOK:  cpu time   21.6017: real time   21.5853
    SETDIJ:  cpu time    0.0090: real time    0.0081
     EDDAV:  cpu time   63.6023: real time   63.5501
       DOS:  cpu time    0.0000: real time    0.0002
    CHARGE:  cpu time    6.3210: real time    6.3166
    MIXING:  cpu time    1.5298: real time    1.5279
    --------------------------------------------
      LOOP:  cpu time   93.0649: real time   92.9923

 eigenvalue-minimisations  :    80
 total energy-change (2. order) :-0.3511133E-03  (-0.2510489E-05)
 number of electron      15.9999999 magnetization 
 augmentation part        0.4478660 magnetization 

 Broyden mixing:
  rms(total) = 0.27212E-03    rms(broyden)= 0.27207E-03
  rms(prec ) = 0.33318E-03
  weight for this iteration     100.00

 eigenvalues of (default mixing * dielectric matrix)
  average eigenvalue GAMMA=   2.3440
  8.4278  4.7618  2.5688  2.5688  2.5581  1.6824  1.6824  1.4205  1.0062  1.0062
  0.8919  0.8919  1.0049

 Free energy of the ion-electron system (eV)
  ---------------------------------------------------
  alpha Z        PSCENC =         0.04144063
  Ewald energy   TEWEN  =       700.55226929
  -Hartree energ DENC   =     -1175.77904579
  -exchange      EXHF   =         0.00000000
  -V(xc)+E(xc)   XCENC  =        54.81133108
  PAW double counting   =      1319.08758481    -1321.94974357
  entropy T*S    EENTRO =         0.00000000
  eigenvalues    EBANDS =      -208.57098289
  atomic energy  EATOM  =       596.16534815
  Solvation  Ediel_sol  =         0.00000000
  ---------------------------------------------------
  free energy    TOTEN  =       -35.64179829 eV

  energy without entropy =      -35.64179829  energy(sigma->0) =      -35.64179829


--------------------------------------------------------------------------------------------------------




----------------------------------------- Iteration    1(  19)  ---------------------------------------


    POTLOK:  cpu time   21.9997: real time   21.9819
    SETDIJ:  cpu time    0.0080: real time    0.0085
     EDDAV:  cpu time   60.4268: real time   60.3776
       DOS:  cpu time    0.0000: real time    0.0002
    CHARGE:  cpu time    6.6910: real time    6.6861
    MIXING:  cpu time    1.7387: real time    1.7369
    --------------------------------------------
      LOOP:  cpu time   90.8662: real time   90.7949

 eigenvalue-minimisations  :    76
 total energy-change (2. order) :-0.2193218E-03  (-0.9628046E-06)
 number of electron      15.9999999 magnetization 
 augmentation part        0.4478803 magnetization 

 Broyden mixing:
  rms(total) = 0.26831E-03    rms(broyden)= 0.26823E-03
  rms(prec ) = 0.29001E-03
  weight for this iteration     100.00

 eigenvalues of (default mixing * dielectric matrix)
  average eigenvalue GAMMA=   2.3260
  8.6573  5.2826  3.2565  2.5609  1.9097  1.9097  1.6247  1.6247  1.0270  1.0270
  1.0621  0.8782  0.8782  0.8649

 Free energy of the ion-electron system (eV)
  ---------------------------------------------------
  alpha Z        PSCENC =         0.04144063
  Ewald energy   TEWEN  =       700.55226929
  -Hartree energ DENC   =     -1175.77171417
  -exchange      EXHF   =         0.00000000
  -V(xc)+E(xc)   XCENC  =        54.81077520
  PAW double counting   =      1319.03438158    -1321.89664648
  entropy T*S    EENTRO =         0.00000000
  eigenvalues    EBANDS =      -208.57787180
  atomic energy  EATOM  =       596.16534815
  Solvation  Ediel_sol  =         0.00000000
  ---------------------------------------------------
  free energy    TOTEN  =       -35.64201761 eV

  energy without entropy =      -35.64201761  energy(sigma->0) =      -35.64201761


--------------------------------------------------------------------------------------------------------




----------------------------------------- Iteration    1(  20)  ---------------------------------------


    POTLOK:  cpu time   21.2818: real time   21.2650
    SETDIJ:  cpu time    0.0080: real time    0.0082
     EDDAV:  cpu time   63.2404: real time   63.1881
       DOS:  cpu time    0.0000: real time    0.0002
    --------------------------------------------
      LOOP:  cpu time   84.5322: real time   84.4651

 eigenvalue-minimisations  :    88
 total energy-change (2. order) :-0.4196364E-04  (-0.2630328E-06)
 number of electron      15.9999999 magnetization 
 augmentation part        0.4478803 magnetization 

 Free energy of the ion-electron system (eV)
  ---------------------------------------------------
  alpha Z        PSCENC =         0.04144063
  Ewald energy   TEWEN  =       700.55226929
  -Hartree energ DENC   =     -1175.77240706
  -exchange      EXHF   =         0.00000000
  -V(xc)+E(xc)   XCENC  =        54.81069569
  PAW double counting   =      1318.95760451    -1321.81981692
  entropy T*S    EENTRO =         0.00000000
  eigenvalues    EBANDS =      -208.57719386
  atomic energy  EATOM  =       596.16534815
  Solvation  Ediel_sol  =         0.00000000
  ---------------------------------------------------
  free energy    TOTEN  =       -35.64205958 eV

  energy without entropy =      -35.64205958  energy(sigma->0) =      -35.64205958


--------------------------------------------------------------------------------------------------------




 average (electrostatic) potential at core
  the test charge radii are     0.5201  0.6991  0.7089
  (the norm of the test charge is              1.0000)
       1 -43.0696       2 -43.0694       3 -43.0641       4 -60.5431       5 -59.3645
       6 -74.8274
 
 
 
 E-fermi :  -6.1587     XC(G=0):  -0.0948     alpha+bet : -0.0137


 k-point     1 :       0.2500    0.2500    0.2500
  band No.  band energies     occupation 
      1     -23.8487      2.00000
      2     -19.2686      2.00000
      3     -13.8863      2.00000
      4     -11.7708      2.00000
      5     -11.7566      2.00000
      6      -8.3012      2.00000
      7      -8.2980      2.00000
      8      -7.1585      2.00000
      9      -0.7660      0.00000
     10      -0.6826      0.00000
     11      -0.6753      0.00000
     12      -0.0129      0.00000

 k-point     2 :      -0.2500    0.2500    0.2500
  band No.  band energies     occupation 
      1     -23.8487      2.00000
      2     -19.2686      2.00000
      3     -13.8863      2.00000
      4     -11.7708      2.00000
      5     -11.7566      2.00000
      6      -8.3012      2.00000
      7      -8.2980      2.00000
      8      -7.1585      2.00000
      9      -0.7660      0.00000
     10      -0.6826      0.00000
     11      -0.6753      0.00000
     12       0.0140      0.00000

 k-point     3 :       0.2500   -0.2500    0.2500
  band No.  band energies     occupation 
      1     -23.8487      2.00000
      2     -19.2686      2.00000
      3     -13.8863      2.00000
      4     -11.7708      2.00000
      5     -11.7566      2.00000
      6      -8.3012      2.00000
      7      -8.2980      2.00000
      8      -7.1585      2.00000
      9      -0.7660      0.00000
     10      -0.6826      0.00000
     11      -0.6753      0.00000
     12      -0.0131      0.00000

 k-point     4 :      -0.2500   -0.2500    0.2500
  band No.  band energies     occupation 
      1     -23.8487      2.00000
      2     -19.2686      2.00000
      3     -13.8863      2.00000
      4     -11.7708      2.00000
      5     -11.7566      2.00000
      6      -8.3012      2.00000
      7      -8.2980      2.00000
      8      -7.1585      2.00000
      9      -0.7660      0.00000
     10      -0.6826      0.00000
     11      -0.6753      0.00000
     12      -0.0132      0.00000


--------------------------------------------------------------------------------------------------------


 soft charge-density along one line, spin component           1
         0         1         2         3         4         5         6         7         8         9
 total charge-density along one line
 
 pseudopotential strength for first ion, spin component:           1
 -2.362  -4.075  -0.002   0.000  -0.001
 -4.075  -6.942  -0.005   0.000  -0.002
 -0.002  -0.005  -0.330   0.000   0.001
  0.000   0.000   0.000  -0.334   0.000
 -0.001  -0.002   0.001   0.000  -0.333
 total augmentation occupancy for first ion, spin component:           1
  3.519  -0.634   0.421   0.006   0.142
 -0.634   0.131  -0.078  -0.001  -0.026
  0.421  -0.078   0.051   0.000   0.015
  0.006  -0.001   0.000   0.009   0.001
  0.142  -0.026   0.015   0.001   0.011


------------------------ aborting loop because EDIFF is reached ----------------------------------------


    CHARGE:  cpu time    6.1791: real time    6.1738
    FORLOC:  cpu time    2.8746: real time    2.8722
    FORNL :  cpu time   20.2819: real time   20.2653
    STRESS:  cpu time   61.9646: real time   61.9134
    FORCOR:  cpu time   22.1896: real time   22.1711
    FORHAR:  cpu time    7.7708: real time    7.7653
    MIXING:  cpu time    1.5738: real time    1.5715
    OFIELD:  cpu time    0.0000: real time    0.0000

  FORCE on cell =-STRESS in cart. coord.  units (eV):
  Direction    XX          YY          ZZ          XY          YZ          ZX
  --------------------------------------------------------------------------------------
  Alpha Z     0.04144     0.04144     0.04144
  Ewald     578.71429    40.09127    81.74653    24.93232    -7.17535  -152.08133
  Hartree   573.39674   290.22434   312.15602    13.07907    -3.73210   -79.63260
  E(xc)     -58.81907   -60.14326   -60.03999     0.06081    -0.01758    -0.37690
  Local   -1293.49913  -505.17403  -566.19372   -36.45727    10.44846   222.22169
  n-local   -26.38859   -24.29347   -24.44301    -0.10278     0.03388     0.58333
  augment     0.50797     1.00071     0.96267    -0.02259     0.00667     0.13962
  Kinetic   224.66495   257.22863   254.66340    -1.47617     0.42672     9.30499
  Fock        0.00000     0.00000     0.00000     0.00000     0.00000     0.00000
  -------------------------------------------------------------------------------------
  Total      -1.38139    -1.02437    -1.10665     0.01339    -0.00930     0.15881
  in kB      -0.08197    -0.06079    -0.06567     0.00079    -0.00055     0.00942
  external pressure =       -0.07 kB  Pullay stress =        0.00 kB


 VOLUME and BASIS-vectors are now :
 -----------------------------------------------------------------------------
  energy-cutoff  :      400.00
  volume of cell :    27000.00
      direct lattice vectors                 reciprocal lattice vectors
    30.000000000  0.000000000  0.000000000     0.033333333  0.000000000  0.000000000
     0.000000000 30.000000000  0.000000000     0.000000000  0.033333333  0.000000000
     0.000000000  0.000000000 30.000000000     0.000000000  0.000000000  0.033333333

  length of vectors
    30.000000000 30.000000000 30.000000000     0.033333333  0.033333333  0.033333333


 FORCES acting on ions
    electron-ion (+dipol)            ewald-force                    non-local-force                 convergence-correction
 -----------------------------------------------------------------------------------------------
   0.321E+02 0.586E+02 -.277E+01   -.339E+02 -.640E+02 0.270E+01   0.182E+01 0.537E+01 0.681E-01   -.369E-04 0.281E-03 0.414E-04
   0.470E+02 -.322E+02 0.351E+02   -.502E+02 0.352E+02 -.386E+02   0.320E+01 -.302E+01 0.357E+01   0.320E-04 -.172E-03 0.227E-03
   0.201E+02 -.217E+02 -.598E+02   -.208E+02 0.237E+02 0.650E+02   0.747E+00 -.205E+01 -.521E+01   -.929E-04 -.122E-03 -.243E-03
   0.115E+03 0.507E+01 -.330E+02   -.122E+03 -.541E+01 0.350E+02   0.725E+01 0.331E+00 -.206E+01   -.148E-02 -.107E-03 0.426E-03
   -.221E+03 -.105E+02 0.621E+02   0.246E+03 0.117E+02 -.692E+02   -.256E+02 -.123E+01 0.718E+01   0.173E-02 0.733E-04 -.480E-03
   0.163E+02 0.994E+00 -.437E+01   -.192E+02 -.117E+01 0.516E+01   0.299E+01 0.194E+00 -.750E+00   -.198E-02 -.120E-03 0.556E-03
 -----------------------------------------------------------------------------------------------
   0.959E+01 0.405E+00 -.279E+01   -.284E-13 -.533E-14 -.142E-13   -.959E+01 -.410E+00 0.280E+01   -.182E-02 -.166E-03 0.527E-03
 
 
 POSITION                                       TOTAL-FORCE (eV/Angst)
 -----------------------------------------------------------------------------------
     14.19127     13.93531     15.11585         0.020414      0.019798     -0.008321
     13.92290     15.56792     14.43509         0.028616     -0.011137      0.001099
     14.40249     15.38109     16.14804         0.085310     -0.013816     -0.065755
     14.53770     14.97911     15.13159         0.050883     -0.002364     -0.024773
     17.04177     15.09561     14.42490        -0.224779     -0.014930      0.057834
     15.90417     15.04153     14.74453         0.039555      0.022449      0.039916
 -----------------------------------------------------------------------------------
    total drift:                               -0.003367     -0.005049      0.003756


--------------------------------------------------------------------------------------------------------



  FREE ENERGIE OF THE ION-ELECTRON SYSTEM (eV)
  ---------------------------------------------------
  free  energy   TOTEN  =       -35.64205958 eV

  energy  without entropy=      -35.64205958  energy(sigma->0) =      -35.64205958
 


--------------------------------------------------------------------------------------------------------


    POTLOK:  cpu time   19.0391: real time   19.0248


--------------------------------------------------------------------------------------------------------


 NEB: the previous image is higher in energy: T
 NEB: the next image is higher in energy    : T
 NEB: image is at an extrema
 NEB: diff energy (min, max):     0.004648    0.298538

 NEB: Tangent
 ----------------------------------------------
      0.28918     -0.00400     -0.11061
      0.26714      0.00625     -0.08920
     -0.33063     -0.06447      0.03580
      0.04773      0.04575      0.10161
     -0.40152     -0.22390     -0.42037
      0.12812      0.24038      0.48277

 NEB: forces: par spring, perp REAL, dneb     0.639710    0.260052    0.000000
 NEB: distance to prev, next image, angle between     0.650757    0.522815   86.062806
 NEB: projections on to tangent (spring, REAL)    -0.639710    0.083372

 stress matrix after NEB project (eV)
     -1.38139      0.01339      0.15881
      0.01339     -1.02437     -0.00930
      0.15881     -0.00930     -1.10665
  FORCES: max atom, RMS     0.395967    0.281915
  FORCE total and by dimension    0.690547    0.361793
  Stress total and by dimension    2.057479    1.381390
 
 OPT: Flag T
 OPT: FIRE Step
 OPT: FIRE, TIMESTEP      0.10000
 OPT: FIRE, alpha         0.10000


--------------------------------------------------------------------------------------------------------


    WAVPRE:  cpu time    8.6207: real time    8.6146
 FEWALD executed in parallel
    FEWALD:  cpu time    0.0010: real time    0.0004
    ORTHCH:  cpu time    7.0319: real time    7.0262
     LOOP+:  cpu time 2408.1219: real time 2408.1534


----------------------------------------- Iteration    2(   1)  ---------------------------------------


    POTLOK:  cpu time   25.2822: real time   25.2627
    SETDIJ:  cpu time    0.0090: real time    0.0084
     EDDAV:  cpu time   73.1669: real time   73.1072
       DOS:  cpu time    0.0000: real time    0.0002
    CHARGE:  cpu time    6.3450: real time    6.3400
    MIXING:  cpu time    0.6699: real time    0.6704
    --------------------------------------------
      LOOP:  cpu time  105.4750: real time  105.3912

 eigenvalue-minimisations  :   104
 total energy-change (2. order) :-0.1216153E-03  (-0.7599787E-02)
 number of electron      15.9999999 magnetization 
 augmentation part        0.4479998 magnetization 

 Broyden mixing:
  rms(total) = 0.53461E-02    rms(broyden)= 0.53110E-02
  rms(prec ) = 0.54196E-02
  weight for this iteration     100.00

 Free energy of the ion-electron system (eV)
  ---------------------------------------------------
  alpha Z        PSCENC =         0.04144063
  Ewald energy   TEWEN  =       700.69077640
  -Hartree energ DENC   =     -1175.86625592
  -exchange      EXHF   =         0.00000000
  -V(xc)+E(xc)   XCENC  =        54.81317268
  PAW double counting   =      1319.00183159    -1321.86404902
  entropy T*S    EENTRO =         0.00000000
  eigenvalues    EBANDS =      -208.62440373
  atomic energy  EATOM  =       596.16534815
  Solvation  Ediel_sol  =         0.00000000
  ---------------------------------------------------
  free energy    TOTEN  =       -35.64213923 eV

  energy without entropy =      -35.64213923  energy(sigma->0) =      -35.64213923


--------------------------------------------------------------------------------------------------------




----------------------------------------- Iteration    2(   2)  ---------------------------------------


    POTLOK:  cpu time   23.1355: real time   23.1182
    SETDIJ:  cpu time    0.0090: real time    0.0083
     EDDAV:  cpu time   87.4897: real time   87.4181
       DOS:  cpu time    0.0000: real time    0.0002
    CHARGE:  cpu time    6.9939: real time    6.9889
    MIXING:  cpu time    0.6979: real time    0.6967
    --------------------------------------------
      LOOP:  cpu time  118.3280: real time  118.2339

 eigenvalue-minimisations  :   128
 total energy-change (2. order) :-0.3950931E-04  (-0.7839968E-04)
 number of electron      15.9999999 magnetization 
 augmentation part        0.4481239 magnetization 

 Broyden mixing:
  rms(total) = 0.37927E-02    rms(broyden)= 0.37886E-02
  rms(prec ) = 0.38555E-02
  weight for this iteration     100.00

 eigenvalues of (default mixing * dielectric matrix)
  average eigenvalue GAMMA=   1.5894
  1.5894

 Free energy of the ion-electron system (eV)
  ---------------------------------------------------
  alpha Z        PSCENC =         0.04144063
  Ewald energy   TEWEN  =       700.69077640
  -Hartree energ DENC   =     -1175.87366687
  -exchange      EXHF   =         0.00000000
  -V(xc)+E(xc)   XCENC  =        54.81358106
  PAW double counting   =      1319.07390651    -1321.93632486
  entropy T*S    EENTRO =         0.00000000
  eigenvalues    EBANDS =      -208.61723975
  atomic energy  EATOM  =       596.16534815
  Solvation  Ediel_sol  =         0.00000000
  ---------------------------------------------------
  free energy    TOTEN  =       -35.64217874 eV

  energy without entropy =      -35.64217874  energy(sigma->0) =      -35.64217874


--------------------------------------------------------------------------------------------------------




----------------------------------------- Iteration    2(   3)  ---------------------------------------


    POTLOK:  cpu time   22.2866: real time   22.2683
    SETDIJ:  cpu time    0.0080: real time    0.0082
     EDDAV:  cpu time   63.4034: real time   63.3527
       DOS:  cpu time    0.0000: real time    0.0002
    CHARGE:  cpu time    7.0189: real time    7.0133
    MIXING:  cpu time    0.7829: real time    0.7830
    --------------------------------------------
      LOOP:  cpu time   93.5018: real time   93.4296

 eigenvalue-minimisations  :    80
 total energy-change (2. order) :-0.1534714E-04  (-0.2603049E-05)
 number of electron      15.9999999 magnetization 
 augmentation part        0.4480946 magnetization 

 Broyden mixing:
  rms(total) = 0.11568E-02    rms(broyden)= 0.11562E-02
  rms(prec ) = 0.11739E-02
  weight for this iteration     100.00

 eigenvalues of (default mixing * dielectric matrix)
  average eigenvalue GAMMA=   1.6098
  1.0036  2.2161

 Free energy of the ion-electron system (eV)
  ---------------------------------------------------
  alpha Z        PSCENC =         0.04144063
  Ewald energy   TEWEN  =       700.69077640
  -Hartree energ DENC   =     -1175.89472336
  -exchange      EXHF   =         0.00000000
  -V(xc)+E(xc)   XCENC  =        54.81456215
  PAW double counting   =      1319.53053434    -1322.39334427
  entropy T*S    EENTRO =         0.00000000
  eigenvalues    EBANDS =      -208.59678813
  atomic energy  EATOM  =       596.16534815
  Solvation  Ediel_sol  =         0.00000000
  ---------------------------------------------------
  free energy    TOTEN  =       -35.64219408 eV

  energy without entropy =      -35.64219408  energy(sigma->0) =      -35.64219408


--------------------------------------------------------------------------------------------------------




----------------------------------------- Iteration    2(   4)  ---------------------------------------


    POTLOK:  cpu time   23.4514: real time   23.4330
    SETDIJ:  cpu time    0.0080: real time    0.0081
[...]
  ---------------------------------------------------
  free energy    TOTEN  =       -35.64366301 eV

  energy without entropy =      -35.64366301  energy(sigma->0) =      -35.64366301


--------------------------------------------------------------------------------------------------------




----------------------------------------- Iteration  135(   2)  ---------------------------------------


    POTLOK:  cpu time   29.5525: real time   29.5295
    SETDIJ:  cpu time    0.0080: real time    0.0083
     EDDAV:  cpu time   46.5599: real time   46.5219
       DOS:  cpu time    0.0000: real time    0.0002
    CHARGE:  cpu time    6.8490: real time    6.8431
    MIXING:  cpu time    0.8639: real time    0.8640
    --------------------------------------------
      LOOP:  cpu time   83.8353: real time   83.7703

 eigenvalue-minimisations  :    48
 total energy-change (2. order) :-0.8305960E-09  (-0.2924763E-08)
 number of electron      15.9999986 magnetization 
 augmentation part        0.4497737 magnetization 

 Broyden mixing:
  rms(total) = 0.47100E-05    rms(broyden)= 0.47059E-05
  rms(prec ) = 0.48297E-05
  weight for this iteration     100.00

 eigenvalues of (default mixing * dielectric matrix)
  average eigenvalue GAMMA=   0.9810
  0.9810

 Free energy of the ion-electron system (eV)
  ---------------------------------------------------
  alpha Z        PSCENC =         0.04144063
  Ewald energy   TEWEN  =       702.75713550
  -Hartree energ DENC   =     -1177.77153141
  -exchange      EXHF   =         0.00000000
  -V(xc)+E(xc)   XCENC  =        54.85969190
  PAW double counting   =      1328.50307998    -1331.37072353
  entropy T*S    EENTRO =         0.00000000
  eigenvalues    EBANDS =      -208.82810422
  atomic energy  EATOM  =       596.16534815
  Solvation  Ediel_sol  =         0.00000000
  ---------------------------------------------------
  free energy    TOTEN  =       -35.64366301 eV

  energy without entropy =      -35.64366301  energy(sigma->0) =      -35.64366301


--------------------------------------------------------------------------------------------------------




----------------------------------------- Iteration  135(   3)  ---------------------------------------


    POTLOK:  cpu time   27.1579: real time   27.1359
    SETDIJ:  cpu time    0.0080: real time    0.0085
     EDDAV:  cpu time   45.6801: real time   45.6428
       DOS:  cpu time    0.0000: real time    0.0002
    CHARGE:  cpu time    6.5780: real time    6.5729
    MIXING:  cpu time    0.7599: real time    0.7605
    --------------------------------------------
      LOOP:  cpu time   80.1868: real time   80.1243

 eigenvalue-minimisations  :    48
 total energy-change (2. order) :-0.7933068E-09  (-0.2665360E-08)
 number of electron      15.9999986 magnetization 
 augmentation part        0.4497736 magnetization 

 Broyden mixing:
  rms(total) = 0.30938E-05    rms(broyden)= 0.30931E-05
  rms(prec ) = 0.31753E-05
  weight for this iteration     100.00

 eigenvalues of (default mixing * dielectric matrix)
  average eigenvalue GAMMA=   1.5998
  1.0291  2.1704

 Free energy of the ion-electron system (eV)
  ---------------------------------------------------
  alpha Z        PSCENC =         0.04144063
  Ewald energy   TEWEN  =       702.75713550
  -Hartree energ DENC   =     -1177.77147438
  -exchange      EXHF   =         0.00000000
  -V(xc)+E(xc)   XCENC  =        54.85968863
  PAW double counting   =      1328.50214751    -1331.36978986
  entropy T*S    EENTRO =         0.00000000
  eigenvalues    EBANDS =      -208.82815918
  atomic energy  EATOM  =       596.16534815
  Solvation  Ediel_sol  =         0.00000000
  ---------------------------------------------------
  free energy    TOTEN  =       -35.64366301 eV

  energy without entropy =      -35.64366301  energy(sigma->0) =      -35.64366301


--------------------------------------------------------------------------------------------------------




----------------------------------------- Iteration  135(   4)  ---------------------------------------


    POTLOK:  cpu time   28.2907: real time   28.2683
    SETDIJ:  cpu time    0.0090: real time    0.0088
     EDDAV:  cpu time   46.6329: real time   46.5949
       DOS:  cpu time    0.0010: real time    0.0002
    CHARGE:  cpu time    6.3510: real time    6.3464
    MIXING:  cpu time    0.8269: real time    0.8262
    --------------------------------------------
      LOOP:  cpu time   82.1135: real time   82.0479

 eigenvalue-minimisations  :    48
 total energy-change (2. order) :-0.2077400E-08  (-0.2664737E-08)
 number of electron      15.9999986 magnetization 
 augmentation part        0.4497738 magnetization 

 Broyden mixing:
  rms(total) = 0.83443E-06    rms(broyden)= 0.83368E-06
  rms(prec ) = 0.87035E-06
  weight for this iteration     100.00

 eigenvalues of (default mixing * dielectric matrix)
  average eigenvalue GAMMA=   1.3639
  2.2244  0.9336  0.9336

 Free energy of the ion-electron system (eV)
  ---------------------------------------------------
  alpha Z        PSCENC =         0.04144063
  Ewald energy   TEWEN  =       702.75713550
  -Hartree energ DENC   =     -1177.77138429
  -exchange      EXHF   =         0.00000000
  -V(xc)+E(xc)   XCENC  =        54.85968377
  PAW double counting   =      1328.50073484    -1331.36837561
  entropy T*S    EENTRO =         0.00000000
  eigenvalues    EBANDS =      -208.82824600
  atomic energy  EATOM  =       596.16534815
  Solvation  Ediel_sol  =         0.00000000
  ---------------------------------------------------
  free energy    TOTEN  =       -35.64366301 eV

  energy without entropy =      -35.64366301  energy(sigma->0) =      -35.64366301


--------------------------------------------------------------------------------------------------------




----------------------------------------- Iteration  135(   5)  ---------------------------------------


    POTLOK:  cpu time   29.0036: real time   28.9800
    SETDIJ:  cpu time    0.0080: real time    0.0081
     EDDAV:  cpu time   46.1920: real time   46.1544
       DOS:  cpu time    0.0000: real time    0.0002
    CHARGE:  cpu time    6.4970: real time    6.4917
    MIXING:  cpu time    0.9459: real time    0.9453
    --------------------------------------------
      LOOP:  cpu time   82.6484: real time   82.5838

 eigenvalue-minimisations  :    48
 total energy-change (2. order) :-0.4868070E-09  (-0.2656269E-08)
 number of electron      15.9999986 magnetization 
 augmentation part        0.4497738 magnetization 

 Broyden mixing:
  rms(total) = 0.77655E-06    rms(broyden)= 0.77625E-06
  rms(prec ) = 0.80478E-06
  weight for this iteration     100.00

 eigenvalues of (default mixing * dielectric matrix)
  average eigenvalue GAMMA=   1.2602
  2.0973  1.1213  1.1213  0.7010

 Free energy of the ion-electron system (eV)
  ---------------------------------------------------
  alpha Z        PSCENC =         0.04144063
  Ewald energy   TEWEN  =       702.75713550
  -Hartree energ DENC   =     -1177.77139557
  -exchange      EXHF   =         0.00000000
  -V(xc)+E(xc)   XCENC  =        54.85968432
  PAW double counting   =      1328.50062988    -1331.36827077
  entropy T*S    EENTRO =         0.00000000
  eigenvalues    EBANDS =      -208.82823516
  atomic energy  EATOM  =       596.16534815
  Solvation  Ediel_sol  =         0.00000000
  ---------------------------------------------------
  free energy    TOTEN  =       -35.64366301 eV

  energy without entropy =      -35.64366301  energy(sigma->0) =      -35.64366301


--------------------------------------------------------------------------------------------------------




----------------------------------------- Iteration  135(   6)  ---------------------------------------


    POTLOK:  cpu time   27.1789: real time   27.1572
    SETDIJ:  cpu time    0.0080: real time    0.0084
     EDDAV:  cpu time   45.0621: real time   45.0263
       DOS:  cpu time    0.0000: real time    0.0002
    --------------------------------------------
      LOOP:  cpu time   72.2520: real time   72.1953

 eigenvalue-minimisations  :    48
 total energy-change (2. order) :-0.5400125E-09  (-0.2657230E-08)
 number of electron      15.9999986 magnetization 
 augmentation part        0.4497738 magnetization 

 Free energy of the ion-electron system (eV)
  ---------------------------------------------------
  alpha Z        PSCENC =         0.04144063
  Ewald energy   TEWEN  =       702.75713550
  -Hartree energ DENC   =     -1177.77140653
  -exchange      EXHF   =         0.00000000
  -V(xc)+E(xc)   XCENC  =        54.85968490
  PAW double counting   =      1328.50062466    -1331.36826571
  entropy T*S    EENTRO =         0.00000000
  eigenvalues    EBANDS =      -208.82822461
  atomic energy  EATOM  =       596.16534815
  Solvation  Ediel_sol  =         0.00000000
  ---------------------------------------------------
  free energy    TOTEN  =       -35.64366301 eV

  energy without entropy =      -35.64366301  energy(sigma->0) =      -35.64366301


--------------------------------------------------------------------------------------------------------




 average (electrostatic) potential at core
  the test charge radii are     0.5201  0.6991  0.7089
  (the norm of the test charge is              1.0000)
       1 -43.0791       2 -43.0778       3 -43.0787       4 -60.5351       5 -59.3474
       6 -74.8318
 
 
 
 E-fermi :  -6.1643     XC(G=0):  -0.0624     alpha+bet : -0.0137


 k-point     1 :       0.2500    0.2500    0.2500
  band No.  band energies     occupation 
      1     -23.8890      2.00000
      2     -19.2983      2.00000
      3     -13.8842      2.00000
      4     -11.7970      2.00000
      5     -11.7959      2.00000
      6      -8.3031      2.00000
      7      -8.3026      2.00000
      8      -7.1441      2.00000
      9      -0.7632      0.00000
     10      -0.6637      0.00000
     11      -0.6630      0.00000
     12       0.0228      0.00000

 k-point     2 :      -0.2500    0.2500    0.2500
  band No.  band energies     occupation 
      1     -23.8890      2.00000
      2     -19.2983      2.00000
      3     -13.8842      2.00000
      4     -11.7970      2.00000
      5     -11.7959      2.00000
      6      -8.3031      2.00000
      7      -8.3026      2.00000
      8      -7.1441      2.00000
      9      -0.7632      0.00000
     10      -0.6637      0.00000
     11      -0.6630      0.00000
     12       0.0226      0.00000

 k-point     3 :       0.2500   -0.2500    0.2500
  band No.  band energies     occupation 
      1     -23.8890      2.00000
      2     -19.2983      2.00000
      3     -13.8842      2.00000
      4     -11.7970      2.00000
      5     -11.7959      2.00000
      6      -8.3031      2.00000
      7      -8.3026      2.00000
      8      -7.1441      2.00000
      9      -0.7632      0.00000
     10      -0.6636      0.00000
     11      -0.6630      0.00000
     12       0.0228      0.00000

 k-point     4 :      -0.2500   -0.2500    0.2500
  band No.  band energies     occupation 
      1     -23.8890      2.00000
      2     -19.2983      2.00000
      3     -13.8842      2.00000
      4     -11.7970      2.00000
      5     -11.7959      2.00000
      6      -8.3031      2.00000
      7      -8.3026      2.00000
      8      -7.1441      2.00000
      9      -0.7632      0.00000
     10      -0.6637      0.00000
     11      -0.6630      0.00000
     12       0.0227      0.00000


--------------------------------------------------------------------------------------------------------


 soft charge-density along one line, spin component           1
         0         1         2         3         4         5         6         7         8         9
 total charge-density along one line
 
 pseudopotential strength for first ion, spin component:           1
 -2.363  -4.075  -0.002   0.000  -0.001
 -4.075  -6.942  -0.005   0.001  -0.002
 -0.002  -0.005  -0.330  -0.001   0.002
  0.000   0.001  -0.001  -0.334   0.000
 -0.001  -0.002   0.002   0.000  -0.333
 total augmentation occupancy for first ion, spin component:           1
  3.521  -0.634   0.412  -0.050   0.159
 -0.634   0.131  -0.076   0.009  -0.029
  0.412  -0.076   0.049  -0.005   0.017
 -0.050   0.009  -0.005   0.009  -0.001
  0.159  -0.029   0.017  -0.001   0.012


------------------------ aborting loop because EDIFF is reached ----------------------------------------


    CHARGE:  cpu time    6.2640: real time    6.2584
    FORLOC:  cpu time    2.8906: real time    2.8880
    FORNL :  cpu time   19.3161: real time   19.3010
    STRESS:  cpu time   59.5909: real time   59.5424
    FORCOR:  cpu time   24.5803: real time   24.5599
    FORHAR:  cpu time    8.8357: real time    8.8280
    MIXING:  cpu time    0.8079: real time    0.8067
    OFIELD:  cpu time    0.0000: real time    0.0000

  FORCE on cell =-STRESS in cart. coord.  units (eV):
  Direction    XX          YY          ZZ          XY          YZ          ZX
  --------------------------------------------------------------------------------------
  Alpha Z     0.04144     0.04144     0.04144
  Ewald     585.78559    39.74448    77.22676   -16.88785     4.47092  -143.64936
  Hartree   576.93667   290.56334   310.27141    -8.82635     2.33658   -75.18789
  E(xc)     -58.85397   -60.19533   -60.10365    -0.04162     0.01100    -0.35330
  Local   -1303.45725  -505.26128  -560.11991    24.65159    -6.52609   209.83176
  n-local   -26.54963   -24.37624   -24.51650     0.06874    -0.01696     0.56107
  augment     0.49304     0.99736     0.96436     0.01567    -0.00399     0.13339
  Kinetic   224.76692   257.49268   255.25158     1.01338    -0.26900     8.61684
  Fock        0.00000     0.00000     0.00000     0.00000     0.00000     0.00000
  -------------------------------------------------------------------------------------
  Total      -0.83720    -0.99353    -0.98450    -0.00645     0.00245    -0.04749
  in kB      -0.04968    -0.05896    -0.05842    -0.00038     0.00015    -0.00282
  external pressure =       -0.06 kB  Pullay stress =        0.00 kB


 VOLUME and BASIS-vectors are now :
 -----------------------------------------------------------------------------
  energy-cutoff  :      400.00
  volume of cell :    27000.00
      direct lattice vectors                 reciprocal lattice vectors
    30.000000000  0.000000000  0.000000000     0.033333333  0.000000000  0.000000000
     0.000000000 30.000000000  0.000000000     0.000000000  0.033333333  0.000000000
     0.000000000  0.000000000 30.000000000     0.000000000  0.000000000  0.033333333

  length of vectors
    30.000000000 30.000000000 30.000000000     0.033333333  0.033333333  0.033333333


 FORCES acting on ions
    electron-ion (+dipol)            ewald-force                    non-local-force                 convergence-correction
 -----------------------------------------------------------------------------------------------
   0.346E+02 0.565E+02 -.103E+02   -.366E+02 -.617E+02 0.110E+02   0.204E+01 0.526E+01 -.647E+00   0.319E-06 0.756E-06 -.390E-06
   0.453E+02 -.288E+02 0.401E+02   -.483E+02 0.315E+02 -.441E+02   0.303E+01 -.263E+01 0.401E+01   0.464E-06 -.325E-06 0.286E-06
   0.197E+02 -.307E+02 -.562E+02   -.203E+02 0.336E+02 0.611E+02   0.660E+00 -.281E+01 -.489E+01   0.224E-06 -.475E-06 -.899E-06
   0.117E+03 -.360E+01 -.310E+02   -.124E+03 0.383E+01 0.329E+02   0.732E+01 -.227E+00 -.194E+01   -.410E-06 -.426E-07 -.301E-06
   -.223E+03 0.694E+01 0.585E+02   0.249E+03 -.774E+01 -.652E+02   -.257E+02 0.801E+00 0.673E+01   0.127E-05 0.565E-06 -.162E-05
   0.160E+02 -.539E+00 -.363E+01   -.190E+02 0.639E+00 0.436E+01   0.300E+01 -.970E-01 -.720E+00   -.129E-04 0.986E-06 0.205E-05
 -----------------------------------------------------------------------------------------------
   0.966E+01 -.297E+00 -.254E+01   0.000E+00 0.000E+00 0.711E-14   -.966E+01 0.300E+00 0.254E+01   -.110E-04 0.146E-05 -.869E-06
 
 
 POSITION                                       TOTAL-FORCE (eV/Angst)
 -----------------------------------------------------------------------------------
     14.14720     13.99343     15.24612         0.002881     -0.000762     -0.001632
     13.95436     15.52476     14.34137         0.001863     -0.000284     -0.001682
     14.41497     15.55902     16.06992        -0.000839     -0.000230     -0.000036
     14.53506     15.01445     15.12275         0.000087      0.000368      0.000025
     17.04507     14.93663     14.46032         0.001805     -0.001183     -0.003011
     15.90363     14.97220     14.75947        -0.005797      0.002092      0.006336
 -----------------------------------------------------------------------------------
    total drift:                               -0.003769      0.003024      0.006639


--------------------------------------------------------------------------------------------------------



  FREE ENERGIE OF THE ION-ELECTRON SYSTEM (eV)
  ---------------------------------------------------
  free  energy   TOTEN  =       -35.64366301 eV

  energy  without entropy=      -35.64366301  energy(sigma->0) =      -35.64366301
 
 d Force = 0.2839635E-07[ 0.273E-07, 0.295E-07]  d Energy = 0.3608693E-07-0.769E-08
 d Force = 0.4404171E-03[ 0.440E-03, 0.440E-03]  d Ewald  = 0.4404172E-03-0.102E-09


--------------------------------------------------------------------------------------------------------


    POTLOK:  cpu time   22.8845: real time   22.8658


--------------------------------------------------------------------------------------------------------


 NEB: the previous image is higher in energy: T
 NEB: the next image is higher in energy    : T
 NEB: image is at an extrema
 NEB: diff energy (min, max):     0.000224    0.158934

 NEB: Tangent
 ----------------------------------------------
      0.30392     -0.12446     -0.33366
      0.13498      0.07198      0.10171
     -0.29934     -0.39239      0.17881
      0.03427     -0.03928      0.09471
     -0.25737      0.17026     -0.38001
      0.08357      0.31405      0.33851

 NEB: forces: par spring, perp REAL, dneb     0.011179    0.009414    0.000000
 NEB: distance to prev, next image, angle between     0.528468    0.526232  132.651521
 NEB: projections on to tangent (spring, REAL)    -0.011179    0.004697

 stress matrix after NEB project (eV)
     -0.83720     -0.00645     -0.04749
     -0.00645     -0.99353      0.00245
     -0.04749      0.00245     -0.98450
  FORCES: max atom, RMS     0.007749    0.005966
  FORCE total and by dimension    0.014615    0.007123
  Stress total and by dimension    1.631517    0.993534
 OPT: skip step - force has converged


--------------------------------------------------------------------------------------------------------


  
 reached required accuracy - stopping structural energy minimisation
     LOOP+:  cpu time  680.9385: real time  680.4132
    4ORBIT:  cpu time    0.0000: real time    0.0000

 total amount of memory used by VASP on root node  3203889. kBytes
========================================================================

   base      :      30000. kBytes
   nonlr-proj:        693. kBytes
   fftplans  :     924480. kBytes
   grid      :    1872000. kBytes
   one-center:         18. kBytes
   wavefun   :     376698. kBytes
 
  
  
 General timing and accounting informations for this job:
 ========================================================
  
                  Total CPU time used (sec):    97156.477
                            User time (sec):    95631.955
                          System time (sec):     1524.525
                         Elapsed time (sec):    97129.289
  
                   Maximum memory used (kb):     4750080.
                   Average memory used (kb):           0.
  
                          Minor page faults:    114914606
                          Major page faults:            9
                 Voluntary context switches:        16035
