unknown system                          
           1
    30.000000    0.000000    0.000000
     0.000000   30.000000    0.000000
     0.000000    0.000000   30.000000
   H    C    N 
   3   2   1
Direct configuration=     1
   0.47297950  0.46451778  0.50388553
   0.46404192  0.51892539  0.48119150
   0.48019105  0.51271386  0.53823761
   0.48459533  0.49929172  0.50435371
   0.56808096  0.50323612  0.48095047
   0.53012123  0.50133402  0.49138113
Direct configuration=     2
   0.47285627  0.46453332  0.50393261
   0.46393488  0.51891494  0.48123466
   0.48040686  0.51273582  0.53817663
   0.48460306  0.49926777  0.50428844
   0.56814034  0.50333326  0.48118363
   0.53006858  0.50123377  0.49118397
Direct configuration=     3
   0.47267370  0.46455623  0.50400220
   0.46377664  0.51889960  0.48129828
   0.48073295  0.51276923  0.53808533
   0.48460199  0.49923066  0.50419186
   0.56822815  0.50347807  0.48153175
   0.52999655  0.50108508  0.49089052
Direct configuration=     4
   0.47243214  0.46458433  0.50409338
   0.46356709  0.51888078  0.48138099
   0.48117309  0.51281396  0.53796406
   0.48458238  0.49917977  0.50406644
   0.56832782  0.50366946  0.48199798
   0.52992746  0.50089056  0.49049710
Direct configuration=     5
   0.47213469  0.46461422  0.50420390
   0.46330790  0.51886158  0.48148032
   0.48172980  0.51286842  0.53781318
   0.48454949  0.49911518  0.50391274
   0.56844698  0.50390700  0.48257552
   0.52984112  0.50065245  0.49001429
Direct configuration=     6
   0.47178330  0.46464413  0.50433401
   0.46300086  0.51884378  0.48159365
   0.48240712  0.51293241  0.53762939
   0.48451072  0.49903791  0.50373210
   0.56855826  0.50418639  0.48326932
   0.52974970  0.50037423  0.48944147
Direct configuration=     7
   0.47133631  0.46467968  0.50450108
   0.46261116  0.51882549  0.48173533
   0.48330331  0.51301276  0.53737845
   0.48447226  0.49894139  0.50350166
   0.56863082  0.50453556  0.48417797
   0.52965611  0.50002396  0.48870544
Direct configuration=     8
   0.47079006  0.46473568  0.50471159
   0.46214123  0.51880178  0.48191497
   0.48447733  0.51310848  0.53702485
   0.48444648  0.49882253  0.50320617
   0.56864766  0.50496374  0.48534438
   0.52950718  0.49958661  0.48779798
Direct configuration=     9
   0.47014544  0.46483984  0.50497499
   0.46160064  0.51876406  0.48214917
   0.48599739  0.51321621  0.53651926
   0.48440761  0.49867901  0.50284472
   0.56841772  0.50545719  0.48683259
   0.52944113  0.49906248  0.48667921
Direct configuration=    10
   0.46945945  0.46507143  0.50538729
   0.46110295  0.51866787  0.48234968
   0.48783155  0.51346260  0.53574538
   0.48442249  0.49856117  0.50242434
   0.56827323  0.50590034  0.48860029
   0.52892022  0.49835528  0.48549290
Direct configuration=    11
   0.46946077  0.46511564  0.50546099
   0.46114022  0.51864055  0.48229396
   0.48782362  0.51355845  0.53568656
   0.48438713  0.49858561  0.50244472
   0.56797380  0.50574765  0.48858938
   0.52922435  0.49837073  0.48552425
Direct configuration=    12
   0.46950106  0.46518735  0.50557589
   0.46123425  0.51860223  0.48218730
   0.48776924  0.51371520  0.53559809
   0.48436720  0.49863098  0.50247728
   0.56769737  0.50551546  0.48854098
   0.52944076  0.49836732  0.48562028
Direct configuration=    13
   0.46951262  0.46518925  0.50557885
   0.46124652  0.51860277  0.48217859
   0.48775594  0.51372197  0.53559824
   0.48437744  0.49863385  0.50247699
   0.56776810  0.50551500  0.48853197
   0.52934927  0.49835571  0.48563519
Direct configuration=    14
   0.46953403  0.46519409  0.50558714
   0.46127046  0.51860298  0.48216014
   0.48773073  0.51373838  0.53559712
   0.48439491  0.49864002  0.50247688
   0.56788655  0.50550806  0.48851449
   0.52919319  0.49833500  0.48566405
Direct configuration=    15
   0.46956351  0.46520458  0.50560677
   0.46130690  0.51860103  0.48212802
   0.48769442  0.51377233  0.53559150
   0.48441366  0.49865093  0.50247838
   0.56801114  0.50548061  0.48848817
   0.52902024  0.49830902  0.48570696
Direct configuration=    16
   0.46956448  0.46520589  0.50560953
   0.46130899  0.51860040  0.48212522
   0.48769269  0.51377637  0.53559033
   0.48441269  0.49865193  0.50247897
   0.56800493  0.50547503  0.48848664
   0.52902610  0.49830889  0.48570912
Direct configuration=    17
   0.46956643  0.46520848  0.50561502
   0.46131317  0.51859915  0.48211963
   0.48768921  0.51378443  0.53558800
   0.48441081  0.49865394  0.50248014
   0.56799296  0.50546394  0.48848357
   0.52903729  0.49830857  0.48571344
Direct configuration=    18
   0.46956943  0.46521235  0.50562325
   0.46131950  0.51859730  0.48211121
   0.48768388  0.51379650  0.53558455
   0.48440814  0.49865696  0.50248187
   0.56797610  0.50544747  0.48847892
   0.52905282  0.49830793  0.48571999
Direct configuration=    19
   0.46957359  0.46521746  0.50563418
   0.46132807  0.51859489  0.48209991
   0.48767654  0.51381258  0.53558004
   0.48440488  0.49866101  0.50248415
   0.56795566  0.50542578  0.48847263
   0.52907115  0.49830677  0.48572889
Direct configuration=    20
   0.46957904  0.46522378  0.50564781
   0.46133898  0.51859197  0.48208564
   0.48766695  0.51383270  0.53557454
   0.48440128  0.49866612  0.50248694
   0.56793344  0.50539908  0.48846456
   0.52909019  0.49830483  0.48574030
Direct configuration=    21
   0.46958595  0.46523123  0.50566407
   0.46135234  0.51858860  0.48206836
   0.48765488  0.51385679  0.53556816
   0.48439766  0.49867233  0.50249022
   0.56791165  0.50536769  0.48845461
   0.52910740  0.49830182  0.48575437
Direct configuration=    22
   0.46959537  0.46524066  0.50568490
   0.46136995  0.51858446  0.48204581
   0.48763846  0.51388780  0.53556026
   0.48439403  0.49868043  0.50249436
   0.56789074  0.50532817  0.48844136
   0.52912132  0.49829693  0.48577310
Direct configuration=    23
   0.46960789  0.46525227  0.50571096
   0.46139263  0.51857951  0.48201707
   0.48761661  0.51392680  0.53555075
   0.48439080  0.49869079  0.50249944
   0.56787403  0.50527965  0.48842410
   0.52912791  0.49828942  0.48579745
Direct configuration=    24
   0.46962412  0.46526632  0.50574309
   0.46142123  0.51857368  0.48198101
   0.48758810  0.51397508  0.53553953
   0.48438837  0.49870381  0.50250562
   0.56786507  0.50522102  0.48840201
   0.52912298  0.49827850  0.48582851
Direct configuration=    25
   0.46964467  0.46528320  0.50578252
   0.46145682  0.51856683  0.48193609
   0.48755137  0.51403459  0.53552637
   0.48438701  0.49872007  0.50251317
   0.56786680  0.50515037  0.48837398
   0.52910320  0.49826331  0.48586760
Direct configuration=    26
   0.46967020  0.46530359  0.50583135
   0.46150083  0.51855863  0.48188000
   0.48750431  0.51410841  0.53551078
   0.48438658  0.49874046  0.50252255
   0.56788025  0.50506423  0.48833854
   0.52906769  0.49824301  0.48591651
Direct configuration=    27
   0.46970125  0.46532858  0.50589278
   0.46155504  0.51854846  0.48180939
   0.48744419  0.51420127  0.53549194
   0.48438619  0.49876623  0.50253452
   0.56790243  0.50495670  0.48829359
   0.52902076  0.49821706  0.48597749
Direct configuration=    28
   0.46973807  0.46535946  0.50597080
   0.46162122  0.51853548  0.48172026
   0.48736781  0.51431901  0.53546889
   0.48438383  0.49879887  0.50255027
   0.56792452  0.50481980  0.48823650
   0.52897440  0.49818562  0.48605295
Direct configuration=    29
   0.46978061  0.46539708  0.50606879
   0.46170051  0.51851914  0.48160906
   0.48727207  0.51446676  0.53544140
   0.48437691  0.49883966  0.50257116
   0.56793493  0.50464597  0.48816464
   0.52894481  0.49814955  0.48614459
Direct configuration=    30
   0.46982900  0.46544194  0.50619006
   0.46179415  0.51849899  0.48147177
   0.48715267  0.51464983  0.53540988
   0.48436325  0.49889003  0.50259858
   0.56792753  0.50442814  0.48807437
   0.52894322  0.49810915  0.48625492
Direct configuration=    31
   0.46988452  0.46549425  0.50633798
   0.46190439  0.51847493  0.48130301
   0.48700210  0.51487445  0.53537593
   0.48434274  0.49895197  0.50263391
   0.56791192  0.50415924  0.48795938
   0.52896416  0.49806311  0.48638932
Direct configuration=    32
   0.46994964  0.46555308  0.50651391
   0.46203393  0.51844730  0.48109765
   0.48680998  0.51514485  0.53534296
   0.48431942  0.49902779  0.50267797
   0.56792145  0.50383630  0.48781077
   0.52897540  0.49800850  0.48655620
Direct configuration=    33
   0.47002634  0.46561737  0.50671678
   0.46218453  0.51841605  0.48085328
   0.48656639  0.51546174  0.53531479
   0.48429733  0.49911898  0.50273172
   0.56798625  0.50345870  0.48761880
   0.52894895  0.49794483  0.48676403
Direct configuration=    34
   0.47011482  0.46568881  0.50694935
   0.46235885  0.51837837  0.48056525
   0.48625655  0.51583118  0.53529382
   0.48427379  0.49922935  0.50279871
   0.56808723  0.50301160  0.48736895
   0.52891853  0.49787819  0.48702322
Direct configuration=    35
   0.47021264  0.46577165  0.50721125
   0.46255744  0.51832977  0.48023579
   0.48587029  0.51625329  0.53528005
   0.48424106  0.49936059  0.50288285
   0.56815617  0.50248041  0.48705163
   0.52897215  0.49782158  0.48733763
Direct configuration=    36
   0.47032512  0.46587032  0.50749279
   0.46278788  0.51826456  0.47987092
   0.48538396  0.51671807  0.53527655
   0.48420883  0.49951393  0.50298604
   0.56821437  0.50186268  0.48664151
   0.52908958  0.49778751  0.48773128
Direct configuration=    37
   0.47046347  0.46598697  0.50776976
   0.46305982  0.51817928  0.47948861
   0.48477977  0.51719572  0.53528720
   0.48420483  0.49968543  0.50310601
   0.56837464  0.50118126  0.48610882
   0.52912718  0.49778816  0.48823857
Direct configuration=    38
   0.47062726  0.46613309  0.50803046
   0.46338245  0.51806199  0.47910521
   0.48403969  0.51767167  0.53530623
   0.48421721  0.49987524  0.50325267
   0.56846750  0.50041737  0.48544097
   0.52927557  0.49785723  0.48886333
Direct configuration=    39
   0.47083231  0.46630529  0.50824473
   0.46377516  0.51790679  0.47873845
   0.48313712  0.51811199  0.53533855
   0.48425970  0.50008114  0.50343626
   0.56848249  0.49957992  0.48460195
   0.52952288  0.49803123  0.48963881
Direct configuration=    40
   0.47111389  0.46647217  0.50835916
   0.46426126  0.51772463  0.47840590
   0.48204614  0.51845829  0.53541170
   0.48436943  0.50029358  0.50366398
   0.56856995  0.49871344  0.48352390
   0.52964897  0.49835405  0.49063401
Direct configuration=    41
   0.47146110  0.46659829  0.50836490
   0.46482554  0.51753331  0.47810733
   0.48080326  0.51870004  0.53553902
   0.48445172  0.50051245  0.50395961
   0.56817150  0.49785021  0.48234090
   0.53029652  0.49882171  0.49168682
Direct configuration=    42
   0.47192984  0.46662494  0.50820104
   0.46548949  0.51737062  0.47785311
   0.47944306  0.51876728  0.53575648
   0.48470218  0.50071426  0.50428232
   0.56844254  0.49705206  0.48079166
   0.53000252  0.49948678  0.49311393
Direct configuration=    43
   0.47192052  0.46661844  0.50820736
   0.46549036  0.51737186  0.47785195
   0.47945009  0.51877440  0.53575504
   0.48462154  0.50071687  0.50430378
   0.56800992  0.49708176  0.48094386
   0.53051720  0.49945262  0.49293653
Direct configuration=    44
   0.47194441  0.46657892  0.50817008
   0.46551570  0.51738920  0.47786449
   0.47945282  0.51873302  0.53577718
   0.48455505  0.50070879  0.50433469
   0.56752794  0.49715351  0.48108315
   0.53101373  0.49945252  0.49276895
Direct configuration=    45
   0.47195171  0.46657443  0.50816241
   0.46552080  0.51739155  0.47786617
   0.47945207  0.51872515  0.53578107
   0.48457372  0.50070633  0.50433165
   0.56764217  0.49715188  0.48104072
   0.53086917  0.49946662  0.49281652
Direct configuration=    46
   0.47196449  0.46656607  0.50814891
   0.46553005  0.51739587  0.47786912
   0.47945130  0.51871143  0.53578814
   0.48460611  0.50070181  0.50432641
   0.56783485  0.49715000  0.48096934
   0.53062284  0.49949079  0.49289663
Direct configuration=    47
   0.47197932  0.46655442  0.50813316
   0.46554234  0.51740166  0.47787254
   0.47945309  0.51869594  0.53579707
   0.48464382  0.50069569  0.50432018
   0.56804967  0.49715031  0.48089195
   0.53034140  0.49951795  0.49298365
Direct configuration=    48
   0.47197844  0.46655442  0.50813413
   0.46554223  0.51740159  0.47787227
   0.47945416  0.51869713  0.53579675
   0.48464237  0.50069570  0.50432027
   0.56804193  0.49715066  0.48089606
   0.53035051  0.49951649  0.49297907
Direct configuration=    49
   0.47197607  0.46655471  0.50813684
   0.46554176  0.51740125  0.47787147
   0.47945682  0.51870042  0.53579571
   0.48463951  0.50069582  0.50432026
   0.56802761  0.49715087  0.48090484
   0.53036789  0.49951291  0.49296943
Direct configuration=    50
   0.47197226  0.46655526  0.50814123
   0.46554097  0.51740068  0.47787018
   0.47946104  0.51870572  0.53579399
   0.48463541  0.50069604  0.50432011
   0.56800760  0.49715094  0.48091791
   0.53039236  0.49950734  0.49295514
Direct configuration=    51
   0.47196711  0.46655604  0.50814720
   0.46553991  0.51739990  0.47786841
   0.47946687  0.51871295  0.53579161
   0.48463035  0.50069631  0.50431979
   0.56798325  0.49715085  0.48093481
   0.53042215  0.49949993  0.49293674
Direct configuration=    52
   0.47196064  0.46655701  0.50815474
   0.46553865  0.51739892  0.47786615
   0.47947442  0.51872210  0.53578857
   0.48462466  0.50069660  0.50431920
   0.56795641  0.49715057  0.48095505
   0.53045486  0.49949079  0.49291484
Direct configuration=    53
   0.47195273  0.46655812  0.50816403
   0.46553725  0.51739777  0.47786334
   0.47948409  0.51873339  0.53578479
   0.48461880  0.50069682  0.50431818
   0.56792978  0.49714998  0.48097818
   0.53048699  0.49947990  0.49289002
Direct configuration=    54
   0.47194251  0.46655941  0.50817617
   0.46553570  0.51739635  0.47785961
   0.47949747  0.51874823  0.53577976
   0.48461301  0.50069687  0.50431640
   0.56790572  0.49714883  0.48100554
   0.53051523  0.49946627  0.49286107
Direct configuration=    55
   0.47194233  0.46655942  0.50817639
   0.46553571  0.51739634  0.47785954
   0.47949781  0.51874852  0.53577966
   0.48461310  0.50069684  0.50431631
   0.56790648  0.49714877  0.48100574
   0.53051420  0.49946608  0.49286091
Direct configuration=    56
   0.47194200  0.46655942  0.50817682
   0.46553574  0.51739632  0.47785940
   0.47949848  0.51874905  0.53577946
   0.48461330  0.50069678  0.50431615
   0.56790796  0.49714868  0.48100611
   0.53051217  0.49946572  0.49286062
Direct configuration=    57
   0.47194155  0.46655940  0.50817739
   0.46553579  0.51739630  0.47785920
   0.47949944  0.51874979  0.53577919
   0.48461358  0.50069668  0.50431592
   0.56791011  0.49714856  0.48100662
   0.53050916  0.49946524  0.49286022
Direct configuration=    58
   0.47194102  0.46655933  0.50817808
   0.46553589  0.51739629  0.47785897
   0.47950068  0.51875067  0.53577888
   0.48461396  0.50069652  0.50431563
   0.56791286  0.49714847  0.48100725
   0.53050523  0.49946466  0.49285973
Direct configuration=    59
   0.47194045  0.46655920  0.50817882
   0.46553606  0.51739632  0.47785872
   0.47950216  0.51875164  0.53577855
   0.48461443  0.50069631  0.50431531
   0.56791610  0.49714844  0.48100797
   0.53050044  0.49946404  0.49285919
Direct configuration=    60
   0.47193987  0.46655899  0.50817957
   0.46553632  0.51739639  0.47785846
   0.47950387  0.51875265  0.53577821
   0.48461497  0.50069604  0.50431495
   0.56791973  0.49714850  0.48100878
   0.53049487  0.49946340  0.49285858
Direct configuration=    61
   0.47193926  0.46655864  0.50818038
   0.46553673  0.51739652  0.47785818
   0.47950601  0.51875376  0.53577785
   0.48461565  0.50069564  0.50431454
   0.56792408  0.49714871  0.48100978
   0.53048791  0.49946269  0.49285782
Direct configuration=    62
   0.47193860  0.46655810  0.50818127
   0.46553732  0.51739674  0.47785786
   0.47950872  0.51875503  0.53577747
   0.48461645  0.50069509  0.50431406
   0.56792911  0.49714913  0.48101112
   0.53047943  0.49946187  0.49285677
Direct configuration=    63
   0.47193785  0.46655734  0.50818229
   0.46553815  0.51739707  0.47785750
   0.47951220  0.51875650  0.53577703
   0.48461734  0.50069434  0.50431351
   0.56793468  0.49714985  0.48101304
   0.53046941  0.49946086  0.49285517
Direct configuration=    64
   0.47193695  0.46655629  0.50818350
   0.46553927  0.51739753  0.47785708
   0.47951667  0.51875828  0.53577652
   0.48461823  0.50069333  0.50431287
   0.56794041  0.49715098  0.48101594
   0.53045810  0.49945955  0.49285263
Direct configuration=    65
   0.47193584  0.46655493  0.50818498
   0.46554068  0.51739813  0.47785660
   0.47952236  0.51876043  0.53577589
   0.48461897  0.50069204  0.50431217
   0.56794561  0.49715262  0.48102024
   0.53044618  0.49945780  0.49284867
Direct configuration=    66
   0.47193448  0.46655325  0.50818676
   0.46554239  0.51739889  0.47785604
   0.47952933  0.51876301  0.53577512
   0.48461938  0.50069046  0.50431141
   0.56794953  0.49715485  0.48102628
   0.53043453  0.49945550  0.49284294
Direct configuration=    67
   0.47193282  0.46655127  0.50818887
   0.46554436  0.51739978  0.47785542
   0.47953765  0.51876604  0.53577418
   0.48461930  0.50068858  0.50431063
   0.56795150  0.49715771  0.48103435
   0.53042401  0.49945257  0.49283510
Direct configuration=    68
   0.47193081  0.46654897  0.50819137
   0.46554659  0.51740083  0.47785472
   0.47954745  0.51876956  0.53577303
   0.48461855  0.50068640  0.50430984
   0.56795090  0.49716130  0.48104480
   0.53041534  0.49944890  0.49282478
Direct configuration=    69
   0.47192842  0.46654632  0.50819428
   0.46554908  0.51740204  0.47785397
   0.47955897  0.51877360  0.53577165
   0.48461694  0.50068387  0.50430904
   0.56794717  0.49716575  0.48105802
   0.53040907  0.49944437  0.49281158
Direct configuration=    70
   0.47192558  0.46654323  0.50819765
   0.46555187  0.51740346  0.47785318
   0.47957254  0.51877819  0.53576997
   0.48461427  0.50068093  0.50430823
   0.56794008  0.49717128  0.48107443
   0.53040531  0.49943886  0.49279509
Direct configuration=    71
   0.47192227  0.46653958  0.50820148
   0.46555501  0.51740517  0.47785238
   0.47958874  0.51878330  0.53576794
   0.48461037  0.50067746  0.50430736
   0.56792997  0.49717820  0.48109441
   0.53040328  0.49943225  0.49277497
Direct configuration=    72
   0.47191851  0.46653509  0.50820571
   0.46555864  0.51740733  0.47785168
   0.47960851  0.51878881  0.53576549
   0.48460516  0.50067315  0.50430631
   0.56791880  0.49718707  0.48111809
   0.53040002  0.49942450  0.49275127
Direct configuration=    73
   0.47191451  0.46652961  0.50821003
   0.46556274  0.51741008  0.47785118
   0.47963208  0.51879429  0.53576268
   0.48459913  0.50066793  0.50430491
   0.56791049  0.49719803  0.48114425
   0.53039069  0.49941600  0.49272548
Direct configuration=    74
   0.47191050  0.46652309  0.50821411
   0.46556717  0.51741348  0.47785102
   0.47965926  0.51879930  0.53575965
   0.48459267  0.50066179  0.50430309
   0.56790799  0.49721112  0.48117158
   0.53037205  0.49940718  0.49269910
Direct configuration=    75
   0.47190652  0.46651537  0.50821768
   0.46557163  0.51741768  0.47785133
   0.47969030  0.51880335  0.53575648
   0.48458582  0.50065466  0.50430070
   0.56791247  0.49722676  0.48119978
   0.53034290  0.49939813  0.49267259
Direct configuration=    76
   0.47190240  0.46650600  0.50822038
   0.46557537  0.51742307  0.47785245
   0.47972649  0.51880568  0.53575328
   0.48457760  0.50064623  0.50429756
   0.56792163  0.49724652  0.48123048
   0.53030615  0.49938845  0.49264440
Direct configuration=    77
   0.47189757  0.46649493  0.50822217
   0.46557714  0.51742980  0.47785458
   0.47976794  0.51880590  0.53575027
   0.48456647  0.50063658  0.50429372
   0.56792539  0.49727153  0.48126694
   0.53027513  0.49937721  0.49261087
Direct configuration=    78
   0.47189187  0.46648228  0.50822279
   0.46557606  0.51743785  0.47785779
   0.47981362  0.51880357  0.53574775
   0.48455224  0.50062599  0.50428920
   0.56791878  0.49730198  0.48130986
   0.53025706  0.49936429  0.49257115
Direct configuration=    79
   0.47188548  0.46646735  0.50822059
   0.46557019  0.51744784  0.47786288
   0.47986318  0.51879611  0.53574679
   0.48453636  0.50061415  0.50428330
   0.56790510  0.49734004  0.48135737
   0.53024933  0.49935047  0.49252762
Direct configuration=    80
   0.47188556  0.46646704  0.50821994
   0.46556949  0.51744813  0.47786322
   0.47986336  0.51879509  0.53574714
   0.48453681  0.50061398  0.50428301
   0.56790661  0.49734100  0.48135684
   0.53024782  0.49935072  0.49252839
Direct configuration=    81
   0.47188582  0.46646638  0.50821852
   0.46556812  0.51744874  0.47786395
   0.47986361  0.51879292  0.53574792
   0.48453765  0.50061362  0.50428249
   0.56790926  0.49734299  0.48135574
   0.53024517  0.49935132  0.49252994
Direct configuration=    82
   0.47188637  0.46646532  0.50821620
   0.46556614  0.51744968  0.47786511
   0.47986385  0.51878942  0.53574918
   0.48453878  0.50061306  0.50428179
   0.56791242  0.49734614  0.48135411
   0.53024208  0.49935234  0.49253217
Direct configuration=    83
   0.47188730  0.46646383  0.50821286
   0.46556360  0.51745099  0.47786678
   0.47986393  0.51878447  0.53575098
   0.48454005  0.50061229  0.50428099
   0.56791529  0.49735055  0.48135203
   0.53023947  0.49935385  0.49253491
Direct configuration=    84
   0.47188848  0.46646197  0.50820866
   0.46556047  0.51745260  0.47786891
   0.47986397  0.51877822  0.53575325
   0.48454127  0.50061132  0.50428012
   0.56791726  0.49735618  0.48134988
   0.53023818  0.49935568  0.49253774
Direct configuration=    85
   0.47188978  0.46645982  0.50820377
   0.46555677  0.51745447  0.47787149
   0.47986407  0.51877092  0.53575589
   0.48454228  0.50061017  0.50427917
   0.56791805  0.49736295  0.48134796
   0.53023871  0.49935765  0.49254029
Direct configuration=    86
   0.47189117  0.46645717  0.50819776
   0.46555198  0.51745677  0.47787481
   0.47986437  0.51876184  0.53575914
   0.48454302  0.50060872  0.50427801
   0.56791764  0.49737164  0.48134632
   0.53024146  0.49935984  0.49254251
Direct configuration=    87
   0.47189250  0.46645399  0.50819055
   0.46554580  0.51745954  0.47787906
   0.47986516  0.51875078  0.53576306
   0.48454341  0.50060689  0.50427655
   0.56791634  0.49738266  0.48134521
   0.53024644  0.49936213  0.49254413
Direct configuration=    88
   0.47189348  0.46645023  0.50818206
   0.46553782  0.51746283  0.47788448
   0.47986690  0.51873750  0.53576765
   0.48454345  0.50060457  0.50427458
   0.56791554  0.49739652  0.48134479
   0.53025246  0.49936435  0.49254500
Direct configuration=    89
   0.47189401  0.46644584  0.50817212
   0.46552788  0.51746666  0.47789127
   0.47986986  0.51872174  0.53577294
   0.48454336  0.50060164  0.50427200
   0.56791750  0.49741356  0.48134480
   0.53025703  0.49936655  0.49254543
Direct configuration=    90
   0.47189387  0.46644083  0.50816075
   0.46551591  0.51747101  0.47789958
   0.47987439  0.51870350  0.53577889
   0.48454337  0.50059798  0.50426873
   0.56792387  0.49743403  0.48134528
   0.53025824  0.49936864  0.49254535
Direct configuration=    91
   0.47189247  0.46643523  0.50814807
   0.46550150  0.51747585  0.47790969
   0.47988123  0.51868280  0.53578538
   0.48454325  0.50059339  0.50426472
   0.56793462  0.49745860  0.48134734
   0.53025657  0.49937015  0.49254338
Direct configuration=    92
   0.47188886  0.46642921  0.50813460
   0.46548424  0.51748106  0.47792181
   0.47989142  0.51866016  0.53579212
   0.48454246  0.50058761  0.50425989
   0.56794623  0.49748785  0.48135373
   0.53025643  0.49937012  0.49253642
Direct configuration=    93
   0.47188219  0.46642300  0.50812105
   0.46546402  0.51748647  0.47793582
   0.47990581  0.51863651  0.53579864
   0.48454075  0.50058044  0.50425425
   0.56795610  0.49752196  0.48136688
   0.53026078  0.49936764  0.49252194
Direct configuration=    94
   0.47187142  0.46641672  0.50810805
   0.46544064  0.51749189  0.47795188
   0.47992604  0.51861252  0.53580437
   0.48453902  0.50057168  0.50424744
   0.56796740  0.49756130  0.48138811
   0.53026513  0.49936193  0.49249874
Direct configuration=    95
   0.47185594  0.46641052  0.50809617
   0.46541432  0.51749713  0.47797005
   0.47995359  0.51858892  0.53580868
   0.48453886  0.50056128  0.50423896
   0.56798731  0.49760556  0.48141699
   0.53025964  0.49935264  0.49246774
Direct configuration=    96
   0.47183469  0.46640470  0.50808631
   0.46538498  0.51750190  0.47799060
   0.47999073  0.51856659  0.53581063
   0.48453973  0.50054908  0.50422833
   0.56801301  0.49765535  0.48145709
   0.53024651  0.49933844  0.49242564
Direct configuration=    97
   0.47180710  0.46639986  0.50807949
   0.46535265  0.51750593  0.47801342
   0.48003975  0.51854661  0.53580909
   0.48453872  0.50053509  0.50421558
   0.56803146  0.49771101  0.48151428
   0.53023998  0.49931758  0.49236674
Direct configuration=    98
   0.47177368  0.46639621  0.50807570
   0.46531752  0.51750942  0.47803867
   0.48010412  0.51852866  0.53580308
   0.48453671  0.50051860  0.50419916
   0.56805682  0.49777297  0.48158644
   0.53022080  0.49929022  0.49229555
Direct configuration=    99
   0.47173497  0.46639337  0.50807495
   0.46527826  0.51751338  0.47806508
   0.48018700  0.51851238  0.53579169
   0.48453249  0.50049926  0.50417860
   0.56808910  0.49784158  0.48167463
   0.53018784  0.49925612  0.49221366
Direct configuration=   100
   0.47169185  0.46638977  0.50807724
   0.46523283  0.51751892  0.47808995
   0.48028670  0.51849776  0.53577585
   0.48452049  0.50047825  0.50415565
   0.56809740  0.49791642  0.48178381
   0.53018039  0.49921496  0.49211610
Direct configuration=   101
   0.47169251  0.46638899  0.50807651
   0.46523233  0.51751949  0.47808962
   0.48028782  0.51849679  0.53577597
   0.48452212  0.50047809  0.50415491
   0.56810804  0.49791699  0.48178096
   0.53016684  0.49921575  0.49212065
Direct configuration=   102
   0.47169330  0.46638746  0.50807545
   0.46523075  0.51752063  0.47808877
   0.48029083  0.51849523  0.53577599
   0.48452362  0.50047780  0.50415353
   0.56812045  0.49791849  0.48177859
   0.53015071  0.49921648  0.49212628
Direct configuration=   103
   0.47169318  0.46638739  0.50807552
   0.46523049  0.51752069  0.47808867
   0.48029125  0.51849528  0.53577592
   0.48452315  0.50047779  0.50415349
   0.56811843  0.49791869  0.48177949
   0.53015317  0.49921626  0.49212552
Direct configuration=   104
   0.47169295  0.46638725  0.50807565
   0.46522998  0.51752081  0.47808848
   0.48029206  0.51849534  0.53577578
   0.48452229  0.50047777  0.50415338
   0.56811480  0.49791907  0.48178117
   0.53015757  0.49921584  0.49212416
Direct configuration=   105
   0.47169266  0.46638701  0.50807579
   0.46522921  0.51752102  0.47808820
   0.48029333  0.51849539  0.53577557
   0.48452117  0.50047772  0.50415316
   0.56811033  0.49791967  0.48178341
   0.53016297  0.49921528  0.49212248
Direct configuration=   106
   0.47169234  0.46638658  0.50807588
   0.46522805  0.51752138  0.47808777
   0.48029532  0.51849530  0.53577528
   0.48451995  0.50047761  0.50415269
   0.56810639  0.49792058  0.48178599
   0.53016763  0.49921463  0.49212100
Direct configuration=   107
   0.47169234  0.46638656  0.50807587
   0.46522801  0.51752140  0.47808775
   0.48029540  0.51849528  0.53577527
   0.48451996  0.50047760  0.50415266
   0.56810660  0.49792062  0.48178598
   0.53016735  0.49921463  0.49212108
Direct configuration=   108
   0.47169234  0.46638652  0.50807585
   0.46522792  0.51752144  0.47808772
   0.48029557  0.51849525  0.53577525
   0.48451999  0.50047758  0.50415259
   0.56810702  0.49792069  0.48178598
   0.53016682  0.49921462  0.49212122
Direct configuration=   109
   0.47169233  0.46638646  0.50807584
   0.46522779  0.51752149  0.47808767
   0.48029583  0.51849521  0.53577522
   0.48452003  0.50047756  0.50415248
   0.56810763  0.49792079  0.48178600
   0.53016606  0.49921459  0.49212141
Direct configuration=   110
   0.47169229  0.46638639  0.50807584
   0.46522760  0.51752155  0.47808760
   0.48029621  0.51849519  0.53577516
   0.48452006  0.50047753  0.50415233
   0.56810841  0.49792091  0.48178607
   0.53016510  0.49921453  0.49212162
Direct configuration=   111
   0.47169221  0.46638631  0.50807588
   0.46522734  0.51752162  0.47808750
   0.48029671  0.51849520  0.53577507
   0.48452009  0.50047749  0.50415213
   0.56810932  0.49792105  0.48178622
   0.53016399  0.49921442  0.49212182
Direct configuration=   112
   0.47169206  0.46638623  0.50807598
   0.46522701  0.51752169  0.47808736
   0.48029736  0.51849527  0.53577494
   0.48452009  0.50047745  0.50415189
   0.56811031  0.49792121  0.48178650
   0.53016282  0.49921424  0.49212196
Direct configuration=   113
   0.47169180  0.46638616  0.50807617
   0.46522655  0.51752177  0.47808716
   0.48029828  0.51849545  0.53577472
   0.48452004  0.50047741  0.50415156
   0.56811144  0.49792139  0.48178701
   0.53016154  0.49921392  0.49212199
Direct configuration=   114
   0.47169138  0.46638611  0.50807653
   0.46522593  0.51752185  0.47808689
   0.48029951  0.51849579  0.53577440
   0.48451993  0.50047737  0.50415113
   0.56811265  0.49792157  0.48178785
   0.53016027  0.49921341  0.49212182
Direct configuration=   115
   0.47169073  0.46638611  0.50807709
   0.46522510  0.51752191  0.47808652
   0.48030114  0.51849636  0.53577392
   0.48451971  0.50047734  0.50415059
   0.56811386  0.49792174  0.48178914
   0.53015912  0.49921264  0.49212135
Direct configuration=   116
   0.47168980  0.46638617  0.50807794
   0.46522402  0.51752195  0.47808603
   0.48030326  0.51849723  0.53577326
   0.48451936  0.50047732  0.50414991
   0.56811497  0.49792189  0.48179102
   0.53015825  0.49921154  0.49212046
Direct configuration=   117
   0.47168850  0.46638632  0.50807914
   0.46522265  0.51752195  0.47808539