  22  22   0   0
  0.1227273E+04  0.3000000E-08  0.3000000E-08  0.3000000E-08  0.0000000E+00
  1.000000000000000E-004
  CAR 
 unknown system                          
      2.19668991    -28.23226620  301     -4.49728422      1.00000000
    -28.232  0.0000E+00  0.0000E+00
    -28.131  0.0000E+00  0.0000E+00
    -28.029  0.0000E+00  0.0000E+00
    -27.928  0.0000E+00  0.0000E+00
    -27.827  0.0000E+00  0.0000E+00
    -27.725  0.0000E+00  0.0000E+00
    -27.624  0.0000E+00  0.0000E+00
    -27.522  0.0000E+00  0.0000E+00
    -27.421  0.0000E+00  0.0000E+00
    -27.319  0.4926E-15  0.4996E-16
    -27.218  0.1037E-12  0.1057E-13
    -27.117  0.1315E-10  0.1344E-11
    -27.015  0.1006E-08  0.1034E-09
    -26.914  0.4656E-07  0.4826E-08
    -26.812  0.1304E-05  0.1371E-06
    -26.711  0.2214E-04  0.2382E-05
    -26.609  0.2283E-03  0.2554E-04
    -26.508  0.1432E-02  0.1708E-03
    -26.407  0.5476E-02  0.7262E-03
    -26.305  0.1277E-01  0.2022E-02
    -26.204  0.1820E-01  0.3867E-02
    -26.102  0.1584E-01  0.5474E-02
    -26.001  0.8473E-02  0.6334E-02
    -25.899  0.3201E-02  0.6658E-02
    -25.798  0.3002E-02  0.6963E-02
    -25.697  0.7936E-02  0.7768E-02
    -25.595  0.1537E-01  0.9327E-02
    -25.494  0.1832E-01  0.1118E-01
    -25.392  0.1334E-01  0.1254E-01
    -25.291  0.5935E-02  0.1314E-01
    -25.189  0.1611E-02  0.1330E-01
    -25.088  0.2665E-03  0.1333E-01
    -24.987  0.2683E-04  0.1333E-01
    -24.885  0.1640E-05  0.1333E-01
    -24.784  0.6082E-07  0.1333E-01
    -24.682  0.1365E-08  0.1333E-01
    -24.581  0.1852E-10  0.1333E-01
    -24.479  0.2201E-12  0.1333E-01
    -24.378  0.9042E-11  0.1333E-01
    -24.277  0.7210E-09  0.1333E-01
    -24.175  0.3474E-07  0.1333E-01
    -24.074  0.1013E-05  0.1333E-01
    -23.972  0.1792E-04  0.1334E-01
    -23.871  0.1924E-03  0.1335E-01
    -23.769  0.1257E-02  0.1348E-01
    -23.668  0.5002E-02  0.1399E-01
    -23.566  0.1215E-01  0.1522E-01
    -23.465  0.1801E-01  0.1705E-01
    -23.364  0.1631E-01  0.1870E-01
    -23.262  0.9027E-02  0.1962E-01
    -23.161  0.3061E-02  0.1993E-01
    -23.059  0.7682E-03  0.2001E-01
    -22.958  0.1063E-02  0.2011E-01
    -22.856  0.4219E-02  0.2054E-01
    -22.755  0.1100E-01  0.2166E-01
    -22.654  0.1753E-01  0.2344E-01
    -22.552  0.1707E-01  0.2517E-01
    -22.451  0.1015E-01  0.2620E-01
    -22.349  0.3688E-02  0.2657E-01
    -22.248  0.8169E-03  0.2665E-01
    -22.146  0.1102E-03  0.2667E-01
    -22.045  0.9040E-05  0.2667E-01
    -21.944  0.4502E-06  0.2667E-01
    -21.842  0.1358E-07  0.2667E-01
    -21.741  0.2480E-09  0.2667E-01
    -21.639  0.2735E-11  0.2667E-01
    -21.538  0.1820E-13  0.2667E-01
    -21.436  0.7297E-16  0.2667E-01
    -21.335  0.0000E+00  0.2667E-01
    -21.234  0.0000E+00  0.2667E-01
    -21.132  0.0000E+00  0.2667E-01
    -21.031  0.0000E+00  0.2667E-01
    -20.929  0.0000E+00  0.2667E-01
    -20.828  0.0000E+00  0.2667E-01
    -20.726  0.1569E-15  0.2667E-01
    -20.625  0.3643E-13  0.2667E-01
    -20.524  0.5119E-11  0.2667E-01
    -20.422  0.4341E-09  0.2667E-01
    -20.321  0.2225E-07  0.2667E-01
    -20.219  0.6897E-06  0.2667E-01
    -20.118  0.1296E-04  0.2667E-01
    -20.016  0.1479E-03  0.2668E-01
    -19.915  0.1026E-02  0.2679E-01
    -19.814  0.4340E-02  0.2723E-01
    -19.712  0.1119E-01  0.2836E-01
    -19.611  0.1762E-01  0.3015E-01
    -19.509  0.1695E-01  0.3187E-01
    -19.408  0.9962E-02  0.3288E-01
    -19.306  0.3574E-02  0.3324E-01
    -19.205  0.7820E-03  0.3332E-01
    -19.104  0.1042E-03  0.3333E-01
    -19.002  0.8447E-05  0.3333E-01
    -18.901  0.5331E-06  0.3333E-01
    -18.799  0.2902E-05  0.3333E-01
    -18.698  0.4301E-04  0.3334E-01
    -18.596  0.3889E-03  0.3338E-01
    -18.495  0.2141E-02  0.3359E-01
    -18.394  0.7184E-02  0.3432E-01
    -18.292  0.1471E-01  0.3582E-01
    -18.191  0.1840E-01  0.3768E-01
    -18.089  0.1406E-01  0.3911E-01
    -17.988  0.6581E-02  0.3978E-01
    -17.886  0.2061E-02  0.3998E-01
    -17.785  0.1580E-02  0.4015E-01
    -17.684  0.5034E-02  0.4066E-01
    -17.582  0.1214E-01  0.4189E-01
    -17.481  0.1801E-01  0.4371E-01
    -17.379  0.1632E-01  0.4537E-01
    -17.278  0.9030E-02  0.4628E-01
    -17.176  0.3051E-02  0.4659E-01
    -17.075  0.6285E-03  0.4666E-01
    -16.974  0.7885E-04  0.4667E-01
    -16.872  0.6013E-05  0.4667E-01
    -16.771  0.2783E-06  0.4667E-01
    -16.669  0.7834E-08  0.4667E-01
    -16.568  0.2217E-08  0.4667E-01
    -16.466  0.8809E-07  0.4667E-01
    -16.365  0.2254E-05  0.4667E-01
    -16.264  0.3497E-04  0.4667E-01
    -16.162  0.3297E-03  0.4670E-01
    -16.061  0.1892E-02  0.4690E-01
    -15.959  0.6616E-02  0.4757E-01
    -15.858  0.1412E-01  0.4900E-01
    -15.756  0.1840E-01  0.5087E-01
    -15.655  0.1466E-01  0.5235E-01
    -15.554  0.7129E-02  0.5308E-01
    -15.452  0.2126E-02  0.5329E-01
    -15.351  0.5061E-03  0.5334E-01
    -15.249  0.9331E-03  0.5344E-01
    -15.148  0.3927E-02  0.5384E-01
    -15.046  0.1054E-01  0.5490E-01
    -14.945  0.1729E-01  0.5666E-01
    -14.844  0.1733E-01  0.5842E-01
    -14.742  0.1061E-01  0.5949E-01
    -14.641  0.3965E-02  0.5989E-01
    -14.539  0.9110E-03  0.5999E-01
    -14.438  0.2173E-03  0.6001E-01
    -14.336  0.7186E-03  0.6008E-01
    -14.235  0.3327E-02  0.6042E-01
    -14.134  0.9531E-02  0.6139E-01
    -14.032  0.1667E-01  0.6308E-01
    -13.931  0.1781E-01  0.6488E-01
    -13.829  0.1163E-01  0.6606E-01
    -13.728  0.4636E-02  0.6653E-01
    -13.626  0.1130E-02  0.6665E-01
    -13.525  0.2049E-03  0.6667E-01
    -13.424  0.3670E-03  0.6671E-01
    -13.322  0.1988E-02  0.6691E-01
    -13.221  0.6836E-02  0.6760E-01
    -13.119  0.1435E-01  0.6906E-01
    -13.018  0.1841E-01  0.7092E-01
    -12.916  0.1445E-01  0.7239E-01
    -12.815  0.7184E-02  0.7312E-01
    -12.713  0.3691E-02  0.7349E-01
    -12.612  0.6454E-02  0.7415E-01
    -12.511  0.1359E-01  0.7553E-01
    -12.409  0.1854E-01  0.7741E-01
    -12.308  0.1644E-01  0.7908E-01
    -12.206  0.1266E-01  0.8036E-01
    -12.105  0.1448E-01  0.8183E-01
    -12.003  0.1844E-01  0.8370E-01
    -11.902  0.1640E-01  0.8536E-01
    -11.801  0.9095E-02  0.8628E-01
    -11.699  0.3305E-02  0.8662E-01
    -11.598  0.2137E-02  0.8684E-01
    -11.496  0.6129E-02  0.8746E-01
    -11.395  0.1564E-01  0.8904E-01
    -11.293  0.2686E-01  0.9177E-01
    -11.192  0.3188E-01  0.9500E-01
    -11.091  0.2660E-01  0.9770E-01
    -10.989  0.1574E-01  0.9930E-01
    -10.888  0.8348E-02  0.1001E+00
    -10.786  0.9440E-02  0.1011E+00
    -10.685  0.1579E-01  0.1027E+00
    -10.583  0.1901E-01  0.1046E+00
    -10.482  0.1667E-01  0.1063E+00
    -10.381  0.1678E-01  0.1080E+00
    -10.279  0.2472E-01  0.1105E+00
    -10.178  0.3550E-01  0.1141E+00
    -10.076  0.4153E-01  0.1183E+00
     -9.975  0.3841E-01  0.1222E+00
     -9.873  0.2707E-01  0.1250E+00
     -9.772  0.1614E-01  0.1266E+00
     -9.671  0.1464E-01  0.1281E+00
     -9.569  0.2224E-01  0.1304E+00
     -9.468  0.3238E-01  0.1336E+00
     -9.366  0.4051E-01  0.1378E+00
     -9.265  0.4235E-01  0.1421E+00
     -9.163  0.3658E-01  0.1458E+00
     -9.062  0.3103E-01  0.1489E+00
     -8.961  0.3070E-01  0.1520E+00
     -8.859  0.3089E-01  0.1552E+00
     -8.758  0.2740E-01  0.1579E+00
     -8.656  0.2276E-01  0.1602E+00
     -8.555  0.2131E-01  0.1624E+00
     -8.453  0.1996E-01  0.1644E+00
     -8.352  0.1385E-01  0.1658E+00
     -8.251  0.6167E-02  0.1665E+00
     -8.149  0.1695E-02  0.1666E+00
     -8.048  0.2848E-03  0.1667E+00
     -7.946  0.2913E-04  0.1667E+00
     -7.845  0.1810E-05  0.1667E+00
     -7.743  0.6823E-07  0.1667E+00
     -7.642  0.2214E-08  0.1667E+00
     -7.541  0.3204E-07  0.1667E+00
     -7.439  0.9445E-06  0.1667E+00
     -7.338  0.1689E-04  0.1667E+00
     -7.236  0.1834E-03  0.1667E+00
     -7.135  0.1211E-02  0.1668E+00
     -7.033  0.4875E-02  0.1673E+00
     -6.932  0.1197E-01  0.1685E+00
     -6.831  0.1795E-01  0.1703E+00
     -6.729  0.1646E-01  0.1720E+00
     -6.628  0.9447E-02  0.1730E+00
     -6.526  0.4674E-02  0.1734E+00
     -6.425  0.6391E-02  0.1741E+00
     -6.323  0.1319E-01  0.1754E+00
     -6.222  0.1837E-01  0.1773E+00
     -6.121  0.1626E-01  0.1789E+00
     -6.019  0.1139E-01  0.1801E+00
     -5.918  0.1209E-01  0.1813E+00
     -5.816  0.1764E-01  0.1831E+00
     -5.715  0.2055E-01  0.1852E+00
     -5.613  0.1997E-01  0.1872E+00
     -5.512  0.2039E-01  0.1893E+00
     -5.411  0.1938E-01  0.1913E+00
     -5.309  0.1312E-01  0.1926E+00
     -5.208  0.5628E-02  0.1932E+00
     -5.106  0.1485E-02  0.1933E+00
     -5.005  0.2393E-03  0.1933E+00
     -4.903  0.2346E-04  0.1933E+00
     -4.802  0.1398E-05  0.1933E+00
     -4.701  0.5048E-07  0.1933E+00
     -4.599  0.1104E-08  0.1933E+00
     -4.498  0.1458E-10  0.1933E+00
     -4.396  0.1163E-12  0.1933E+00
     -4.295  0.5619E-15  0.1933E+00
     -4.193  0.0000E+00  0.1933E+00
     -4.092  0.0000E+00  0.1933E+00
     -3.991  0.0000E+00  0.1933E+00
     -3.889  0.0000E+00  0.1933E+00
     -3.788  0.0000E+00  0.1933E+00
     -3.686  0.0000E+00  0.1933E+00
     -3.585  0.0000E+00  0.1933E+00
     -3.483  0.0000E+00  0.1933E+00
     -3.382  0.0000E+00  0.1933E+00
     -3.281  0.0000E+00  0.1933E+00
     -3.179  0.0000E+00  0.1933E+00
     -3.078  0.0000E+00  0.1933E+00
     -2.976  0.0000E+00  0.1933E+00
     -2.875  0.0000E+00  0.1933E+00
     -2.773  0.0000E+00  0.1933E+00
     -2.672  0.0000E+00  0.1933E+00
     -2.571  0.0000E+00  0.1933E+00
     -2.469  0.0000E+00  0.1933E+00
     -2.368  0.0000E+00  0.1933E+00
     -2.266  0.3795E-15  0.1933E+00
     -2.165  0.8152E-13  0.1933E+00
     -2.063  0.1059E-10  0.1933E+00
     -1.962  0.8298E-09  0.1933E+00
     -1.861  0.3931E-07  0.1933E+00
     -1.759  0.1127E-05  0.1933E+00
     -1.658  0.1960E-04  0.1933E+00
     -1.556  0.2072E-03  0.1934E+00
     -1.455  0.1335E-02  0.1935E+00
     -1.353  0.5288E-02  0.1940E+00
     -1.252  0.1311E-01  0.1954E+00
     -1.150  0.2139E-01  0.1975E+00
     -1.049  0.2560E-01  0.2001E+00
     -0.948  0.2543E-01  0.2027E+00
     -0.846  0.2097E-01  0.2048E+00
     -0.745  0.1368E-01  0.2062E+00
     -0.643  0.1032E-01  0.2073E+00
     -0.542  0.1523E-01  0.2088E+00
     -0.440  0.2497E-01  0.2113E+00
     -0.339  0.3593E-01  0.2150E+00
     -0.238  0.4927E-01  0.2200E+00
     -0.136  0.6461E-01  0.2265E+00
     -0.035  0.8258E-01  0.2349E+00
      0.067  0.1044E+00  0.2455E+00
      0.168  0.1138E+00  0.2571E+00
      0.270  0.9089E-01  0.2663E+00
      0.371  0.4863E-01  0.2712E+00
      0.472  0.1679E-01  0.2729E+00
      0.574  0.3675E-02  0.2733E+00
      0.675  0.5046E-03  0.2733E+00
      0.777  0.4315E-04  0.2733E+00
      0.878  0.2284E-05  0.2733E+00
      0.980  0.7438E-07  0.2733E+00
      1.081  0.1484E-08  0.2733E+00
      1.182  0.1808E-10  0.2733E+00
      1.284  0.1340E-12  0.2733E+00
      1.385  0.6020E-15  0.2733E+00
      1.487  0.0000E+00  0.2733E+00
      1.588  0.0000E+00  0.2733E+00
      1.690  0.0000E+00  0.2733E+00
      1.791  0.0000E+00  0.2733E+00
      1.892  0.0000E+00  0.2733E+00
      1.994  0.0000E+00  0.2733E+00
      2.095  0.0000E+00  0.2733E+00
      2.197  0.0000E+00  0.2733E+00
