   22   22  300    1
  0.1227273E+04  0.3000000E-08  0.3000000E-08  0.3000000E-08  0.0000000E+00
  1.000000000000000E-004
  CAR 
 unknown system                          
     58      4     41
 
  0.2500000E+00  0.2500000E+00  0.2500000E+00  0.2500000E+00
    1      -26.232262   1.000000
    2      -25.558890   1.000000
    3      -23.485420   1.000000
    4      -22.659097   1.000000
    5      -19.618712   1.000000
    6      -18.246074   1.000000
    7      -17.501015   1.000000
    8      -15.803270   1.000000
    9      -14.944538   1.000000
   10      -14.018436   1.000000
   11      -13.067999   1.000000
   12      -12.447961   1.000000
   13      -12.023276   1.000000
   14      -11.322045   1.000000
   15      -11.166840   1.000000
   16      -10.650654   1.000000
   17      -10.263195   1.000000
   18      -10.105547   1.000000
   19       -9.986606   1.000000
   20       -9.558701   1.000000
   21       -9.354081   1.000000
   22       -9.283267   1.000000
   23       -9.014542   1.000000
   24       -8.824743   1.000000
   25       -8.515378   1.000000
   26       -6.848642   1.000000
   27       -6.254942   1.000000
   28       -5.801582   1.000000
   29       -5.481102   1.000000
   30       -1.174299   0.000000
   31       -0.933359   0.000000
   32       -0.467557   0.000000
   33       -0.249530   0.000000
   34       -0.176954   0.000000
   35       -0.082627   0.000000
   36        0.034175   0.000000
   37        0.121920   0.000000
   38        0.124386   0.000000
   39        0.130436   0.000000
   40        0.171556   0.000000
   41        0.191476   0.000000
 
 -0.2500000E+00  0.2500000E+00  0.2500000E+00  0.2500000E+00
    1      -26.232265   1.000000
    2      -25.558890   1.000000
    3      -23.485417   1.000000
    4      -22.659098   1.000000
    5      -19.618710   1.000000
    6      -18.246075   1.000000
    7      -17.501012   1.000000
    8      -15.803271   1.000000
    9      -14.944539   1.000000
   10      -14.018441   1.000000
   11      -13.068001   1.000000
   12      -12.447958   1.000000
   13      -12.023281   1.000000
   14      -11.322061   1.000000
   15      -11.166835   1.000000
   16      -10.650654   1.000000
   17      -10.263195   1.000000
   18      -10.105545   1.000000
   19       -9.986606   1.000000
   20       -9.558711   1.000000
   21       -9.354075   1.000000
   22       -9.283262   1.000000
   23       -9.014552   1.000000
   24       -8.824744   1.000000
   25       -8.515381   1.000000
   26       -6.848636   1.000000
   27       -6.254944   1.000000
   28       -5.801592   1.000000
   29       -5.481086   1.000000
   30       -1.174323   0.000000
   31       -0.933360   0.000000
   32       -0.467545   0.000000
   33       -0.249518   0.000000
   34       -0.177049   0.000000
   35       -0.082678   0.000000
   36        0.038654   0.000000
   37        0.103165   0.000000
   38        0.120915   0.000000
   39        0.140021   0.000000
   40        0.182642   0.000000
   41        0.189349   0.000000
 
  0.2500000E+00 -0.2500000E+00  0.2500000E+00  0.2500000E+00
    1      -26.232265   1.000000
    2      -25.558890   1.000000
    3      -23.485422   1.000000
    4      -22.659097   1.000000
    5      -19.618709   1.000000
    6      -18.246075   1.000000
    7      -17.501015   1.000000
    8      -15.803270   1.000000
    9      -14.944535   1.000000
   10      -14.018443   1.000000
   11      -13.067993   1.000000
   12      -12.447959   1.000000
   13      -12.023277   1.000000
   14      -11.322053   1.000000
   15      -11.166836   1.000000
   16      -10.650653   1.000000
   17      -10.263198   1.000000
   18      -10.105546   1.000000
   19       -9.986601   1.000000
   20       -9.558707   1.000000
   21       -9.354087   1.000000
   22       -9.283267   1.000000
   23       -9.014545   1.000000
   24       -8.824751   1.000000
   25       -8.515382   1.000000
   26       -6.848639   1.000000
   27       -6.254939   1.000000
   28       -5.801596   1.000000
   29       -5.481091   1.000000
   30       -1.174319   0.000000
   31       -0.933356   0.000000
   32       -0.467549   0.000000
   33       -0.249516   0.000000
   34       -0.177011   0.000000
   35       -0.082812   0.000000
   36        0.039804   0.000000
   37        0.098462   0.000000
   38        0.125060   0.000000
   39        0.138039   0.000000
   40        0.183995   0.000000
   41        0.192614   0.000000
 
 -0.2500000E+00 -0.2500000E+00  0.2500000E+00  0.2500000E+00
    1      -26.232266   1.000000
    2      -25.558892   1.000000
    3      -23.485418   1.000000
    4      -22.659097   1.000000
    5      -19.618709   1.000000
    6      -18.246074   1.000000
    7      -17.501016   1.000000
    8      -15.803271   1.000000
    9      -14.944536   1.000000
   10      -14.018438   1.000000
   11      -13.067994   1.000000
   12      -12.447962   1.000000
   13      -12.023278   1.000000
   14      -11.322063   1.000000
   15      -11.166834   1.000000
   16      -10.650654   1.000000
   17      -10.263199   1.000000
   18      -10.105544   1.000000
   19       -9.986606   1.000000
   20       -9.558706   1.000000
   21       -9.354080   1.000000
   22       -9.283261   1.000000
   23       -9.014543   1.000000
   24       -8.824749   1.000000
   25       -8.515382   1.000000
   26       -6.848657   1.000000
   27       -6.254934   1.000000
   28       -5.801586   1.000000
   29       -5.481084   1.000000
   30       -1.174319   0.000000
   31       -0.933359   0.000000
   32       -0.467545   0.000000
   33       -0.249535   0.000000
   34       -0.176962   0.000000
   35       -0.082976   0.000000
   36        0.040024   0.000000
   37        0.100794   0.000000
   38        0.127908   0.000000
   39        0.136993   0.000000
   40        0.171804   0.000000
   41        0.196690   0.000000
