       N       E                     dE             d eps       ncg     rms          rms(c)
DAV:   1     0.609245332789E+03    0.60925E+03   -0.79798E+03   392   0.485E+02
DAV:   2     0.271710151752E+03   -0.33754E+03   -0.32714E+03   579   0.909E+01
DAV:   3    -0.463108944645E+02   -0.31802E+03   -0.30838E+03   504   0.110E+02
DAV:   4    -0.136317912879E+03   -0.90007E+02   -0.89758E+02   395   0.796E+01
DAV:   5    -0.141718861661E+03   -0.54009E+01   -0.53878E+01   464   0.227E+01    0.195E+01
DAV:   6    -0.131606830193E+03    0.10112E+02   -0.23752E+01   404   0.198E+01    0.997E+00
DAV:   7    -0.129848734072E+03    0.17581E+01   -0.45292E+00   432   0.830E+00    0.513E+00
DAV:   8    -0.129357732186E+03    0.49100E+00   -0.87143E-01   424   0.406E+00    0.152E+00
DAV:   9    -0.129289495490E+03    0.68237E-01   -0.97589E-02   464   0.152E+00    0.563E-01
DAV:  10    -0.129277544920E+03    0.11951E-01   -0.23393E-02   444   0.792E-01    0.260E-01
DAV:  11    -0.129271833445E+03    0.57115E-02   -0.75668E-03   438   0.444E-01    0.160E-01
DAV:  12    -0.129272190162E+03   -0.35672E-03   -0.53802E-03   422   0.350E-01    0.969E-02
DAV:  13    -0.129278338868E+03   -0.61487E-02   -0.42000E-03   432   0.323E-01    0.573E-02
DAV:  14    -0.129285179225E+03   -0.68404E-02   -0.19966E-03   428   0.216E-01    0.368E-02
DAV:  15    -0.129292567196E+03   -0.73880E-02   -0.75061E-04   430   0.104E-01    0.240E-02
DAV:  16    -0.129298457612E+03   -0.58904E-02   -0.46159E-04   332   0.671E-02    0.132E-02
DAV:  17    -0.129300876060E+03   -0.24184E-02   -0.11002E-04   368   0.355E-02    0.881E-03
DAV:  18    -0.129302715266E+03   -0.18392E-02   -0.12152E-04   356   0.307E-02    0.536E-03
DAV:  19    -0.129303653974E+03   -0.93871E-03   -0.52778E-05   368   0.198E-02    0.319E-03
DAV:  20    -0.129304076597E+03   -0.42262E-03   -0.17199E-05   366   0.133E-02    0.195E-03
DAV:  21    -0.129304293474E+03   -0.21688E-03   -0.78526E-06   302   0.801E-03    0.117E-03
DAV:  22    -0.129304430125E+03   -0.13665E-03   -0.37479E-06   302   0.618E-03    0.880E-04
DAV:  23    -0.129304468968E+03   -0.38844E-04   -0.93201E-07   352   0.324E-03
   1 F= -.12930447E+03 E0= -.12930447E+03  d E =-.129304E+03
       N       E                     dE             d eps       ncg     rms          rms(c)
DAV:   1    -0.129307414500E+03   -0.29844E-02   -0.58042E-02   348   0.126E+00    0.502E-02
DAV:   2    -0.129307523088E+03   -0.10859E-03   -0.13406E-03   464   0.163E-01    0.284E-02
DAV:   3    -0.129307527444E+03   -0.43558E-05   -0.20381E-05   336   0.263E-02    0.167E-02
DAV:   4    -0.129307541431E+03   -0.13987E-04   -0.18850E-05   303   0.237E-02    0.322E-03
DAV:   5    -0.129307544136E+03   -0.27046E-05   -0.37269E-06   272   0.105E-02    0.198E-03
DAV:   6    -0.129307546138E+03   -0.20024E-05   -0.55315E-07   254   0.400E-03
   2 F= -.12930755E+03 E0= -.12930755E+03  d E =-.307717E-02
       N       E                     dE             d eps       ncg     rms          rms(c)
DAV:   1    -0.129312423376E+03   -0.48792E-02   -0.20999E-01   336   0.239E+00    0.954E-02
DAV:   2    -0.129312778622E+03   -0.35525E-03   -0.47051E-03   371   0.308E-01    0.540E-02
DAV:   3    -0.129312788844E+03   -0.10222E-04   -0.10083E-04   368   0.546E-02    0.322E-02
DAV:   4    -0.129312819091E+03   -0.30247E-04   -0.69336E-05   324   0.463E-02    0.657E-03
DAV:   5    -0.129312820797E+03   -0.17067E-05   -0.14683E-05   272   0.210E-02    0.403E-03
DAV:   6    -0.129312821934E+03   -0.11368E-05   -0.23624E-06   268   0.818E-03
   3 F= -.12931282E+03 E0= -.12931282E+03  d E =-.527580E-02
       N       E                     dE             d eps       ncg     rms          rms(c)
DAV:   1    -0.129318559482E+03   -0.57387E-02   -0.42281E-01   330   0.338E+00    0.136E-01
DAV:   2    -0.129319263490E+03   -0.70401E-03   -0.94937E-03   347   0.440E-01    0.786E-02
DAV:   3    -0.129319279215E+03   -0.15725E-04   -0.20785E-04   334   0.799E-02    0.471E-02
DAV:   4    -0.129319337837E+03   -0.58623E-04   -0.14840E-04   333   0.681E-02    0.982E-03
DAV:   5    -0.129319340847E+03   -0.30093E-05   -0.32718E-05   280   0.314E-02    0.585E-03
DAV:   6    -0.129319342939E+03   -0.20924E-05   -0.53362E-06   268   0.116E-02
   4 F= -.12931934E+03 E0= -.12931934E+03  d E =-.652100E-02
       N       E                     dE             d eps       ncg     rms          rms(c)
DAV:   1    -0.129324917990E+03   -0.55771E-02   -0.67112E-01   329   0.424E+00    0.172E-01
DAV:   2    -0.129326046522E+03   -0.11285E-02   -0.15150E-02   363   0.557E-01    0.999E-02
DAV:   3    -0.129326067065E+03   -0.20543E-04   -0.34478E-04   371   0.101E-01    0.594E-02
DAV:   4    -0.129326156785E+03   -0.89720E-04   -0.19494E-04   317   0.807E-02    0.120E-02
DAV:   5    -0.129326163355E+03   -0.65703E-05   -0.47818E-05   296   0.375E-02    0.760E-03
DAV:   6    -0.129326166369E+03   -0.30138E-05   -0.54807E-06   260   0.127E-02
   5 F= -.12932617E+03 E0= -.12932617E+03  d E =-.682343E-02
       N       E                     dE             d eps       ncg     rms          rms(c)
DAV:   1    -0.129331180412E+03   -0.50171E-02   -0.90333E-01   328   0.492E+00    0.199E-01
DAV:   2    -0.129332728630E+03   -0.15482E-02   -0.20376E-02   355   0.645E-01    0.117E-01
DAV:   3    -0.129332744438E+03   -0.15808E-04   -0.44069E-04   394   0.114E-01    0.687E-02
DAV:   4    -0.129332871166E+03   -0.12673E-03   -0.27825E-04   365   0.936E-02    0.138E-02
DAV:   5    -0.129332878729E+03   -0.75625E-05   -0.53871E-05   270   0.396E-02    0.886E-03
DAV:   6    -0.129332883076E+03   -0.43475E-05   -0.64324E-06   299   0.134E-02
   6 F= -.12933288E+03 E0= -.12933288E+03  d E =-.671671E-02
       N       E                     dE             d eps       ncg     rms          rms(c)
DAV:   1    -0.129337680320E+03   -0.48016E-02   -0.10730E+00   328   0.537E+00    0.215E-01
DAV:   2    -0.129339508339E+03   -0.18280E-02   -0.23816E-02   355   0.699E-01    0.130E-01
DAV:   3    -0.129339515074E+03   -0.67357E-05   -0.50071E-04   419   0.121E-01    0.759E-02
DAV:   4    -0.129339670557E+03   -0.15548E-03   -0.31800E-04   396   0.994E-02    0.142E-02
DAV:   5    -0.129339679876E+03   -0.93187E-05   -0.56562E-05   270   0.402E-02    0.975E-03
DAV:   6    -0.129339685330E+03   -0.54538E-05   -0.66226E-06   299   0.136E-02
   7 F= -.12933969E+03 E0= -.12933969E+03  d E =-.680225E-02
       N       E                     dE             d eps       ncg     rms          rms(c)
DAV:   1    -0.129345078181E+03   -0.53983E-02   -0.14927E+00   328   0.634E+00    0.251E-01
DAV:   2    -0.129347606369E+03   -0.25282E-02   -0.32552E-02   396   0.815E-01    0.158E-01
DAV:   3    -0.129347566613E+03    0.39756E-04   -0.54327E-04   460   0.133E-01    0.905E-02
DAV:   4    -0.129347778243E+03   -0.21163E-03   -0.38682E-04   396   0.109E-01    0.157E-02
DAV:   5    -0.129347791635E+03   -0.13392E-04   -0.63645E-05   287   0.421E-02    0.111E-02
DAV:   6    -0.129347798963E+03   -0.73280E-05   -0.74424E-06   334   0.146E-02
   8 F= -.12934780E+03 E0= -.12934780E+03  d E =-.811363E-02
       N       E                     dE             d eps       ncg     rms          rms(c)
DAV:   1    -0.129354104190E+03   -0.63126E-02   -0.21114E+00   328   0.752E+00    0.295E-01
DAV:   2    -0.129357569555E+03   -0.34654E-02   -0.44594E-02   396   0.954E-01    0.191E-01
DAV:   3    -0.129357487074E+03    0.82482E-04   -0.70420E-04   460   0.151E-01    0.107E-01
DAV:   4    -0.129357790942E+03   -0.30387E-03   -0.52537E-04   398   0.126E-01    0.175E-02
DAV:   5    -0.129357806829E+03   -0.15886E-04   -0.85494E-05   287   0.486E-02    0.123E-02
DAV:   6    -0.129357817515E+03   -0.10686E-04   -0.10127E-05   331   0.174E-02
   9 F= -.12935782E+03 E0= -.12935782E+03  d E =-.100186E-01
       N       E                     dE             d eps       ncg     rms          rms(c)
DAV:   1    -0.129364509117E+03   -0.67023E-02   -0.30392E+00   328   0.899E+00    0.351E-01
DAV:   2    -0.129369307818E+03   -0.47987E-02   -0.61938E-02   396   0.112E+00    0.232E-01
DAV:   3    -0.129369168524E+03    0.13929E-03   -0.98955E-04   460   0.177E-01    0.128E-01
DAV:   4    -0.129369574769E+03   -0.40624E-03   -0.73848E-04   431   0.148E-01    0.211E-02
DAV:   5    -0.129369596047E+03   -0.21278E-04   -0.12184E-04   335   0.569E-02    0.140E-02
DAV:   6    -0.129369609298E+03   -0.13250E-04   -0.98948E-06   332   0.172E-02
  10 F= -.12936961E+03 E0= -.12936961E+03  d E =-.117918E-01
       N       E                     dE             d eps       ncg     rms          rms(c)
DAV:   1    -0.129374746628E+03   -0.51506E-02   -0.44117E+00   328   0.108E+01    0.424E-01
DAV:   2    -0.129381800754E+03   -0.70541E-02   -0.89521E-02   420   0.134E+00    0.283E-01
DAV:   3    -0.129381556595E+03    0.24416E-03   -0.15031E-03   460   0.217E-01    0.157E-01
DAV:   4    -0.129382078159E+03   -0.52156E-03   -0.10793E-03   438   0.176E-01    0.264E-02
DAV:   5    -0.129382108999E+03   -0.30839E-04   -0.17549E-04   368   0.684E-02    0.169E-02
DAV:   6    -0.129382125244E+03   -0.16246E-04   -0.14167E-05   332   0.206E-02
  11 F= -.12938213E+03 E0= -.12938213E+03  d E =-.125159E-01
       N       E                     dE             d eps       ncg     rms          rms(c)
DAV:   1    -0.129383506838E+03   -0.13978E-02   -0.63291E+00   328   0.129E+01    0.511E-01
DAV:   2    -0.129393781413E+03   -0.10275E-01   -0.12985E-01   396   0.161E+00    0.340E-01
DAV:   3    -0.129393407847E+03    0.37357E-03   -0.22204E-03   461   0.264E-01    0.190E-01
DAV:   4    -0.129394117204E+03   -0.70936E-03   -0.15646E-03   431   0.213E-01    0.315E-02
DAV:   5    -0.129394164239E+03   -0.47036E-04   -0.26110E-04   392   0.822E-02    0.208E-02
DAV:   6    -0.129394181870E+03   -0.17631E-04   -0.14758E-05   334   0.215E-02
  12 F= -.12939418E+03 E0= -.12939418E+03  d E =-.120566E-01
       N       E                     dE             d eps       ncg     rms          rms(c)
DAV:   1    -0.129387015571E+03    0.71487E-02   -0.90905E+00   328   0.155E+01    0.607E-01
DAV:   2    -0.129403094344E+03   -0.16079E-01   -0.20132E-01   396   0.200E+00    0.413E-01
DAV:   3    -0.129402276575E+03    0.81777E-03   -0.32814E-03   462   0.318E-01    0.241E-01
DAV:   4    -0.129403160320E+03   -0.88375E-03   -0.25743E-03   427   0.281E-01    0.405E-02
DAV:   5    -0.129403246436E+03   -0.86117E-04   -0.50050E-04   464   0.111E-01    0.287E-02
DAV:   6    -0.129403276002E+03   -0.29566E-04   -0.23095E-05   350   0.258E-02
  13 F= -.12940328E+03 E0= -.12940328E+03  d E =-.909413E-02
       N       E                     dE             d eps       ncg     rms          rms(c)
DAV:   1    -0.129324991827E+03    0.78255E-01   -0.17789E+01   328   0.221E+01    0.974E-01
DAV:   2    -0.129369557839E+03   -0.44566E-01   -0.57226E-01   393   0.343E+00    0.668E-01
DAV:   3    -0.129364872085E+03    0.46858E-02   -0.12960E-02   464   0.640E-01    0.415E-01
DAV:   4    -0.129363882486E+03    0.98960E-03   -0.84098E-03   431   0.507E-01    0.974E-02
DAV:   5    -0.129364093051E+03   -0.21056E-03   -0.18994E-03   464   0.218E-01    0.525E-02
DAV:   6    -0.129364146913E+03   -0.53862E-04   -0.13066E-04   368   0.635E-02
  14 F= -.12936415E+03 E0= -.12936415E+03  d E =0.391291E-01
       N       E                     dE             d eps       ncg     rms          rms(c)
DAV:   1    -0.129399818022E+03   -0.35725E-01   -0.61732E+00   328   0.134E+01    0.831E-01
DAV:   2    -0.129420510938E+03   -0.20693E-01   -0.29694E-01   458   0.251E+00    0.497E-01
DAV:   3    -0.129417232694E+03    0.32782E-02   -0.87871E-03   429   0.535E-01    0.288E-01
DAV:   4    -0.129415461189E+03    0.17715E-02   -0.51330E-03   425   0.378E-01    0.752E-02
DAV:   5    -0.129415333281E+03    0.12791E-03   -0.10767E-03   464   0.166E-01    0.389E-02
DAV:   6    -0.129415358350E+03   -0.25069E-04   -0.78364E-05   368   0.487E-02
  15 F= -.12941536E+03 E0= -.12941536E+03  d E =-.512114E-01
       N       E                     dE             d eps       ncg     rms          rms(c)
DAV:   1    -0.129418398704E+03   -0.30654E-02   -0.37581E-02   365   0.101E+00    0.649E-02
DAV:   2    -0.129418611288E+03   -0.21258E-03   -0.16446E-03   464   0.182E-01    0.371E-02
DAV:   3    -0.129418671622E+03   -0.60334E-04   -0.43793E-05   318   0.387E-02    0.210E-02
DAV:   4    -0.129418776465E+03   -0.10484E-03   -0.35939E-05   301   0.308E-02    0.437E-03
DAV:   5    -0.129418824128E+03   -0.47663E-04   -0.88783E-06   344   0.137E-02    0.240E-03
DAV:   6    -0.129418856916E+03   -0.32788E-04   -0.22485E-06   278   0.633E-03
  16 F= -.12941886E+03 E0= -.12941886E+03  d E =-.349857E-02
       N       E                     dE             d eps       ncg     rms          rms(c)
DAV:   1    -0.129421504614E+03   -0.26805E-02   -0.11245E-01   352   0.176E+00    0.107E-01
DAV:   2    -0.129421888778E+03   -0.38416E-03   -0.51682E-03   429   0.325E-01    0.653E-02
DAV:   3    -0.129421848741E+03    0.40037E-04   -0.14374E-04   400   0.685E-02    0.383E-02
DAV:   4    -0.129421838919E+03    0.98214E-05   -0.10290E-04   264   0.551E-02    0.910E-03
DAV:   5    -0.129421843903E+03   -0.49841E-05   -0.26609E-05   343   0.263E-02    0.466E-03
DAV:   6    -0.129421847479E+03   -0.35755E-05   -0.35777E-06   346   0.101E-02
  17 F= -.12942185E+03 E0= -.12942185E+03  d E =-.299056E-02
       N       E                     dE             d eps       ncg     rms          rms(c)
DAV:   1    -0.129421408505E+03    0.43540E-03   -0.13845E-01   342   0.196E+00    0.114E-01
DAV:   2    -0.129421819249E+03   -0.41074E-03   -0.61112E-03   441   0.355E-01    0.708E-02
DAV:   3    -0.129421742674E+03    0.76576E-04   -0.16614E-04   400   0.738E-02    0.415E-02
DAV:   4    -0.129421694921E+03    0.47752E-04   -0.12701E-04   368   0.606E-02    0.964E-03
DAV:   5    -0.129421692796E+03    0.21254E-05   -0.27564E-05   368   0.273E-02    0.543E-03
DAV:   6    -0.129421696659E+03   -0.38630E-05   -0.32112E-06   326   0.101E-02
  18 F= -.12942170E+03 E0= -.12942170E+03  d E =0.150820E-03
       N       E                     dE             d eps       ncg     rms          rms(c)
DAV:   1    -0.129421885687E+03   -0.19289E-03   -0.46372E-04   416   0.113E-01    0.637E-03
DAV:   2    -0.129421894535E+03   -0.88485E-05   -0.18840E-05   304   0.214E-02    0.388E-03
DAV:   3    -0.129421901328E+03   -0.67925E-05   -0.18489E-06   287   0.707E-03    0.234E-03
DAV:   4    -0.129421911531E+03   -0.10204E-04   -0.62120E-07   300   0.390E-03    0.763E-04
DAV:   5    -0.129421917982E+03   -0.64512E-05   -0.24600E-07   336   0.200E-03    0.399E-04
DAV:   6    -0.129421921958E+03   -0.39761E-05   -0.91613E-08   204   0.120E-03
  19 F= -.12942192E+03 E0= -.12942192E+03  d E =-.225299E-03
       N       E                     dE             d eps       ncg     rms          rms(c)
DAV:   1    -0.129422243217E+03   -0.32523E-03   -0.17678E-03   361   0.223E-01    0.128E-02
DAV:   2    -0.129422249951E+03   -0.67339E-05   -0.75239E-05   400   0.406E-02    0.767E-03
DAV:   3    -0.129422250670E+03   -0.71923E-06   -0.35059E-06   202   0.100E-02    0.459E-03
DAV:   4    -0.129422252416E+03   -0.17464E-05   -0.21441E-06   307   0.762E-03    0.118E-03
DAV:   5    -0.129422253326E+03   -0.90989E-06   -0.50222E-07   272   0.399E-03    0.572E-04
DAV:   6    -0.129422253852E+03   -0.52545E-06   -0.89873E-08   316   0.173E-03
  20 F= -.12942225E+03 E0= -.12942225E+03  d E =-.331893E-03
       N       E                     dE             d eps       ncg     rms          rms(c)
DAV:   1    -0.129422625787E+03   -0.37246E-03   -0.35495E-03   349   0.316E-01    0.179E-02
DAV:   2    -0.129422635489E+03   -0.97024E-05   -0.14919E-04   313   0.573E-02    0.108E-02
DAV:   3    -0.129422634146E+03    0.13438E-05   -0.70030E-06   272   0.142E-02    0.650E-03
DAV:   4    -0.129422632956E+03    0.11891E-05   -0.43245E-06   264   0.109E-02    0.171E-03
DAV:   5    -0.129422632877E+03    0.79646E-07   -0.10130E-06   272   0.575E-03    0.850E-04
DAV:   6    -0.129422633027E+03   -0.15039E-06   -0.18558E-07   272   0.250E-03
  21 F= -.12942263E+03 E0= -.12942263E+03  d E =-.379176E-03
       N       E                     dE             d eps       ncg     rms          rms(c)
DAV:   1    -0.129422983211E+03   -0.35033E-03   -0.53702E-03   376   0.389E-01    0.213E-02
DAV:   2    -0.129422997135E+03   -0.13925E-04   -0.22201E-04   336   0.693E-02    0.133E-02
DAV:   3    -0.129422994616E+03    0.25191E-05   -0.79364E-06   272   0.163E-02    0.809E-03
DAV:   4    -0.129422992423E+03    0.21927E-05   -0.60437E-06   232   0.136E-02    0.185E-03
DAV:   5    -0.129422992415E+03    0.84819E-08   -0.14371E-06   272   0.653E-03    0.997E-04
DAV:   6    -0.129422992793E+03   -0.37832E-06   -0.31622E-07   270   0.296E-03
  22 F= -.12942299E+03 E0= -.12942299E+03  d E =-.359766E-03
       N       E                     dE             d eps       ncg     rms          rms(c)
DAV:   1    -0.129423270614E+03   -0.27820E-03   -0.67695E-03   332   0.436E-01    0.227E-02
DAV:   2    -0.129423286880E+03   -0.16266E-04   -0.25570E-04   269   0.756E-02    0.143E-02
DAV:   3    -0.129423284860E+03    0.20201E-05   -0.14225E-05   232   0.193E-02    0.878E-03
DAV:   4    -0.129423283190E+03    0.16693E-05   -0.87333E-06   244   0.155E-02    0.215E-03
DAV:   5    -0.129423283352E+03   -0.16154E-06   -0.21316E-06   182   0.775E-03    0.114E-03
DAV:   6    -0.129423283842E+03   -0.49058E-06   -0.55430E-07   220   0.363E-03
  23 F= -.12942328E+03 E0= -.12942328E+03  d E =-.291049E-03
       N       E                     dE             d eps       ncg     rms          rms(c)
DAV:   1    -0.129423489541E+03   -0.20619E-03   -0.74080E-03   331   0.453E-01    0.216E-02
DAV:   2    -0.129423506181E+03   -0.16640E-04   -0.25342E-04   267   0.750E-02    0.138E-02
DAV:   3    -0.129423504708E+03    0.14732E-05   -0.13650E-05   164   0.186E-02    0.862E-03
DAV:   4    -0.129423503709E+03    0.99902E-06   -0.81633E-06   205   0.149E-02    0.209E-03
DAV:   5    -0.129423504014E+03   -0.30508E-06   -0.20544E-06   169   0.748E-03    0.112E-03
DAV:   6    -0.129423504599E+03   -0.58514E-06   -0.56159E-07   200   0.355E-03
  24 F= -.12942350E+03 E0= -.12942350E+03  d E =-.220756E-03
       N       E                     dE             d eps       ncg     rms          rms(c)
DAV:   1    -0.129423709061E+03   -0.20505E-03   -0.91602E-03   333   0.497E-01    0.206E-02
DAV:   2    -0.129423727275E+03   -0.18215E-04   -0.26169E-04   235   0.760E-02    0.132E-02
DAV:   3    -0.129423726949E+03    0.32594E-06   -0.16107E-05   164   0.197E-02    0.843E-03
DAV:   4    -0.129423727071E+03   -0.12147E-06   -0.77861E-06   200   0.146E-02    0.205E-03
DAV:   5    -0.129423727456E+03   -0.38551E-06   -0.20632E-06   164   0.717E-03    0.113E-03
DAV:   6    -0.129423728047E+03   -0.59106E-06   -0.63645E-07   200   0.363E-03
  25 F= -.12942373E+03 E0= -.12942373E+03  d E =-.223449E-03
       N       E                     dE             d eps       ncg     rms          rms(c)
DAV:   1    -0.129424021901E+03   -0.29444E-03   -0.11558E-02   335   0.547E-01    0.194E-02
DAV:   2    -0.129424043367E+03   -0.21466E-04   -0.28126E-04   268   0.756E-02    0.129E-02
DAV:   3    -0.129424043370E+03   -0.26766E-08   -0.96266E-06   164   0.164E-02    0.822E-03
DAV:   4    -0.129424044861E+03   -0.14910E-05   -0.55408E-06   252   0.135E-02    0.163E-03
DAV:   5    -0.129424045315E+03   -0.45403E-06   -0.14974E-06   164   0.617E-03    0.104E-03
DAV:   6    -0.129424045819E+03   -0.50425E-06   -0.33324E-07   202   0.277E-03
  26 F= -.12942405E+03 E0= -.12942405E+03  d E =-.317772E-03
       N       E                     dE             d eps       ncg     rms          rms(c)
DAV:   1    -0.129424521078E+03   -0.47576E-03   -0.16210E-02   333   0.642E-01    0.215E-02
DAV:   2    -0.129424549473E+03   -0.28395E-04   -0.35513E-04   300   0.837E-02    0.140E-02
DAV:   3    -0.129424550228E+03   -0.75511E-06   -0.11057E-05   272   0.173E-02    0.861E-03
DAV:   4    -0.129424553239E+03   -0.30107E-05   -0.59076E-06   200   0.141E-02    0.139E-03
DAV:   5    -0.129424553733E+03   -0.49451E-06   -0.17235E-06   264   0.629E-03    0.105E-03
DAV:   6    -0.129424554149E+03   -0.41541E-06   -0.32913E-07   200   0.255E-03
  27 F= -.12942455E+03 E0= -.12942455E+03  d E =-.508330E-03
       N       E                     dE             d eps       ncg     rms          rms(c)
DAV:   1    -0.129425226208E+03   -0.67247E-03   -0.25128E-02   335   0.806E-01    0.275E-02
DAV:   2    -0.129425274096E+03   -0.47888E-04   -0.60011E-04   394   0.108E-01    0.187E-02
DAV:   3    -0.129425272624E+03    0.14723E-05   -0.10188E-05   264   0.185E-02    0.117E-02
DAV:   4    -0.129425275596E+03   -0.29726E-05   -0.11000E-05   264   0.184E-02    0.208E-03
DAV:   5    -0.129425275994E+03   -0.39739E-06   -0.22379E-06   272   0.807E-03    0.129E-03
DAV:   6    -0.129425276219E+03   -0.22482E-06   -0.22696E-07   208   0.279E-03
  28 F= -.12942528E+03 E0= -.12942528E+03  d E =-.722070E-03
       N       E                     dE             d eps       ncg     rms          rms(c)
DAV:   1    -0.129426036290E+03   -0.76030E-03   -0.39737E-02   336   0.102E+00    0.365E-02
DAV:   2    -0.129426116741E+03   -0.80451E-04   -0.10298E-03   397   0.142E-01    0.254E-02
DAV:   3    -0.129426111414E+03    0.53262E-05   -0.13361E-05   272   0.223E-02    0.160E-02
DAV:   4    -0.129426113562E+03   -0.21476E-05   -0.22101E-05   264   0.256E-02    0.317E-03
DAV:   5    -0.129426114033E+03   -0.47107E-06   -0.46726E-06   272   0.118E-02    0.197E-03
DAV:   6    -0.129426114447E+03   -0.41352E-06   -0.60021E-07   240   0.419E-03
  29 F= -.12942611E+03 E0= -.12942611E+03  d E =-.838228E-03
       N       E                     dE             d eps       ncg     rms          rms(c)
DAV:   1    -0.129426815260E+03   -0.70123E-03   -0.58781E-02   333   0.124E+00    0.442E-02
DAV:   2    -0.129426933129E+03   -0.11787E-03   -0.15067E-03   364   0.173E-01    0.307E-02
DAV:   3    -0.129426926485E+03    0.66441E-05   -0.23624E-05   272   0.282E-02    0.194E-02
DAV:   4    -0.129426930133E+03   -0.36489E-05   -0.35287E-05   299   0.322E-02    0.405E-03
DAV:   5    -0.129426930875E+03   -0.74176E-06   -0.69641E-06   272   0.142E-02    0.263E-03
DAV:   6    -0.129426931731E+03   -0.85575E-06   -0.10530E-06   284   0.529E-03
  30 F= -.12942693E+03 E0= -.12942693E+03  d E =-.817284E-03
       N       E                     dE             d eps       ncg     rms          rms(c)
DAV:   1    -0.129427658525E+03   -0.72765E-03   -0.76482E-02   335   0.140E+00    0.470E-02
DAV:   2    -0.129427800911E+03   -0.14239E-03   -0.17851E-03   347   0.186E-01    0.324E-02
DAV:   3    -0.129427796478E+03    0.44330E-05   -0.24414E-05   254   0.283E-02    0.204E-02
DAV:   4    -0.129427806043E+03   -0.95650E-05   -0.30925E-05   210   0.326E-02    0.333E-03
DAV:   5    -0.129427807715E+03   -0.16718E-05   -0.94106E-06   231   0.150E-02    0.266E-03
DAV:   6    -0.129427809251E+03   -0.15366E-05   -0.15652E-06   250   0.582E-03
  31 F= -.12942781E+03 E0= -.12942781E+03  d E =-.877520E-03
       N       E                     dE             d eps       ncg     rms          rms(c)
DAV:   1    -0.129428790167E+03   -0.98245E-03   -0.97851E-02   334   0.158E+00    0.525E-02
DAV:   2    -0.129428967614E+03   -0.17745E-03   -0.22127E-03   353   0.206E-01    0.355E-02
DAV:   3    -0.129428965577E+03    0.20375E-05   -0.36200E-05   328   0.312E-02    0.220E-02
DAV:   4    -0.129428980086E+03   -0.14509E-04   -0.31039E-05   272   0.331E-02    0.365E-03
DAV:   5    -0.129428981754E+03   -0.16686E-05   -0.78823E-06   272   0.144E-02    0.275E-03
DAV:   6    -0.129428982799E+03   -0.10452E-05   -0.84896E-07   200   0.484E-03
  32 F= -.12942898E+03 E0= -.12942898E+03  d E =-.117355E-02
       N       E                     dE             d eps       ncg     rms          rms(c)
DAV:   1    -0.129430092968E+03   -0.11112E-02   -0.13309E-01   333   0.185E+00    0.639E-02
DAV:   2    -0.129430349383E+03   -0.25642E-03   -0.32564E-03   387   0.251E-01    0.446E-02
DAV:   3    -0.129430338687E+03    0.10697E-04   -0.42283E-05   360   0.382E-02    0.282E-02
DAV:   4    -0.129430352358E+03   -0.13672E-04   -0.50696E-05   272   0.414E-02    0.478E-03
DAV:   5    -0.129430354361E+03   -0.20027E-05   -0.12128E-05   272   0.181E-02    0.321E-03
DAV:   6    -0.129430355223E+03   -0.86224E-06   -0.13975E-06   272   0.603E-03
  33 F= -.12943036E+03 E0= -.12943036E+03  d E =-.137242E-02
       N       E                     dE             d eps       ncg     rms          rms(c)
DAV:   1    -0.129431318250E+03   -0.96389E-03   -0.17338E-01   333   0.212E+00    0.728E-02
DAV:   2    -0.129431643008E+03   -0.32476E-03   -0.41522E-03   366   0.285E-01    0.508E-02
DAV:   3    -0.129431632770E+03    0.10238E-04   -0.75994E-05   360   0.454E-02    0.322E-02
DAV:   4    -0.129431649690E+03   -0.16921E-04   -0.66757E-05   299   0.481E-02    0.575E-03
DAV:   5    -0.129431652261E+03   -0.25701E-05   -0.16559E-05   272   0.211E-02    0.394E-03
DAV:   6    -0.129431653848E+03   -0.15870E-05   -0.19660E-06   206   0.718E-03
  34 F= -.12943165E+03 E0= -.12943165E+03  d E =-.129862E-02
       N       E                     dE             d eps       ncg     rms          rms(c)
DAV:   1    -0.129432806880E+03   -0.11546E-02   -0.20386E-01   328   0.228E+00    0.763E-02
DAV:   2    -0.129433165811E+03   -0.35893E-03   -0.45035E-03   364   0.294E-01    0.521E-02
DAV:   3    -0.129433161143E+03    0.46676E-05   -0.77955E-05   351   0.453E-02    0.321E-02
DAV:   4    -0.129433190701E+03   -0.29557E-04   -0.66238E-05   285   0.486E-02    0.566E-03
DAV:   5    -0.129433193562E+03   -0.28613E-05   -0.16775E-05   272   0.212E-02    0.426E-03
DAV:   6    -0.129433195429E+03   -0.18670E-05   -0.21087E-06   203   0.766E-03
  35 F= -.12943320E+03 E0= -.12943320E+03  d E =-.154158E-02
       N       E                     dE             d eps       ncg     rms          rms(c)
DAV:   1    -0.129434429709E+03   -0.12361E-02   -0.25738E-01   331   0.259E+00    0.889E-02
DAV:   2    -0.129434899015E+03   -0.46931E-03   -0.59465E-03   331   0.340E-01    0.622E-02
DAV:   3    -0.129434885264E+03    0.13751E-04   -0.11361E-04   368   0.549E-02    0.391E-02
DAV:   4    -0.129434913512E+03   -0.28248E-04   -0.98768E-05   321   0.583E-02    0.729E-03
DAV:   5    -0.129434916804E+03   -0.32927E-05   -0.23798E-05   272   0.254E-02    0.511E-03
DAV:   6    -0.129434918818E+03   -0.20140E-05   -0.35033E-06   286   0.942E-03
  36 F= -.12943492E+03 E0= -.12943492E+03  d E =-.172339E-02
       N       E                     dE             d eps       ncg     rms          rms(c)
DAV:   1    -0.129436009412E+03   -0.10926E-02   -0.30512E-01   332   0.281E+00    0.981E-02
DAV:   2    -0.129436533238E+03   -0.52383E-03   -0.66604E-03   381   0.359E-01    0.672E-02
DAV:   3    -0.129436520325E+03    0.12913E-04   -0.13033E-04   357   0.585E-02    0.412E-02
DAV:   4    -0.129436558132E+03   -0.37807E-04   -0.11015E-04   300   0.616E-02    0.790E-03
DAV:   5    -0.129436561734E+03   -0.36020E-05   -0.26668E-05   264   0.271E-02    0.570E-03
DAV:   6    -0.129436564548E+03   -0.28147E-05   -0.44211E-06   274   0.106E-02
  37 F= -.12943656E+03 E0= -.12943656E+03  d E =-.164573E-02
       N       E                     dE             d eps       ncg     rms          rms(c)
DAV:   1    -0.129437875782E+03   -0.13140E-02   -0.37462E-01   332   0.312E+00    0.114E-01
DAV:   2    -0.129438523863E+03   -0.64808E-03   -0.82747E-03   364   0.403E-01    0.781E-02
DAV:   3    -0.129438504867E+03    0.18996E-04   -0.17469E-04   351   0.682E-02    0.480E-02
DAV:   4    -0.129438548863E+03   -0.43997E-04   -0.14629E-04   280   0.697E-02    0.935E-03
DAV:   5    -0.129438552743E+03   -0.38798E-05   -0.34317E-05   272   0.308E-02    0.624E-03
DAV:   6    -0.129438555156E+03   -0.24130E-05   -0.47624E-06   256   0.110E-02
  38 F= -.12943856E+03 E0= -.12943856E+03  d E =-.199061E-02
       N       E                     dE             d eps       ncg     rms          rms(c)
DAV:   1    -0.129439615025E+03   -0.10623E-02   -0.47772E-01   328   0.353E+00    0.132E-01
DAV:   2    -0.129440411053E+03   -0.79603E-03   -0.10304E-02   364   0.451E-01    0.905E-02
DAV:   3    -0.129440385072E+03    0.25982E-04   -0.22929E-04   351   0.793E-02    0.552E-02
DAV:   4    -0.129440440934E+03   -0.55862E-04   -0.19162E-04   329   0.786E-02    0.111E-02
DAV:   5    -0.129440445022E+03   -0.40887E-05   -0.44203E-05   272   0.352E-02    0.700E-03
DAV:   6    -0.129440448169E+03   -0.31468E-05   -0.64094E-06   254   0.125E-02
  39 F= -.12944045E+03 E0= -.12944045E+03  d E =-.189301E-02
       N       E                     dE             d eps       ncg     rms          rms(c)
DAV:   1    -0.129441578345E+03   -0.11333E-02   -0.63105E-01   328   0.406E+00    0.154E-01
DAV:   2    -0.129442639961E+03   -0.10616E-02   -0.13830E-02   330   0.523E-01    0.106E-01
DAV:   3    -0.129442609858E+03    0.30103E-04   -0.31734E-04   376   0.929E-02    0.648E-02
DAV:   4    -0.129442682942E+03   -0.73084E-04   -0.26042E-04   396   0.884E-02    0.132E-02
DAV:   5    -0.129442687280E+03   -0.43377E-05   -0.50309E-05   304   0.370E-02    0.828E-03
DAV:   6    -0.129442690156E+03   -0.28757E-05   -0.55988E-06   264   0.127E-02
  40 F= -.12944269E+03 E0= -.12944269E+03  d E =-.224199E-02
       N       E                     dE             d eps       ncg     rms          rms(c)
DAV:   1    -0.129443681689E+03   -0.99441E-03   -0.85022E-01   328   0.471E+00    0.178E-01
DAV:   2    -0.129445105754E+03   -0.14241E-02   -0.18255E-02   364   0.601E-01    0.119E-01
DAV:   3    -0.129445077070E+03    0.28684E-04   -0.39758E-04   428   0.102E-01    0.708E-02
DAV:   4    -0.129445179802E+03   -0.10273E-03   -0.25870E-04   364   0.922E-02    0.133E-02
DAV:   5    -0.129445186674E+03   -0.68719E-05   -0.58631E-05   272   0.401E-02    0.904E-03
DAV:   6    -0.129445190998E+03   -0.43244E-05   -0.93757E-06   232   0.147E-02
  41 F= -.12944519E+03 E0= -.12944519E+03  d E =-.250084E-02
       N       E                     dE             d eps       ncg     rms          rms(c)
DAV:   1    -0.129445705678E+03   -0.51900E-03   -0.12332E+00   328   0.567E+00    0.212E-01
DAV:   2    -0.129447883604E+03   -0.21779E-02   -0.27719E-02   364   0.737E-01    0.144E-01
DAV:   3    -0.129447819078E+03    0.64526E-04   -0.55816E-04   439   0.122E-01    0.880E-02
DAV:   4    -0.129447982383E+03   -0.16331E-03   -0.38746E-04   428   0.112E-01    0.171E-02
DAV:   5    -0.129447992741E+03   -0.10358E-04   -0.83120E-05   272   0.477E-02    0.109E-02
DAV:   6    -0.129447999131E+03   -0.63895E-05   -0.13955E-05   336   0.179E-02
  42 F= -.12944800E+03 E0= -.12944800E+03  d E =-.280813E-02
       N       E                     dE             d eps       ncg     rms          rms(c)
DAV:   1    -0.129447374533E+03    0.61821E-03   -0.18675E+00   328   0.698E+00    0.255E-01
DAV:   2    -0.129450936550E+03   -0.35620E-02   -0.44357E-02   348   0.930E-01    0.174E-01
DAV:   3    -0.129450823727E+03    0.11282E-03   -0.85642E-04   464   0.147E-01    0.106E-01
DAV:   4    -0.129451050098E+03   -0.22637E-03   -0.54578E-04   430   0.136E-01    0.175E-02
DAV:   5    -0.129451071026E+03   -0.20928E-04   -0.12424E-04   400   0.548E-02    0.135E-02
DAV:   6    -0.129451079153E+03   -0.81279E-05   -0.82426E-06   330   0.157E-02
  43 F= -.12945108E+03 E0= -.12945108E+03  d E =-.308002E-02
       N       E                     dE             d eps       ncg     rms          rms(c)
DAV:   1    -0.129447845110E+03    0.32259E-02   -0.27043E+00   328   0.846E+00    0.331E-01
DAV:   2    -0.129453514589E+03   -0.56695E-02   -0.71693E-02   364   0.120E+00    0.226E-01
DAV:   3    -0.129453198031E+03    0.31656E-03   -0.14700E-03   464   0.202E-01    0.142E-01
DAV:   4    -0.129453423387E+03   -0.22536E-03   -0.10205E-03   377   0.181E-01    0.268E-02
DAV:   5    -0.129453460787E+03   -0.37400E-04   -0.22256E-04   400   0.731E-02    0.181E-02
DAV:   6    -0.129453473659E+03   -0.12873E-04   -0.16029E-05   304   0.202E-02
  44 F= -.12945347E+03 E0= -.12945347E+03  d E =-.239451E-02
       N       E                     dE             d eps       ncg     rms          rms(c)
DAV:   1    -0.129455398988E+03   -0.19382E-02   -0.11183E-01   348   0.161E+00    0.111E-01
DAV:   2    -0.129455776987E+03   -0.37800E-03   -0.50414E-03   417   0.300E-01    0.641E-02
DAV:   3    -0.129455734360E+03    0.42627E-04   -0.13549E-04   382   0.633E-02    0.363E-02
DAV:   4    -0.129455726997E+03    0.73626E-05   -0.94898E-05   305   0.487E-02    0.801E-03
DAV:   5    -0.129455732514E+03   -0.55163E-05   -0.19069E-05   368   0.210E-02    0.445E-03
DAV:   6    -0.129455736464E+03   -0.39500E-05   -0.21816E-06   304   0.764E-03
  45 F= -.12945574E+03 E0= -.12945574E+03  d E =-.226280E-02
       N       E                     dE             d eps       ncg     rms          rms(c)
DAV:   1    -0.129454224186E+03    0.15083E-02   -0.14171E-01   354   0.185E+00    0.124E-01
DAV:   2    -0.129454662949E+03   -0.43876E-03   -0.63929E-03   404   0.342E-01    0.719E-02
DAV:   3    -0.129454581113E+03    0.81836E-04   -0.17718E-04   432   0.721E-02    0.405E-02
DAV:   4    -0.129454537583E+03    0.43530E-04   -0.10702E-04   336   0.532E-02    0.104E-02
DAV:   5    -0.129454535079E+03    0.25038E-05   -0.25598E-05   368   0.247E-02    0.549E-03
DAV:   6    -0.129454538827E+03   -0.37479E-05   -0.31882E-06   364   0.968E-03
  46 F= -.12945454E+03 E0= -.12945454E+03  d E =0.119764E-02
       N       E                     dE             d eps       ncg     rms          rms(c)
DAV:   1    -0.129455169196E+03   -0.63412E-03   -0.50842E-03   368   0.349E-01    0.245E-02
DAV:   2    -0.129455192677E+03   -0.23481E-04   -0.22597E-04   428   0.647E-02    0.138E-02
DAV:   3    -0.129455197460E+03   -0.47833E-05   -0.82479E-06   336   0.156E-02    0.750E-03
DAV:   4    -0.129455206211E+03   -0.87513E-05   -0.43284E-06   298   0.105E-02    0.164E-03
DAV:   5    -0.129455210764E+03   -0.45528E-05   -0.10264E-06   368   0.469E-03    0.798E-04
DAV:   6    -0.129455213605E+03   -0.28405E-05   -0.17897E-07   202   0.194E-03
  47 F= -.12945521E+03 E0= -.12945521E+03  d E =-.674778E-03
       N       E                     dE             d eps       ncg     rms          rms(c)
DAV:   1    -0.129455918819E+03   -0.70805E-03   -0.16035E-02   397   0.622E-01    0.423E-02
DAV:   2    -0.129455969740E+03   -0.50921E-04   -0.73891E-04   393   0.117E-01    0.252E-02
DAV:   3    -0.129455961382E+03    0.83580E-05   -0.20377E-05   335   0.254E-02    0.142E-02
DAV:   4    -0.129455957470E+03    0.39120E-05   -0.16353E-05   264   0.206E-02    0.319E-03
DAV:   5    -0.129455957492E+03   -0.22364E-07   -0.37454E-06   368   0.951E-03    0.173E-03
DAV:   6    -0.129455957928E+03   -0.43553E-06   -0.49764E-07   282   0.372E-03
  48 F= -.12945596E+03 E0= -.12945596E+03  d E =-.744323E-03
       N       E                     dE             d eps       ncg     rms          rms(c)
DAV:   1    -0.129456161177E+03   -0.20368E-03   -0.22919E-02   399   0.745E-01    0.499E-02
DAV:   2    -0.129456227630E+03   -0.66454E-04   -0.10612E-03   423   0.140E-01    0.303E-02
DAV:   3    -0.129456210708E+03    0.16922E-04   -0.28007E-05   272   0.305E-02    0.174E-02
DAV:   4    -0.129456200473E+03    0.10236E-04   -0.29207E-05   352   0.267E-02    0.428E-03
DAV:   5    -0.129456200770E+03   -0.29728E-06   -0.67555E-06   272   0.136E-02    0.223E-03
DAV:   6    -0.129456202089E+03   -0.13195E-05   -0.11663E-06   302   0.542E-03
  49 F= -.12945620E+03 E0= -.12945620E+03  d E =-.244162E-03
       N       E                     dE             d eps       ncg     rms          rms(c)
DAV:   1    -0.129456213836E+03   -0.13066E-04   -0.10138E-05   268   0.166E-02    0.116E-03
DAV:   2    -0.129456215466E+03   -0.16301E-05   -0.64931E-07   272   0.441E-03    0.732E-04
DAV:   3    -0.129456217371E+03   -0.19045E-05   -0.16764E-07   268   0.178E-03    0.504E-04
DAV:   4    -0.129456219643E+03   -0.22725E-05   -0.61233E-08   236   0.114E-03    0.284E-04
DAV:   5    -0.129456221822E+03   -0.21791E-05   -0.74372E-08   252   0.963E-04    0.203E-04
DAV:   6    -0.129456223107E+03   -0.12843E-05   -0.13954E-08   238   0.805E-04
  50 F= -.12945622E+03 E0= -.12945622E+03  d E =-.210172E-04
       N       E                     dE             d eps       ncg     rms          rms(c)
DAV:   1    -0.129456242034E+03   -0.20212E-04   -0.39604E-05   274   0.329E-02    0.154E-03
DAV:   2    -0.129456242614E+03   -0.57976E-06   -0.20894E-06   272   0.794E-03    0.912E-04
DAV:   3    -0.129456242965E+03   -0.35106E-06   -0.16701E-07   206   0.236E-03    0.634E-04
DAV:   4    -0.129456243578E+03   -0.61287E-06   -0.75547E-09   246   0.128E-03    0.157E-04
DAV:   5    -0.129456243839E+03   -0.26141E-06    0.34614E-08   272   0.598E-04    0.973E-05
DAV:   6    -0.129456244064E+03   -0.22447E-06    0.50030E-08   210   0.336E-04
  51 F= -.12945624E+03 E0= -.12945624E+03  d E =-.209572E-04
       N       E                     dE             d eps       ncg     rms          rms(c)
DAV:   1    -0.129456268247E+03   -0.24407E-04   -0.82857E-05   272   0.482E-02    0.221E-03
DAV:   2    -0.129456268889E+03   -0.64258E-06   -0.56355E-06   218   0.133E-02    0.130E-03
DAV:   3    -0.129456269049E+03   -0.16021E-06   -0.62067E-07   256   0.388E-03    0.949E-04
DAV:   4    -0.129456269214E+03   -0.16429E-06   -0.10544E-07   226   0.200E-03    0.318E-04
DAV:   5    -0.129456269316E+03   -0.10222E-06    0.10247E-08   272   0.103E-03    0.157E-04
DAV:   6    -0.129456269386E+03   -0.69856E-07    0.52659E-08   218   0.591E-04
  52 F= -.12945627E+03 E0= -.12945627E+03  d E =-.253220E-04
       N       E                     dE             d eps       ncg     rms          rms(c)
DAV:   1    -0.129456299864E+03   -0.30548E-04   -0.14307E-04   352   0.622E-02    0.287E-03
DAV:   2    -0.129456300278E+03   -0.41462E-06   -0.55169E-06   212   0.124E-02    0.171E-03
DAV:   3    -0.129456300295E+03   -0.17068E-07   -0.45193E-07   221   0.390E-03    0.106E-03
DAV:   4    -0.129456300298E+03   -0.22610E-08   -0.61223E-08   220   0.203E-03    0.245E-04
DAV:   5    -0.129456300314E+03   -0.16622E-07    0.34000E-08   168   0.940E-04    0.145E-04
DAV:   6    -0.129456300344E+03   -0.29399E-07    0.58993E-08   190   0.472E-04
  53 F= -.12945630E+03 E0= -.12945630E+03  d E =-.309579E-04
       N       E                     dE             d eps       ncg     rms          rms(c)
DAV:   1    -0.129456335894E+03   -0.35580E-04   -0.20448E-04   243   0.747E-02    0.328E-03
DAV:   2    -0.129456336510E+03   -0.61578E-06   -0.80444E-06   223   0.149E-02    0.197E-03
DAV:   3    -0.129456336536E+03   -0.25795E-07   -0.75844E-07   165   0.480E-03    0.122E-03
DAV:   4    -0.129456336521E+03    0.14534E-07   -0.13463E-07   220   0.241E-03    0.280E-04
DAV:   5    -0.129456336534E+03   -0.12575E-07    0.82022E-09   165   0.117E-03    0.165E-04
DAV:   6    -0.129456336561E+03   -0.27332E-07    0.48105E-08   164   0.587E-04
  54 F= -.12945634E+03 E0= -.12945634E+03  d E =-.362174E-04
       N       E                     dE             d eps       ncg     rms          rms(c)
DAV:   1    -0.129456376647E+03   -0.40113E-04   -0.26658E-04   234   0.852E-02    0.362E-03
DAV:   2    -0.129456377423E+03   -0.77627E-06   -0.10065E-05   193   0.168E-02    0.218E-03
DAV:   3    -0.129456377466E+03   -0.43473E-07   -0.95961E-07   164   0.539E-03    0.134E-03
DAV:   4    -0.129456377463E+03    0.32887E-08   -0.17754E-07   184   0.267E-03    0.298E-04
DAV:   5    -0.129456377480E+03   -0.16887E-07   -0.42359E-09   165   0.130E-03    0.179E-04
DAV:   6    -0.129456377512E+03   -0.31591E-07    0.44798E-08   166   0.647E-04
  55 F= -.12945638E+03 E0= -.12945638E+03  d E =-.409505E-04
       N       E                     dE             d eps       ncg     rms          rms(c)
DAV:   1    -0.129456427401E+03   -0.49921E-04   -0.40653E-04   281   0.105E-01    0.432E-03
DAV:   2    -0.129456428239E+03   -0.83873E-06   -0.11538E-05   192   0.168E-02    0.263E-03
DAV:   3    -0.129456428295E+03   -0.55754E-07   -0.11262E-06   164   0.564E-03    0.151E-03
DAV:   4    -0.129456428321E+03   -0.26122E-07   -0.22703E-07   165   0.287E-03    0.356E-04
DAV:   5    -0.129456428346E+03   -0.24890E-07   -0.18282E-08   164   0.145E-03    0.180E-04
DAV:   6    -0.129456428383E+03   -0.36973E-07    0.40659E-08   164   0.699E-04
  56 F= -.12945643E+03 E0= -.12945643E+03  d E =-.508717E-04
       N       E                     dE             d eps       ncg     rms          rms(c)
DAV:   1    -0.129456490725E+03   -0.62378E-04   -0.60015E-04   297   0.127E-01    0.509E-03
DAV:   2    -0.129456491888E+03   -0.11630E-05   -0.15702E-05   176   0.197E-02    0.307E-03
DAV:   3    -0.129456492008E+03   -0.12007E-06   -0.15293E-06   164   0.659E-03    0.175E-03
DAV:   4    -0.129456492089E+03   -0.81212E-07   -0.31316E-07   164   0.330E-03    0.393E-04
DAV:   5    -0.129456492122E+03   -0.33601E-07   -0.43365E-08   164   0.165E-03    0.197E-04
DAV:   6    -0.129456492161E+03   -0.38271E-07    0.34516E-08   164   0.791E-04
  57 F= -.12945649E+03 E0= -.12945649E+03  d E =-.637775E-04
       N       E                     dE             d eps       ncg     rms          rms(c)
DAV:   1    -0.129456571241E+03   -0.79118E-04   -0.88391E-04   296   0.153E-01    0.607E-03
DAV:   2    -0.129456572837E+03   -0.15967E-05   -0.21442E-05   166   0.230E-02    0.361E-03
DAV:   3    -0.129456573056E+03   -0.21873E-06   -0.20767E-06   164   0.773E-03    0.202E-03
DAV:   4    -0.129456573224E+03   -0.16819E-06   -0.42814E-07   164   0.382E-03    0.427E-04
DAV:   5    -0.129456573265E+03   -0.40294E-07   -0.75886E-08   164   0.189E-03    0.216E-04
DAV:   6    -0.129456573296E+03   -0.31248E-07    0.27188E-08   165   0.904E-04
  58 F= -.12945657E+03 E0= -.12945657E+03  d E =-.811350E-04
       N       E                     dE             d eps       ncg     rms          rms(c)
DAV:   1    -0.129456675035E+03   -0.10177E-03   -0.13296E-03   326   0.187E-01    0.732E-03
DAV:   2    -0.129456676983E+03   -0.19478E-05   -0.27441E-05   203   0.247E-02    0.446E-03
DAV:   3    -0.129456677251E+03   -0.26751E-06   -0.24620E-06   164   0.795E-03    0.245E-03
DAV:   4    -0.129456677529E+03   -0.27882E-06   -0.52617E-07   167   0.403E-03    0.506E-04
DAV:   5    -0.129456677564E+03   -0.34190E-07   -0.10544E-07   165   0.194E-03    0.259E-04
DAV:   6    -0.129456677584E+03   -0.20533E-07    0.20726E-08   164   0.936E-04
  59 F= -.12945668E+03 E0= -.12945668E+03  d E =-.104288E-03
