 vasp.5.4.1 24Jun15 (build Jan 13 2020 12:58:22) complex                        
  
 executed on           IFC91_ompi date 2020.02.03  09:59:13
 running on   15 total cores
 each image running on    1 cores
 distrk:  each k-point on    1 cores,    1 groups
 distr:  one band on NCORES_PER_BAND=   1 cores,    1 groups


--------------------------------------------------------------------------------------------------------


 INCAR:
 POTCAR:    PAW_PBE H 15Jun2001                   
 POTCAR:    PAW_PBE C 08Apr2002                   
 POTCAR:    PAW_PBE N 08Apr2002                   
 POTCAR:    PAW_PBE O 08Apr2002                   
 POTCAR:    PAW_PBE H 15Jun2001                   
   VRHFIN =H: ultrasoft test                                                    
   LEXCH  = PE                                                                  
   EATOM  =    12.4884 eV,    0.9179 Ry                                         
                                                                                
   TITEL  = PAW_PBE H 15Jun2001                                                 
   LULTRA =        F    use ultrasoft PP ?                                      
   IUNSCR =        0    unscreen: 0-lin 1-nonlin 2-no                           
   RPACOR =    0.000    partial core radius                                     
   POMASS =    1.000; ZVAL   =    1.000    mass and valenz                      
   RCORE  =    1.100    outmost cutoff radius                                   
   RWIGS  =    0.700; RWIGS  =    0.370    wigner-seitz radius (au A)           
   ENMAX  =  250.000; ENMIN  =  200.000 eV                                      
   RCLOC  =    0.701    cutoff for local pot                                    
   LCOR   =        T    correct aug charges                                     
   LPAW   =        T    paw PP                                                  
   EAUG   =  400.000                                                            
   RMAX   =    1.123    core radius for proj-oper                               
   RAUG   =    1.200    factor for augmentation sphere                          
   RDEP   =    1.112    radius for radial grids                                 
   RDEPT  =    0.926    core radius for aug-charge                              
                                                                                
   Atomic configuration                                                         
    2 entries                                                                   
     n  l   j            E        occ.                                          
     1  0  0.50        -6.4927   1.0000                                         
     2  1  0.50        -3.4015   0.0000                                         
   Description                                                                  
     l       E           TYP  RCUT    TYP  RCUT                                 
     0     -6.4927494     23  1.100                                             
     0      6.8029130     23  1.100                                             
     1     -4.0817478     23  1.100                                             
  local pseudopotential read in
  atomic valenz-charges read in
  non local Contribution for L=           0  read in
    real space projection operators read in
  non local Contribution for L=           0  read in
    real space projection operators read in
  non local Contribution for L=           1  read in
    real space projection operators read in
    PAW grid and wavefunctions read in
 
   number of l-projection  operators is LMAX  =           3
   number of lm-projection operators is LMMAX =           5
 
 POTCAR:    PAW_PBE C 08Apr2002                   
   VRHFIN =C: s2p2                                                              
   LEXCH  = PE                                                                  
   EATOM  =   147.1560 eV,   10.8157 Ry                                         
                                                                                
   TITEL  = PAW_PBE C 08Apr2002                                                 
   LULTRA =        F    use ultrasoft PP ?                                      
   IUNSCR =        1    unscreen: 0-lin 1-nonlin 2-no                           
   RPACOR =    1.200    partial core radius                                     
   POMASS =   12.011; ZVAL   =    4.000    mass and valenz                      
   RCORE  =    1.500    outmost cutoff radius                                   
   RWIGS  =    1.630; RWIGS  =    0.863    wigner-seitz radius (au A)           
   ENMAX  =  400.000; ENMIN  =  300.000 eV                                      
   ICORE  =        2    local potential                                         
   LCOR   =        T    correct aug charges                                     
   LPAW   =        T    paw PP                                                  
   EAUG   =  644.873                                                            
   DEXC   =    0.000                                                            
   RMAX   =    1.529    core radius for proj-oper                               
   RAUG   =    1.300    factor for augmentation sphere                          
   RDEP   =    1.501    radius for radial grids                                 
   RDEPT  =    1.300    core radius for aug-charge                              
                                                                                
   Atomic configuration                                                         
    4 entries                                                                   
     n  l   j            E        occ.                                          
     1  0  0.50      -273.3789   2.0000                                         
     2  0  0.50       -13.7508   2.0000                                         
     2  1  0.50        -5.2854   2.0000                                         
     3  2  1.50        -5.4423   0.0000                                         
   Description                                                                  
     l       E           TYP  RCUT    TYP  RCUT                                 
     0    -13.7508458     23  1.200                                             
     0     -8.2022199     23  1.200                                             
     1     -5.2854383     23  1.500                                             
     1     34.0145650     23  1.500                                             
     2     -5.4423304      7  1.500                                             
  local pseudopotential read in
  partial core-charges read in
  partial kinetic energy density read in
  atomic valenz-charges read in
  non local Contribution for L=           0  read in
    real space projection operators read in
  non local Contribution for L=           0  read in
    real space projection operators read in
  non local Contribution for L=           1  read in
    real space projection operators read in
  non local Contribution for L=           1  read in
    real space projection operators read in
    PAW grid and wavefunctions read in
 
   number of l-projection  operators is LMAX  =           4
   number of lm-projection operators is LMMAX =           8
 
 POTCAR:    PAW_PBE N 08Apr2002                   
   VRHFIN =N: s2p3                                                              
   LEXCH  = PE                                                                  
   EATOM  =   264.5486 eV,   19.4438 Ry                                         
                                                                                
   TITEL  = PAW_PBE N 08Apr2002                                                 
   LULTRA =        F    use ultrasoft PP ?                                      
   IUNSCR =        1    unscreen: 0-lin 1-nonlin 2-no                           
   RPACOR =    1.200    partial core radius                                     
   POMASS =   14.001; ZVAL   =    5.000    mass and valenz                      
   RCORE  =    1.500    outmost cutoff radius                                   
   RWIGS  =    1.400; RWIGS  =    0.741    wigner-seitz radius (au A)           
   ENMAX  =  400.000; ENMIN  =  300.000 eV                                      
   ICORE  =        2    local potential                                         
   LCOR   =        T    correct aug charges                                     
   LPAW   =        T    paw PP                                                  
   EAUG   =  627.112                                                            
   DEXC   =    0.000                                                            
   RMAX   =    1.529    core radius for proj-oper                               
   RAUG   =    1.300    factor for augmentation sphere                          
   RDEP   =    1.514    radius for radial grids                                 
   RDEPT  =    1.338    core radius for aug-charge                              
                                                                                
   Atomic configuration                                                         
    4 entries                                                                   
     n  l   j            E        occ.                                          
     1  0  0.50      -384.7179   2.0000                                         
     2  0  0.50       -18.5828   2.0000                                         
     2  1  0.50        -7.0898   3.0000                                         
     3  2  1.50        -6.8029   0.0000                                         
   Description                                                                  
     l       E           TYP  RCUT    TYP  RCUT                                 
     0    -18.5828119     23  1.200                                             
     0    -13.5018863     23  1.200                                             
     1     -7.0897853     23  1.500                                             
     1      9.5240782     23  1.500                                             
     2     -6.8029130      7  1.500                                             
  local pseudopotential read in
  partial core-charges read in
  partial kinetic energy density read in
  atomic valenz-charges read in
  non local Contribution for L=           0  read in
    real space projection operators read in
  non local Contribution for L=           0  read in
    real space projection operators read in
  non local Contribution for L=           1  read in
    real space projection operators read in
  non local Contribution for L=           1  read in
    real space projection operators read in
    PAW grid and wavefunctions read in
 
   number of l-projection  operators is LMAX  =           4
   number of lm-projection operators is LMMAX =           8
 
 POTCAR:    PAW_PBE O 08Apr2002                   
   VRHFIN =O: s2p4                                                              
   LEXCH  = PE                                                                  
   EATOM  =   432.3788 eV,   31.7789 Ry                                         
                                                                                
   TITEL  = PAW_PBE O 08Apr2002                                                 
   LULTRA =        F    use ultrasoft PP ?                                      
   IUNSCR =        1    unscreen: 0-lin 1-nonlin 2-no                           
   RPACOR =    1.200    partial core radius                                     
   POMASS =   16.000; ZVAL   =    6.000    mass and valenz                      
   RCORE  =    1.520    outmost cutoff radius                                   
   RWIGS  =    1.550; RWIGS  =    0.820    wigner-seitz radius (au A)           
   ENMAX  =  400.000; ENMIN  =  300.000 eV                                      
   ICORE  =        2    local potential                                         
   LCOR   =        T    correct aug charges                                     
   LPAW   =        T    paw PP                                                  
   EAUG   =  605.392                                                            
   DEXC   =    0.000                                                            
   RMAX   =    1.553    core radius for proj-oper                               
   RAUG   =    1.300    factor for augmentation sphere                          
   RDEP   =    1.550    radius for radial grids                                 
   RDEPT  =    1.329    core radius for aug-charge                              
                                                                                
   Atomic configuration                                                         
    4 entries                                                                   
     n  l   j            E        occ.                                          
     1  0  0.50      -514.6923   2.0000                                         
     2  0  0.50       -23.9615   2.0000                                         
     2  1  0.50        -9.0305   4.0000                                         
     3  2  1.50        -9.5241   0.0000                                         
   Description                                                                  
     l       E           TYP  RCUT    TYP  RCUT                                 
     0    -23.9615318     23  1.200                                             
     0     -9.5240782     23  1.200                                             
     1     -9.0304911     23  1.520                                             
     1      8.1634956     23  1.520                                             
     2     -9.5240782      7  1.500                                             
  local pseudopotential read in
  partial core-charges read in
  partial kinetic energy density read in
  kinetic energy density of atom read in
  atomic valenz-charges read in
  non local Contribution for L=           0  read in
    real space projection operators read in
  non local Contribution for L=           0  read in
    real space projection operators read in
  non local Contribution for L=           1  read in
    real space projection operators read in
  non local Contribution for L=           1  read in
    real space projection operators read in
    PAW grid and wavefunctions read in
 
   number of l-projection  operators is LMAX  =           4
   number of lm-projection operators is LMMAX =           8
 
 Optimization of the real space projectors (new method)

 maximal supplied QI-value         = 34.20
 optimisation between [QCUT,QGAM] = [  9.92, 20.18] = [ 27.55,114.04] Ry 
 Optimized for a Real-space Cutoff    1.26 Angstroem

   l    n(q)    QCUT    max X(q) W(low)/X(q) W(high)/X(q)  e(spline) 
   0      8     9.919    19.460    0.50E-03    0.23E-03    0.29E-06
   0      8     9.919    12.209    0.48E-03    0.23E-03    0.28E-06
   1      7     9.919     4.655    0.17E-03    0.75E-03    0.30E-06
 Optimization of the real space projectors (new method)

 maximal supplied QI-value         = 25.13
 optimisation between [QCUT,QGAM] = [ 10.05, 20.36] = [ 28.30,116.06] Ry 
 Optimized for a Real-space Cutoff    1.30 Angstroem

   l    n(q)    QCUT    max X(q) W(low)/X(q) W(high)/X(q)  e(spline) 
   0      8    10.053   115.676    0.49E-03    0.72E-03    0.18E-06
   0      8    10.053    87.132    0.49E-03    0.71E-03    0.18E-06
   1      7    10.053     4.429    0.32E-03    0.31E-03    0.18E-06
   1      7    10.053     2.733    0.23E-03    0.19E-03    0.20E-06
 Optimization of the real space projectors (new method)

 maximal supplied QI-value         = 25.13
 optimisation between [QCUT,QGAM] = [ 10.05, 20.36] = [ 28.30,116.06] Ry 
 Optimized for a Real-space Cutoff    1.65 Angstroem

   l    n(q)    QCUT    max X(q) W(low)/X(q) W(high)/X(q)  e(spline) 
   0     10    10.053    79.467    0.76E-04    0.72E-04    0.56E-06
   0     10    10.053    66.151    0.76E-04    0.72E-04    0.55E-06
   1     10    10.053     8.350    0.25E-03    0.92E-03    0.41E-05
   1     10    10.053     5.531    0.27E-03    0.10E-02    0.45E-05
 Optimization of the real space projectors (new method)

 maximal supplied QI-value         = 24.76
 optimisation between [QCUT,QGAM] = [ 10.15, 20.30] = [ 28.85,115.39] Ry 
 Optimized for a Real-space Cutoff    1.38 Angstroem

   l    n(q)    QCUT    max X(q) W(low)/X(q) W(high)/X(q)  e(spline) 
   0      8    10.150    20.381    0.22E-03    0.32E-03    0.29E-06
   0      8    10.150    15.268    0.23E-03    0.35E-03    0.30E-06
   1      8    10.150     5.964    0.46E-03    0.53E-03    0.21E-06
   1      8    10.150     5.382    0.38E-03    0.45E-03    0.19E-06
  PAW_PBE H 15Jun2001                   :
 energy of atom  1       EATOM=  -12.4884
 kinetic energy error for atom=    0.0098 (will be added to EATOM!!)
  PAW_PBE C 08Apr2002                   :
 energy of atom  2       EATOM= -147.1560
 kinetic energy error for atom=    0.0288 (will be added to EATOM!!)
  PAW_PBE N 08Apr2002                   :
 energy of atom  3       EATOM= -264.5486
 kinetic energy error for atom=    0.0736 (will be added to EATOM!!)
  PAW_PBE O 08Apr2002                   :
 energy of atom  4       EATOM= -432.3788
 kinetic energy error for atom=    0.1156 (will be added to EATOM!!)
 
 
 POSCAR: H12 C6 N2 O2                            
  positions in direct lattice
  velocities in cartesian coordinates
 exchange correlation table for  LEXCH =        8
   RHO(1)=    0.500       N(1)  =     2000
   RHO(2)=  100.500       N(2)  =     4000

 VTST: version 3.2, (02/03/18)

 CHAIN: initializing optimizer
 
 OPT: Using FIRE optimizer
 OPT: FIRE, Init
 OPT: FIRE, MAXMOVE       0.20000
 OPT: FIRE, TIMESTEP      0.10000
 OPT: FIRE, FTIMEMAX      1.00000
 OPT: FIRE, FTIMEINC      1.10000
 OPT: FIRE, FTIMEDEC      0.50000
 OPT: FIRE, FALPHADEC     0.99000
 OPT: FIRE, FALPHA        0.10000
 OPT: FIRE, FNMIN         5
 
 CHAIN: Read ICHAIN            0
 CHAIN: Running the NEB
 NEB:          SPRING     -5.000000
 NEB:          LCLIMB      T
 NEB:     LTANGENTOLD      F
 NEB:           LDNEB      F
 NEB:        LDNEBORG      F
 NEB:        LNEBCELL      F
 NEB:          EFIRST      0.000000
 NEB:           ELAST      0.000000
 
 POSCAR: H12 C6 N2 O2                            
  positions in direct lattice
  No initial velocities read in
 
 POSCAR: H12 C6 N2 O2                            
  positions in direct lattice
  No initial velocities read in
 


--------------------------------------------------------------------------------------------------------


 ion  position               nearest neighbor table
   1  0.380  0.549  0.505-  13 1.09
   2  0.385  0.501  0.470-  13 1.10
   3  0.380  0.495  0.529-  13 1.10
   4  0.450  0.456  0.486-  19 1.02
   5  0.507  0.471  0.556-  15 1.11
   6  0.555  0.411  0.514-  16 1.10
   7  0.515  0.414  0.471-  16 1.10
   8  0.498  0.396  0.524-  16 1.10
   9  0.516  0.552  0.511-  20 1.04
  10  0.610  0.551  0.474-  18 1.10
  11  0.566  0.569  0.439-  18 1.10
  12  0.578  0.601  0.487-  18 1.10
  13  0.394  0.516  0.502-   1 1.09   2 1.10   3 1.10  14 1.51
  14  0.444  0.519  0.510-  21 1.25  19 1.36  13 1.51
  15  0.511  0.468  0.519-   5 1.11  19 1.48  16 1.53  17 1.56
  16  0.520  0.419  0.507-   8 1.10   6 1.10   7 1.10  15 1.53
  17  0.552  0.495  0.503-  22 1.24  20 1.35  15 1.56
  18  0.577  0.567  0.474-  10 1.10  12 1.10  11 1.10  20 1.45
  19  0.468  0.481  0.499-   4 1.02  14 1.36  15 1.48
  20  0.546  0.540  0.499-   9 1.04  17 1.35  18 1.45
  21  0.461  0.552  0.528-  14 1.25
  22  0.587  0.476  0.494-  17 1.24
 
  LATTYP: Found a simple cubic cell.
 ALAT       =    30.0000000000
  
  Lattice vectors:
  
 A1 = (  30.0000000000,   0.0000000000,   0.0000000000)
 A2 = (   0.0000000000,  30.0000000000,   0.0000000000)
 A3 = (   0.0000000000,   0.0000000000,  30.0000000000)


Analysis of symmetry for initial positions (statically):
=====================================================================
 Subroutine PRICEL returns:
 Original cell was already a primitive cell.
 

 Routine SETGRP: Setting up the symmetry group for a 
 simple cubic supercell.


 Subroutine GETGRP returns: Found  1 space group operations
 (whereof  1 operations were pure point group operations)
 out of a pool of 48 trial point group operations.


The static configuration has the point symmetry C_1 .


Analysis of symmetry for dynamics (positions and initial velocities):
=====================================================================
 Subroutine PRICEL returns:
 Original cell was already a primitive cell.
 

 Routine SETGRP: Setting up the symmetry group for a 
 simple cubic supercell.


 Subroutine GETGRP returns: Found  1 space group operations
 (whereof  1 operations were pure point group operations)
 out of a pool of 48 trial point group operations.


The dynamic configuration has the point symmetry C_1 .
 
 
 KPOINTS: Mo2C                                    

Automatic generation of k-mesh.
Space group operators:
 irot       det(A)        alpha          n_x          n_y          n_z        tau_x        tau_y        tau_z
    1     1.000000     0.000000     1.000000     0.000000     0.000000     0.000000     0.000000     0.000000
 
 Subroutine IBZKPT returns following result:
 ===========================================
 
 Found      4 irreducible k-points:
 
 Following reciprocal coordinates:
            Coordinates               Weight
  0.250000  0.250000  0.250000      2.000000
 -0.250000  0.250000  0.250000      2.000000
  0.250000 -0.250000  0.250000      2.000000
 -0.250000 -0.250000  0.250000      2.000000
 
 Following cartesian coordinates:
            Coordinates               Weight
  0.008333  0.008333  0.008333      2.000000
 -0.008333  0.008333  0.008333      2.000000
  0.008333 -0.008333  0.008333      2.000000
 -0.008333 -0.008333  0.008333      2.000000
 


--------------------------------------------------------------------------------------------------------




 Dimension of arrays:
   k-points           NKPTS =      4   k-points in BZ     NKDIM =      4   number of bands    NBANDS=     41
   number of dos      NEDOS =    301   number of ions     NIONS =     22
   non local maximal  LDIM  =      4   non local SUM 2l+1 LMDIM =      8
   total plane-waves  NPLWV = ******
   max r-space proj   IRMAX =   2395   max aug-charges    IRDMAX=   1821
   dimension x,y,z NGX =   150 NGY =  150 NGZ =  150
   dimension x,y,z NGXF=   300 NGYF=  300 NGZF=  300
   support grid    NGXF=   300 NGYF=  300 NGZF=  300
   ions per type =              12   6   2   2
 NGX,Y,Z   is equivalent  to a cutoff of   8.31,  8.31,  8.31 a.u.
 NGXF,Y,Z  is equivalent  to a cutoff of  16.62, 16.62, 16.62 a.u.


 I would recommend the setting:
   dimension x,y,z NGX =   147 NGY =  147 NGZ =  147
 SYSTEM =  unknown system                          
 POSCAR =  H12 C6 N2 O2                            

 Startparameter for this run:
   NWRITE =      2    write-flag & timer
   PREC   = normal    normal or accurate (medium, high low for compatibility)
   ISTART =      0    job   : 0-new  1-cont  2-samecut
   ICHARG =      2    charge: 1-file 2-atom 10-const
   ISPIN  =      1    spin polarized calculation?
   LNONCOLLINEAR =      F non collinear calculations
   LSORBIT =      F    spin-orbit coupling
   INIWAV =      1    electr: 0-lowe 1-rand  2-diag
   LASPH  =      F    aspherical Exc in radial PAW
   METAGGA=      F    non-selfconsistent MetaGGA calc.

 Electronic Relaxation 1
   ENCUT  =  400.0 eV  29.40 Ry    5.42 a.u.  48.92 48.92 48.92*2*pi/ulx,y,z
   ENINI  =  400.0     initial cutoff
   ENAUG  =  644.9 eV  augmentation charge cutoff
   NELM   =    500;   NELMIN=  6; NELMDL= -5     # of ELM steps 
   EDIFF  = 0.1E-03   stopping-criterion for ELM
   LREAL  =      T    real-space projection
   NLSPLINE    = F    spline interpolate recip. space projectors
   LCOMPAT=      F    compatible to vasp.4.4
   GGA_COMPAT  = T    GGA compatible to vasp.4.4-vasp.4.6
   LMAXPAW     = -100 max onsite density
   LMAXMIX     =    2 max onsite mixed and CHGCAR
   VOSKOWN=      0    Vosko Wilk Nusair interpolation
   ROPT   =   -0.00050  -0.00050  -0.00050  -0.00050
 Ionic relaxation
   EDIFFG = -.1E+00   stopping-criterion for IOM
   NSW    =    300    number of steps for IOM
   NBLOCK =      1;   KBLOCK =    300    inner block; outer block 
   IBRION =      3    ionic relax: 0-MD 1-quasi-New 2-CG
   NFREE  =      0    steps in history (QN), initial steepest desc. (CG)
   ISIF   =      2    stress and relaxation
   IWAVPR =     11    prediction:  0-non 1-charg 2-wave 3-comb
   ISYM   =      2    0-nonsym 1-usesym 2-fastsym
   LCORR  =      T    Harris-Foulkes like correction to forces

   POTIM  = 0.0000    time-step for ionic-motion
   TEIN   =    0.0    initial temperature
   TEBEG  =    0.0;   TEEND  =   0.0 temperature during run
   SMASS  =   2.00    Nose mass-parameter (am)
   estimated Nose-frequenzy (Omega)   =  0.24E+10 period in steps =  0.00 mass=   0.137E-25a.u.
   SCALEE = 1.0000    scale energy and forces
   NPACO  =    256;   APACO  = 16.0  distance and # of slots for P.C.
   PSTRESS=    0.0 pullay stress

  Mass of Ions in am
   POMASS =   1.00 12.01 14.00 16.00
  Ionic Valenz
   ZVAL   =   1.00  4.00  5.00  6.00
  Atomic Wigner-Seitz radii
   RWIGS  =  -1.00 -1.00 -1.00 -1.00
  virtual crystal weights 
   VCA    =   1.00  1.00  1.00  1.00
   NELECT =      58.0000    total number of electrons
   NUPDOWN=      -1.0000    fix difference up-down

 DOS related values:
   EMIN   =  10.00;   EMAX   =-10.00  energy-range for DOS
   EFERMI =   0.00
   ISMEAR =     0;   SIGMA  =   0.20  broadening in eV -4-tet -1-fermi 0-gaus

 Electronic relaxation 2 (details)
   IALGO  =     38    algorithm
   LDIAG  =      T    sub-space diagonalisation (order eigenvalues)
   LSUBROT=      F    optimize rotation matrix (better conditioning)
   TURBO    =      0    0=normal 1=particle mesh
   IRESTART =      0    0=no restart 2=restart with 2 vectors
   NREBOOT  =      0    no. of reboots
   NMIN     =      0    reboot dimension
   EREF     =   0.00    reference energy to select bands
   IMIX   =      4    mixing-type and parameters
     AMIX     =   0.40;   BMIX     =  1.00
     AMIX_MAG =   1.60;   BMIX_MAG =  1.00
     AMIN     =   0.10
     WC   =   100.;   INIMIX=   1;  MIXPRE=   1;  MAXMIX= -45

 Intra band minimization:
   WEIMIN = 0.0010     energy-eigenvalue tresh-hold
   EBREAK =  0.61E-06  absolut break condition
   DEPER  =   0.30     relativ break condition  

   TIME   =   0.40     timestep for ELM

  volume/ion in A,a.u.               =    1227.27      8282.05
  Fermi-wavevector in a.u.,A,eV,Ry     =   0.211234  0.399174  0.607087  0.044620
  Thomas-Fermi vector in A             =   0.980021
 
 Write flags
   LWAVE  =      F    write WAVECAR
   LCHARG =      F    write CHGCAR
   LVTOT  =      F    write LOCPOT, total local potential
   LVHAR  =      F    write LOCPOT, Hartree potential only
   LELF   =      F    write electronic localiz. function (ELF)
   LORBIT =      0    0 simple, 1 ext, 2 COOP (PROOUT)


 Dipole corrections
   LMONO  =      F    monopole corrections only (constant potential shift)
   LDIPOL =      F    correct potential (dipole corrections)
   IDIPOL =      0    1-x, 2-y, 3-z, 4-all directions 
   EPSILON=  1.0000000 bulk dielectric constant

 Exchange correlation treatment:
   GGA     =    PE    GGA type
   LEXCH   =     8    internal setting for exchange type
   VOSKOWN=      0    Vosko Wilk Nusair interpolation
   LHFCALC =     F    Hartree Fock is set to
   LHFONE  =     F    Hartree Fock one center treatment
   AEXX    =    0.0000 exact exchange contribution

 Linear response parameters
   LEPSILON=     F    determine dielectric tensor
   LRPA    =     F    only Hartree local field effects (RPA)
   LNABLA  =     F    use nabla operator in PAW spheres
   LVEL    =     F    velocity operator in full k-point grid
   LINTERFAST=   F  fast interpolation
   KINTER  =     0    interpolate to denser k-point grid
   CSHIFT  =0.1000    complex shift for real part using Kramers Kronig
   OMEGAMAX=  -1.0    maximum frequency
   DEG_THRESHOLD= 0.2000000E-02 threshold for treating states as degnerate
   RTIME   =    0.100 relaxation time in fs

 Orbital magnetization related:
   ORBITALMAG=     F  switch on orbital magnetization
   LCHIMAG   =     F  perturbation theory with respect to B field
   DQ        =  0.001000  dq finite difference perturbation B field



--------------------------------------------------------------------------------------------------------


 quickmin algorithm: (dynamic with friction)
 charge density and potential will be updated during run
 non-spin polarized calculation
 Variant of blocked Davidson
 Davidson routine will perform the subspace rotation
 perform sub-space diagonalisation
    after iterative eigenvector-optimisation
 modified Broyden-mixing scheme, WC =      100.0
 initial mixing is a Kerker type mixing with AMIX =  0.4000 and BMIX =      1.0000
 Hartree-type preconditioning will be used
 using additional bands           12
 real space projection scheme for non local part
 use partial core corrections
 calculate Harris-corrections to forces 
   (improved forces if not selfconsistent)
 use gradient corrections 
 use of overlap-Matrix (Vanderbilt PP)
 Gauss-broadening in eV      SIGMA  =   0.20


--------------------------------------------------------------------------------------------------------


  energy-cutoff  :      400.00
  volume of cell :    27000.00
      direct lattice vectors                 reciprocal lattice vectors
    30.000000000  0.000000000  0.000000000     0.033333333  0.000000000  0.000000000
     0.000000000 30.000000000  0.000000000     0.000000000  0.033333333  0.000000000
     0.000000000  0.000000000 30.000000000     0.000000000  0.000000000  0.033333333

  length of vectors
    30.000000000 30.000000000 30.000000000     0.033333333  0.033333333  0.033333333


 
 k-points in units of 2pi/SCALE and weight: Mo2C                                    
   0.00833333  0.00833333  0.00833333       0.250
  -0.00833333  0.00833333  0.00833333       0.250
   0.00833333 -0.00833333  0.00833333       0.250
  -0.00833333 -0.00833333  0.00833333       0.250
 
 k-points in reciprocal lattice and weights: Mo2C                                    
   0.25000000  0.25000000  0.25000000       0.250
  -0.25000000  0.25000000  0.25000000       0.250
   0.25000000 -0.25000000  0.25000000       0.250
  -0.25000000 -0.25000000  0.25000000       0.250
 
 position of ions in fractional coordinates (direct lattice) 
   0.38005296  0.54916379  0.50508947
   0.38515278  0.50108703  0.46988911
   0.38016388  0.49480930  0.52855211
   0.45042973  0.45589893  0.48561388
   0.50749209  0.47115098  0.55563268
   0.55478756  0.41140161  0.51354749
   0.51457854  0.41431137  0.47057182
   0.49792245  0.39569590  0.52439066
   0.51617123  0.55248439  0.51112600
   0.61002295  0.55123930  0.47447502
   0.56607872  0.56856495  0.43870021
   0.57797606  0.60089564  0.48669826
   0.39447748  0.51582817  0.50209395
   0.44412275  0.51860675  0.51020023
   0.51083709  0.46763438  0.51906105
   0.51967499  0.41905258  0.50661351
   0.55183419  0.49512096  0.50314478
   0.57682491  0.56665489  0.47379546
   0.46795964  0.48149325  0.49927034
   0.54577585  0.53951284  0.49900426
   0.46097746  0.55206192  0.52807976
   0.58719363  0.47559402  0.49447335
 
 position of ions in cartesian coordinates  (Angst):
  11.40158883 16.47491358 15.15268411
  11.55458351 15.03261079 14.09667338
  11.40491653 14.84427904 15.85656334
  13.51289177 13.67696786 14.56841643
  15.22476282 14.13452932 16.66898053
  16.64362679 12.34204820 15.40642464
  15.43735621 12.42934113 14.11715452
  14.93767340 11.87087711 15.73171979
  15.48513691 16.57453159 15.33378003
  18.30068846 16.53717914 14.23425045
  16.98236170 17.05694848 13.16100640
  17.33928170 18.02686913 14.60094772
  11.83432448 15.47484512 15.06281838
  13.32368249 15.55820236 15.30600692
  15.32511266 14.02903127 15.57183146
  15.59024983 12.57157737 15.19840532
  16.55502570 14.85362882 15.09434337
  17.30474726 16.99964655 14.21386379
  14.03878924 14.44479760 14.97811021
  16.37327558 16.18538511 14.97012795
  13.82932390 16.56185753 15.84239265
  17.61580894 14.26782070 14.83420054
 


--------------------------------------------------------------------------------------------------------


 k-point  1 :   0.2500 0.2500 0.2500  plane waves:  490454
 k-point  2 :  -0.2500 0.2500 0.2500  plane waves:  490454
 k-point  3 :   0.2500-0.2500 0.2500  plane waves:  490454
 k-point  4 :  -0.2500-0.2500 0.2500  plane waves:  490454

 maximum and minimum number of plane-waves per node :    490454   490454

 maximum number of plane-waves:    490454
 maximum index in each direction: 
   IXMAX=   49   IYMAX=   49   IZMAX=   48
   IXMIN=  -49   IYMIN=  -49   IZMIN=  -49

 WARNING: aliasing errors must be expected set NGX to 198 to avoid them
 WARNING: aliasing errors must be expected set NGY to 198 to avoid them
 WARNING: aliasing errors must be expected set NGZ to 196 to avoid them
 aliasing errors are usually negligible using standard VASP settings
 and one can safely disregard these warnings

 serial   3D FFT for wavefunctions
 parallel 3D FFT for charge:
    minimum data exchange during FFTs selected (reduces bandwidth)


 total amount of memory used by VASP on root node  4333710. kBytes
========================================================================

   base      :      30000. kBytes
   nonlr-proj:       2405. kBytes
   fftplans  :     924480. kBytes
   grid      :    2089440. kBytes
   one-center:         67. kBytes
   wavefun   :    1287318. kBytes
 
     INWAV:  cpu time    0.0010: real time    0.0003
 Broyden mixing: mesh for mixing (old mesh)
   NGX = 97   NGY = 97   NGZ = 97
  (NGX  =300   NGY  =300   NGZ  =300)
  gives a total of 912673 points

 initial charge density was supplied:
 charge density of overlapping atoms calculated
 number of electron      58.0000000 magnetization 
 keeping initial charge density in first step


--------------------------------------------------------------------------------------------------------


 Maximum index for non-local projection operator         2281
 Maximum index for augmentation-charges         1577 (set IRDMAX)


--------------------------------------------------------------------------------------------------------


 First call to EWALD:  gamma=   0.059
 Maximum number of real-space cells 3x 3x 3
 Maximum number of reciprocal cells 3x 3x 3

 FEWALD executed in parallel
    FEWALD:  cpu time    0.0050: real time    0.0048


----------------------------------------- Iteration    1(   1)  ---------------------------------------


    POTLOK:  cpu time   20.0230: real time   20.0071
    SETDIJ:  cpu time    0.0290: real time    0.0284
     EDDAV:  cpu time  252.3346: real time  252.1254
       DOS:  cpu time    0.0010: real time    0.0009
    --------------------------------------------
      LOOP:  cpu time  272.3906: real time  272.1662

 eigenvalue-minimisations  :   392
 total energy-change (2. order) : 0.6092453E+03  (-0.7979828E+03)
 number of electron      58.0000000 magnetization 
 augmentation part       58.0000000 magnetization 

 Free energy of the ion-electron system (eV)
  ---------------------------------------------------
  alpha Z        PSCENC =         0.51957394
  Ewald energy   TEWEN  =      6103.14346975
  -Hartree energ DENC   =     -7845.14561176
  -exchange      EXHF   =         0.00000000
  -V(xc)+E(xc)   XCENC  =       202.19513086
  PAW double counting   =      1779.70502452    -1789.20730229
  entropy T*S    EENTRO =        -0.80470451
  eigenvalues    EBANDS =      -267.14357982
  atomic energy  EATOM  =      2425.98333211
  Solvation  Ediel_sol  =         0.00000000
  ---------------------------------------------------
  free energy    TOTEN  =       609.24533279 eV

  energy without entropy =      610.05003730  energy(sigma->0) =      609.64768504


--------------------------------------------------------------------------------------------------------




----------------------------------------- Iteration    1(   2)  ---------------------------------------


     EDDAV:  cpu time  346.9982: real time  346.7101
       DOS:  cpu time    0.0000: real time    0.0008
    --------------------------------------------
      LOOP:  cpu time  346.9982: real time  346.7134

 eigenvalue-minimisations  :   579
 total energy-change (2. order) :-0.3375352E+03  (-0.3271414E+03)
 number of electron      58.0000000 magnetization 
 augmentation part       58.0000000 magnetization 

 Free energy of the ion-electron system (eV)
  ---------------------------------------------------
  alpha Z        PSCENC =         0.51957394
  Ewald energy   TEWEN  =      6103.14346975
  -Hartree energ DENC   =     -7845.14561176
  -exchange      EXHF   =         0.00000000
  -V(xc)+E(xc)   XCENC  =       202.19513086
  PAW double counting   =      1779.70502452    -1789.20730229
  entropy T*S    EENTRO =        -0.46252226
  eigenvalues    EBANDS =      -605.02094311
  atomic energy  EATOM  =      2425.98333211
  Solvation  Ediel_sol  =         0.00000000
  ---------------------------------------------------
  free energy    TOTEN  =       271.71015175 eV

  energy without entropy =      272.17267401  energy(sigma->0) =      271.94141288


--------------------------------------------------------------------------------------------------------




----------------------------------------- Iteration    1(   3)  ---------------------------------------


     EDDAV:  cpu time  308.3451: real time  308.0890
       DOS:  cpu time    0.0000: real time    0.0006
    --------------------------------------------
      LOOP:  cpu time  308.3461: real time  308.0928

 eigenvalue-minimisations  :   504
 total energy-change (2. order) :-0.3180210E+03  (-0.3083835E+03)
 number of electron      58.0000000 magnetization 
 augmentation part       58.0000000 magnetization 

 Free energy of the ion-electron system (eV)
  ---------------------------------------------------
  alpha Z        PSCENC =         0.51957394
  Ewald energy   TEWEN  =      6103.14346975
  -Hartree energ DENC   =     -7845.14561176
  -exchange      EXHF   =         0.00000000
  -V(xc)+E(xc)   XCENC  =       202.19513086
  PAW double counting   =      1779.70502452    -1789.20730229
  entropy T*S    EENTRO =        -0.00753205
  eigenvalues    EBANDS =      -923.49697954
  atomic energy  EATOM  =      2425.98333211
  Solvation  Ediel_sol  =         0.00000000
  ---------------------------------------------------
  free energy    TOTEN  =       -46.31089446 eV

  energy without entropy =      -46.30336242  energy(sigma->0) =      -46.30712844


--------------------------------------------------------------------------------------------------------




----------------------------------------- Iteration    1(   4)  ---------------------------------------


     EDDAV:  cpu time  252.9695: real time  252.7611
       DOS:  cpu time    0.0000: real time    0.0005
    --------------------------------------------
      LOOP:  cpu time  252.9715: real time  252.7647

 eigenvalue-minimisations  :   395
 total energy-change (2. order) :-0.9000702E+02  (-0.8975809E+02)
 number of electron      58.0000000 magnetization 
 augmentation part       58.0000000 magnetization 

 Free energy of the ion-electron system (eV)
  ---------------------------------------------------
  alpha Z        PSCENC =         0.51957394
  Ewald energy   TEWEN  =      6103.14346975
  -Hartree energ DENC   =     -7845.14561176
  -exchange      EXHF   =         0.00000000
  -V(xc)+E(xc)   XCENC  =       202.19513086
  PAW double counting   =      1779.70502452    -1789.20730229
  entropy T*S    EENTRO =         0.00000000
  eigenvalues    EBANDS =     -1013.51153000
  atomic energy  EATOM  =      2425.98333211
  Solvation  Ediel_sol  =         0.00000000
  ---------------------------------------------------
  free energy    TOTEN  =      -136.31791288 eV

  energy without entropy =     -136.31791288  energy(sigma->0) =     -136.31791288


--------------------------------------------------------------------------------------------------------




----------------------------------------- Iteration    1(   5)  ---------------------------------------


     EDDAV:  cpu time  288.1572: real time  287.9189
       DOS:  cpu time    0.0000: real time    0.0005
    CHARGE:  cpu time   16.6835: real time   16.6691
    MIXING:  cpu time    0.5889: real time    0.5887
    --------------------------------------------
      LOOP:  cpu time  305.4316: real time  305.1805

 eigenvalue-minimisations  :   464
 total energy-change (2. order) :-0.5400949E+01  (-0.5387779E+01)
 number of electron      57.9999892 magnetization 
 augmentation part        2.9677384 magnetization 

 Broyden mixing:
  rms(total) = 0.19530E+01    rms(broyden)= 0.19509E+01
  rms(prec ) = 0.20283E+01
  weight for this iteration     100.00

 Free energy of the ion-electron system (eV)
  ---------------------------------------------------
  alpha Z        PSCENC =         0.51957394
  Ewald energy   TEWEN  =      6103.14346975
  -Hartree energ DENC   =     -7845.14561176
  -exchange      EXHF   =         0.00000000
  -V(xc)+E(xc)   XCENC  =       202.19513086
  PAW double counting   =      1779.70502452    -1789.20730229
  entropy T*S    EENTRO =         0.00000000
  eigenvalues    EBANDS =     -1018.91247878
  atomic energy  EATOM  =      2425.98333211
  Solvation  Ediel_sol  =         0.00000000
  ---------------------------------------------------
  free energy    TOTEN  =      -141.71886166 eV

  energy without entropy =     -141.71886166  energy(sigma->0) =     -141.71886166


--------------------------------------------------------------------------------------------------------




----------------------------------------- Iteration    1(   6)  ---------------------------------------


    POTLOK:  cpu time   18.4482: real time   18.4340
    SETDIJ:  cpu time    0.0290: real time    0.0285
     EDDAV:  cpu time  258.6787: real time  258.4634
       DOS:  cpu time    0.0000: real time    0.0005
    CHARGE:  cpu time   16.6305: real time   16.6170
    MIXING:  cpu time    0.6279: real time    0.6272
    --------------------------------------------
      LOOP:  cpu time  294.4172: real time  294.1736

 eigenvalue-minimisations  :   404
 total energy-change (2. order) : 0.1011203E+02  (-0.2375181E+01)
 number of electron      57.9999906 magnetization 
 augmentation part        2.6309706 magnetization 

 Broyden mixing:
  rms(total) = 0.99747E+00    rms(broyden)= 0.99702E+00
  rms(prec ) = 0.10256E+01
  weight for this iteration     100.00

 eigenvalues of (default mixing * dielectric matrix)
  average eigenvalue GAMMA=   1.2801
  1.2801

 Free energy of the ion-electron system (eV)
  ---------------------------------------------------
  alpha Z        PSCENC =         0.51957394
  Ewald energy   TEWEN  =      6103.14346975
  -Hartree energ DENC   =     -7959.99522698
  -exchange      EXHF   =         0.00000000
  -V(xc)+E(xc)   XCENC  =       208.23593058
  PAW double counting   =      2775.14056536    -2785.99195696
  entropy T*S    EENTRO =         0.00000000
  eigenvalues    EBANDS =      -898.64251799
  atomic energy  EATOM  =      2425.98333211
  Solvation  Ediel_sol  =         0.00000000
  ---------------------------------------------------
  free energy    TOTEN  =      -131.60683019 eV

  energy without entropy =     -131.60683019  energy(sigma->0) =     -131.60683019


--------------------------------------------------------------------------------------------------------




----------------------------------------- Iteration    1(   7)  ---------------------------------------


    POTLOK:  cpu time   18.3872: real time   18.3728
    SETDIJ:  cpu time    0.0290: real time    0.0284
     EDDAV:  cpu time  273.2225: real time  272.9962
       DOS:  cpu time    0.0000: real time    0.0005
    CHARGE:  cpu time   16.5865: real time   16.5731
    MIXING:  cpu time    0.6739: real time    0.6726
    --------------------------------------------
      LOOP:  cpu time  308.9010: real time  308.6470

 eigenvalue-minimisations  :   432
 total energy-change (2. order) : 0.1758096E+01  (-0.4529176E+00)
 number of electron      57.9999904 magnetization 
 augmentation part        2.6187874 magnetization 

 Broyden mixing:
  rms(total) = 0.51294E+00    rms(broyden)= 0.51283E+00
  rms(prec ) = 0.52558E+00
  weight for this iteration     100.00

 eigenvalues of (default mixing * dielectric matrix)
  average eigenvalue GAMMA=   1.5715
  1.1059  2.0371

 Free energy of the ion-electron system (eV)
  ---------------------------------------------------
  alpha Z        PSCENC =         0.51957394
  Ewald energy   TEWEN  =      6103.14346975
  -Hartree energ DENC   =     -8022.15213312
  -exchange      EXHF   =         0.00000000
  -V(xc)+E(xc)   XCENC  =       211.26923000
  PAW double counting   =      3747.41655669    -3758.54446356
  entropy T*S    EENTRO =         0.00000000
  eigenvalues    EBANDS =      -837.48429987
  atomic energy  EATOM  =      2425.98333211
  Solvation  Ediel_sol  =         0.00000000
  ---------------------------------------------------
  free energy    TOTEN  =      -129.84873407 eV

  energy without entropy =     -129.84873407  energy(sigma->0) =     -129.84873407


--------------------------------------------------------------------------------------------------------




----------------------------------------- Iteration    1(   8)  ---------------------------------------


    POTLOK:  cpu time   18.4782: real time   18.4638
    SETDIJ:  cpu time    0.0280: real time    0.0285
     EDDAV:  cpu time  269.0571: real time  268.8332
       DOS:  cpu time    0.0000: real time    0.0005
    CHARGE:  cpu time   16.4865: real time   16.4724
    MIXING:  cpu time    0.6769: real time    0.6769
    --------------------------------------------
      LOOP:  cpu time  304.7287: real time  304.4785

 eigenvalue-minimisations  :   424
 total energy-change (2. order) : 0.4910019E+00  (-0.8714317E-01)
 number of electron      57.9999905 magnetization 
 augmentation part        2.5900291 magnetization 

 Broyden mixing:
  rms(total) = 0.15172E+00    rms(broyden)= 0.15166E+00
  rms(prec ) = 0.15935E+00
  weight for this iteration     100.00

 eigenvalues of (default mixing * dielectric matrix)
  average eigenvalue GAMMA=   1.5408
  2.3847  0.9412  1.2966

 Free energy of the ion-electron system (eV)
  ---------------------------------------------------
  alpha Z        PSCENC =         0.51957394
  Ewald energy   TEWEN  =      6103.14346975
  -Hartree energ DENC   =     -8063.13076737
  -exchange      EXHF   =         0.00000000
  -V(xc)+E(xc)   XCENC  =       213.39780557
  PAW double counting   =      4571.52263222    -4582.83921757
  entropy T*S    EENTRO =         0.00000000
  eigenvalues    EBANDS =      -797.95456083
  atomic energy  EATOM  =      2425.98333211
  Solvation  Ediel_sol  =         0.00000000
  ---------------------------------------------------
  free energy    TOTEN  =      -129.35773219 eV

  energy without entropy =     -129.35773219  energy(sigma->0) =     -129.35773219


--------------------------------------------------------------------------------------------------------




----------------------------------------- Iteration    1(   9)  ---------------------------------------


    POTLOK:  cpu time   18.5432: real time   18.5276
    SETDIJ:  cpu time    0.0280: real time    0.0284
     EDDAV:  cpu time  289.9519: real time  289.7099
       DOS:  cpu time    0.0000: real time    0.0005
    CHARGE:  cpu time   16.4845: real time   16.4707
    MIXING:  cpu time    0.7259: real time    0.7248
    --------------------------------------------
      LOOP:  cpu time  325.7345: real time  325.4656

 eigenvalue-minimisations  :   464
 total energy-change (2. order) : 0.6823670E-01  (-0.9758880E-02)
 number of electron      57.9999906 magnetization 
 augmentation part        2.5830242 magnetization 

 Broyden mixing:
  rms(total) = 0.56327E-01    rms(broyden)= 0.56301E-01
  rms(prec ) = 0.64871E-01
  weight for this iteration     100.00

 eigenvalues of (default mixing * dielectric matrix)
  average eigenvalue GAMMA=   1.5183
  2.1902  1.0500  1.0500  1.7827

 Free energy of the ion-electron system (eV)
  ---------------------------------------------------
  alpha Z        PSCENC =         0.51957394
  Ewald energy   TEWEN  =      6103.14346975
  -Hartree energ DENC   =     -8076.59247836
  -exchange      EXHF   =         0.00000000
  -V(xc)+E(xc)   XCENC  =       213.94038378
  PAW double counting   =      4801.55459397    -4812.84085421
  entropy T*S    EENTRO =         0.00000000
  eigenvalues    EBANDS =      -784.99751647
  atomic energy  EATOM  =      2425.98333211
  Solvation  Ediel_sol  =         0.00000000
  ---------------------------------------------------
  free energy    TOTEN  =      -129.28949549 eV

  energy without entropy =     -129.28949549  energy(sigma->0) =     -129.28949549


--------------------------------------------------------------------------------------------------------




----------------------------------------- Iteration    1(  10)  ---------------------------------------


    POTLOK:  cpu time   18.4892: real time   18.4745
    SETDIJ:  cpu time    0.0280: real time    0.0284
     EDDAV:  cpu time  279.6085: real time  279.3752
       DOS:  cpu time    0.0010: real time    0.0006
    CHARGE:  cpu time   16.4795: real time   16.4666
    MIXING:  cpu time    0.7949: real time    0.7940
    --------------------------------------------
      LOOP:  cpu time  315.4021: real time  316.0529

 eigenvalue-minimisations  :   444
 total energy-change (2. order) : 0.1195057E-01  (-0.2339300E-02)
 number of electron      57.9999906 magnetization 
 augmentation part        2.5885113 magnetization 

 Broyden mixing:
  rms(total) = 0.25953E-01    rms(broyden)= 0.25931E-01
  rms(prec ) = 0.35791E-01
  weight for this iteration     100.00

 eigenvalues of (default mixing * dielectric matrix)
  average eigenvalue GAMMA=   1.4918
  2.1751  2.1751  0.9781  0.9781  1.1527

 Free energy of the ion-electron system (eV)
  ---------------------------------------------------
  alpha Z        PSCENC =         0.51957394
  Ewald energy   TEWEN  =      6103.14346975
  -Hartree energ DENC   =     -8081.76931213
  -exchange      EXHF   =         0.00000000
  -V(xc)+E(xc)   XCENC  =       213.96058091
  PAW double counting   =      4795.28585130    -4806.52364747
  entropy T*S    EENTRO =         0.00000000
  eigenvalues    EBANDS =      -779.87739332
  atomic energy  EATOM  =      2425.98333211
  Solvation  Ediel_sol  =         0.00000000
  ---------------------------------------------------
  free energy    TOTEN  =      -129.27754492 eV

  energy without entropy =     -129.27754492  energy(sigma->0) =     -129.27754492


--------------------------------------------------------------------------------------------------------




----------------------------------------- Iteration    1(  11)  ---------------------------------------


    POTLOK:  cpu time   18.6402: real time   18.6247
    SETDIJ:  cpu time    0.0290: real time    0.0285
     EDDAV:  cpu time  276.2990: real time  276.0693
       DOS:  cpu time    0.0000: real time    0.0005
    CHARGE:  cpu time   16.5785: real time   16.5644
    MIXING:  cpu time    0.8049: real time    0.8038
    --------------------------------------------
      LOOP:  cpu time  312.3525: real time  312.0947

 eigenvalue-minimisations  :   438
 total energy-change (2. order) : 0.5711476E-02  (-0.7566800E-03)
 number of electron      57.9999906 magnetization 
 augmentation part        2.5843705 magnetization 

 Broyden mixing:
  rms(total) = 0.15992E-01    rms(broyden)= 0.15984E-01
  rms(prec ) = 0.24645E-01
  weight for this iteration     100.00

 eigenvalues of (default mixing * dielectric matrix)
  average eigenvalue GAMMA=   1.5477
  2.4779  2.4779  0.9436  0.9436  1.2217  1.2217

 Free energy of the ion-electron system (eV)
  ---------------------------------------------------
  alpha Z        PSCENC =         0.51957394
  Ewald energy   TEWEN  =      6103.14346975
  -Hartree energ DENC   =     -8087.73571669
  -exchange      EXHF   =         0.00000000
  -V(xc)+E(xc)   XCENC  =       214.06877671
  PAW double counting   =      4799.32883975    -4810.56443499
  entropy T*S    EENTRO =         0.00000000
  eigenvalues    EBANDS =      -774.01567403
  atomic energy  EATOM  =      2425.98333211
  Solvation  Ediel_sol  =         0.00000000
  ---------------------------------------------------
  free energy    TOTEN  =      -129.27183344 eV

  energy without entropy =     -129.27183344  energy(sigma->0) =     -129.27183344


--------------------------------------------------------------------------------------------------------




----------------------------------------- Iteration    1(  12)  ---------------------------------------


    POTLOK:  cpu time   18.5512: real time   18.5376
    SETDIJ:  cpu time    0.0290: real time    0.0287
     EDDAV:  cpu time  268.7141: real time  268.4909
       DOS:  cpu time    0.0010: real time    0.0005
    CHARGE:  cpu time   16.5795: real time   16.5666
    MIXING:  cpu time    0.8969: real time    0.8956
    --------------------------------------------
      LOOP:  cpu time  304.7737: real time  304.5228

 eigenvalue-minimisations  :   422
 total energy-change (2. order) :-0.3567178E-03  (-0.5380239E-03)
 number of electron      57.9999906 magnetization 
 augmentation part        2.5840109 magnetization 

 Broyden mixing:
  rms(total) = 0.96922E-02    rms(broyden)= 0.96885E-02
  rms(prec ) = 0.15864E-01
  weight for this iteration     100.00

 eigenvalues of (default mixing * dielectric matrix)
  average eigenvalue GAMMA=   1.6025
  2.7415  2.7415  1.3249  1.2389  1.2389  0.9659  0.9659

 Free energy of the ion-electron system (eV)
  ---------------------------------------------------
  alpha Z        PSCENC =         0.51957394
  Ewald energy   TEWEN  =      6103.14346975
  -Hartree energ DENC   =     -8094.25004527
  -exchange      EXHF   =         0.00000000
  -V(xc)+E(xc)   XCENC  =       214.15185753
  PAW double counting   =      4794.78386159    -4806.00884370
  entropy T*S    EENTRO =         0.00000000
  eigenvalues    EBANDS =      -767.59539611
  atomic energy  EATOM  =      2425.98333211
  Solvation  Ediel_sol  =         0.00000000
  ---------------------------------------------------
  free energy    TOTEN  =      -129.27219016 eV

  energy without entropy =     -129.27219016  energy(sigma->0) =     -129.27219016


--------------------------------------------------------------------------------------------------------




----------------------------------------- Iteration    1(  13)  ---------------------------------------


    POTLOK:  cpu time   18.5202: real time   18.5058
    SETDIJ:  cpu time    0.0290: real time    0.0285
     EDDAV:  cpu time  273.7334: real time  273.5068
       DOS:  cpu time    0.0000: real time    0.0005
    CHARGE:  cpu time   16.5835: real time   16.5696
    MIXING:  cpu time    0.9039: real time    0.9030
    --------------------------------------------
      LOOP:  cpu time  309.7719: real time  309.5179

 eigenvalue-minimisations  :   432
 total energy-change (2. order) :-0.6148706E-02  (-0.4199972E-03)
 number of electron      57.9999906 magnetization 
 augmentation part        2.5828050 magnetization 

 Broyden mixing:
  rms(total) = 0.57260E-02    rms(broyden)= 0.57205E-02
  rms(prec ) = 0.93989E-02
  weight for this iteration     100.00

 eigenvalues of (default mixing * dielectric matrix)
  average eigenvalue GAMMA=   1.7296
  4.1757  2.4886  1.6755  1.4815  1.0195  1.0195  0.9883  0.9883

 Free energy of the ion-electron system (eV)
  ---------------------------------------------------
  alpha Z        PSCENC =         0.51957394
  Ewald energy   TEWEN  =      6103.14346975
  -Hartree energ DENC   =     -8099.95098082
  -exchange      EXHF   =         0.00000000
  -V(xc)+E(xc)   XCENC  =       214.21773220
  PAW double counting   =      4788.41171437    -4799.63543691
  entropy T*S    EENTRO =         0.00000000
  eigenvalues    EBANDS =      -761.96774350
  atomic energy  EATOM  =      2425.98333211
  Solvation  Ediel_sol  =         0.00000000
  ---------------------------------------------------
  free energy    TOTEN  =      -129.27833887 eV

  energy without entropy =     -129.27833887  energy(sigma->0) =     -129.27833887


--------------------------------------------------------------------------------------------------------




----------------------------------------- Iteration    1(  14)  ---------------------------------------


    POTLOK:  cpu time   18.5572: real time   18.5420
    SETDIJ:  cpu time    0.0280: real time    0.0284
     EDDAV:  cpu time  271.9327: real time  271.7057
       DOS:  cpu time    0.0000: real time    0.0005
    CHARGE:  cpu time   16.4985: real time   16.4856
    MIXING:  cpu time    0.9569: real time    0.9552
    --------------------------------------------
      LOOP:  cpu time  307.9742: real time  307.7206

 eigenvalue-minimisations  :   428
 total energy-change (2. order) :-0.6840357E-02  (-0.1996566E-03)
 number of electron      57.9999906 magnetization 
 augmentation part        2.5819805 magnetization 

 Broyden mixing:
  rms(total) = 0.36824E-02    rms(broyden)= 0.36787E-02
  rms(prec ) = 0.56400E-02
  weight for this iteration     100.00

 eigenvalues of (default mixing * dielectric matrix)
  average eigenvalue GAMMA=   1.8245
  5.0511  2.4486  2.1775  1.2643  1.2643  1.2136  1.0707  0.9654  0.9654

 Free energy of the ion-electron system (eV)
  ---------------------------------------------------
  alpha Z        PSCENC =         0.51957394
  Ewald energy   TEWEN  =      6103.14346975
  -Hartree energ DENC   =     -8103.61965600
  -exchange      EXHF   =         0.00000000
  -V(xc)+E(xc)   XCENC  =       214.24476559
  PAW double counting   =      4783.54343335    -4794.76475324
  entropy T*S    EENTRO =         0.00000000
  eigenvalues    EBANDS =      -758.33534472
  atomic energy  EATOM  =      2425.98333211
  Solvation  Ediel_sol  =         0.00000000
  ---------------------------------------------------
  free energy    TOTEN  =      -129.28517923 eV

  energy without entropy =     -129.28517923  energy(sigma->0) =     -129.28517923


--------------------------------------------------------------------------------------------------------




----------------------------------------- Iteration    1(  15)  ---------------------------------------


    POTLOK:  cpu time   18.6632: real time   18.6487
    SETDIJ:  cpu time    0.0290: real time    0.0284
     EDDAV:  cpu time  273.0335: real time  272.8065
       DOS:  cpu time    0.0000: real time    0.0005
    CHARGE:  cpu time   16.5395: real time   16.5244
    MIXING:  cpu time    1.0278: real time    1.0277
    --------------------------------------------
      LOOP:  cpu time  309.2940: real time  309.0397

 eigenvalue-minimisations  :   430
 total energy-change (2. order) :-0.7387971E-02  (-0.7506110E-04)
 number of electron      57.9999906 magnetization 
 augmentation part        2.5819228 magnetization 

 Broyden mixing:
  rms(total) = 0.24013E-02    rms(broyden)= 0.24000E-02
  rms(prec ) = 0.35150E-02
  weight for this iteration     100.00

 eigenvalues of (default mixing * dielectric matrix)
  average eigenvalue GAMMA=   1.9112
  5.5985  2.7732  2.3502  1.8071  1.4518  0.9957  1.0488  1.0488  1.0187  1.0187

 Free energy of the ion-electron system (eV)
  ---------------------------------------------------
  alpha Z        PSCENC =         0.51957394
  Ewald energy   TEWEN  =      6103.14346975
  -Hartree energ DENC   =     -8105.19596511
  -exchange      EXHF   =         0.00000000
  -V(xc)+E(xc)   XCENC  =       214.24294929
  PAW double counting   =      4782.63781505    -4793.85788917
  entropy T*S    EENTRO =         0.00000000
  eigenvalues    EBANDS =      -756.76585305
  atomic energy  EATOM  =      2425.98333211
  Solvation  Ediel_sol  =         0.00000000
  ---------------------------------------------------
  free energy    TOTEN  =      -129.29256720 eV

  energy without entropy =     -129.29256720  energy(sigma->0) =     -129.29256720


--------------------------------------------------------------------------------------------------------




----------------------------------------- Iteration    1(  16)  ---------------------------------------


    POTLOK:  cpu time   18.6852: real time   18.6705
    SETDIJ:  cpu time    0.0290: real time    0.0285
     EDDAV:  cpu time  222.6302: real time  222.4457
       DOS:  cpu time    0.0010: real time    0.0005
    CHARGE:  cpu time   16.5855: real time   16.5717
    MIXING:  cpu time    1.0598: real time    1.0597
    --------------------------------------------
      LOOP:  cpu time  258.9916: real time  258.7792

 eigenvalue-minimisations  :   332
 total energy-change (2. order) :-0.5890416E-02  (-0.4615871E-04)
 number of electron      57.9999906 magnetization 
 augmentation part        2.5818938 magnetization 

 Broyden mixing:
  rms(total) = 0.13161E-02    rms(broyden)= 0.13156E-02
  rms(prec ) = 0.19679E-02
  weight for this iteration     100.00

 eigenvalues of (default mixing * dielectric matrix)
  average eigenvalue GAMMA=   1.9570
  6.3528  3.1683  2.3386  1.9223  1.3280  1.3280  1.0354  1.0037  1.0037  1.0229
  1.0229

 Free energy of the ion-electron system (eV)
  ---------------------------------------------------
  alpha Z        PSCENC =         0.51957394
  Ewald energy   TEWEN  =      6103.14346975
  -Hartree energ DENC   =     -8105.85654456
  -exchange      EXHF   =         0.00000000
  -V(xc)+E(xc)   XCENC  =       214.23421554
  PAW double counting   =      4782.77049922    -4793.99028498
  entropy T*S    EENTRO =         0.00000000
  eigenvalues    EBANDS =      -756.10271863
  atomic energy  EATOM  =      2425.98333211
  Solvation  Ediel_sol  =         0.00000000
  ---------------------------------------------------
  free energy    TOTEN  =      -129.29845761 eV

  energy without entropy =     -129.29845761  energy(sigma->0) =     -129.29845761


--------------------------------------------------------------------------------------------------------




----------------------------------------- Iteration    1(  17)  ---------------------------------------


    POTLOK:  cpu time   18.6172: real time   18.6017
    SETDIJ:  cpu time    0.0280: real time    0.0284
     EDDAV:  cpu time  242.3892: real time  242.1882
       DOS:  cpu time    0.0000: real time    0.0005
    CHARGE:  cpu time   16.5095: real time   16.4953
    MIXING:  cpu time    1.1358: real time    1.1349
    --------------------------------------------
      LOOP:  cpu time  278.6826: real time  278.5632

 eigenvalue-minimisations  :   368
 total energy-change (2. order) :-0.2418448E-02  (-0.1100171E-04)
 number of electron      57.9999906 magnetization 
 augmentation part        2.5818627 magnetization 

 Broyden mixing:
  rms(total) = 0.88135E-03    rms(broyden)= 0.88099E-03
  rms(prec ) = 0.12981E-02
  weight for this iteration     100.00

 eigenvalues of (default mixing * dielectric matrix)
  average eigenvalue GAMMA=   2.0243
  7.0054  3.6030  2.2657  2.2657  1.5400  1.5400  1.0665  1.0665  0.9802  0.9802
  0.9893  0.9893

 Free energy of the ion-electron system (eV)
  ---------------------------------------------------
  alpha Z        PSCENC =         0.51957394
  Ewald energy   TEWEN  =      6103.14346975
  -Hartree energ DENC   =     -8106.16192936
  -exchange      EXHF   =         0.00000000
  -V(xc)+E(xc)   XCENC  =       214.23026912
  PAW double counting   =      4782.71384698    -4793.93342596
  entropy T*S    EENTRO =         0.00000000
  eigenvalues    EBANDS =      -755.79601263
  atomic energy  EATOM  =      2425.98333211
  Solvation  Ediel_sol  =         0.00000000
  ---------------------------------------------------
  free energy    TOTEN  =      -129.30087606 eV

  energy without entropy =     -129.30087606  energy(sigma->0) =     -129.30087606


--------------------------------------------------------------------------------------------------------




----------------------------------------- Iteration    1(  18)  ---------------------------------------


    POTLOK:  cpu time   18.6942: real time   18.6804
    SETDIJ:  cpu time    0.0290: real time    0.0284
     EDDAV:  cpu time  236.5530: real time  236.3565
       DOS:  cpu time    0.0000: real time    0.0005
    CHARGE:  cpu time   16.5665: real time   16.5527
    MIXING:  cpu time    1.2218: real time    1.2208
    --------------------------------------------
      LOOP:  cpu time  273.0665: real time  272.8462

 eigenvalue-minimisations  :   356
 total energy-change (2. order) :-0.1839206E-02  (-0.1215197E-04)
 number of electron      57.9999906 magnetization 
 augmentation part        2.5818356 magnetization 

 Broyden mixing:
  rms(total) = 0.53560E-03    rms(broyden)= 0.53544E-03
  rms(prec ) = 0.76908E-03
  weight for this iteration     100.00

 eigenvalues of (default mixing * dielectric matrix)
  average eigenvalue GAMMA=   2.0867
  7.5634  4.1781  2.4728  2.3120  1.7368  1.4163  1.4163  1.0709  1.0709  0.9754
  0.9754  0.9696  0.9696

 Free energy of the ion-electron system (eV)
  ---------------------------------------------------
  alpha Z        PSCENC =         0.51957394
  Ewald energy   TEWEN  =      6103.14346975
  -Hartree energ DENC   =     -8106.32928356
  -exchange      EXHF   =         0.00000000
  -V(xc)+E(xc)   XCENC  =       214.22701480
  PAW double counting   =      4782.97240049    -4794.19188288
  entropy T*S    EENTRO =         0.00000000
  eigenvalues    EBANDS =      -755.62733991
  atomic energy  EATOM  =      2425.98333211
  Solvation  Ediel_sol  =         0.00000000
  ---------------------------------------------------
  free energy    TOTEN  =      -129.30271527 eV

  energy without entropy =     -129.30271527  energy(sigma->0) =     -129.30271527


--------------------------------------------------------------------------------------------------------




----------------------------------------- Iteration    1(  19)  ---------------------------------------


    POTLOK:  cpu time   18.5032: real time   18.4880
    SETDIJ:  cpu time    0.0280: real time    0.0285
     EDDAV:  cpu time  242.4231: real time  242.2211
       DOS:  cpu time    0.0000: real time    0.0005
    CHARGE:  cpu time   16.5485: real time   16.5348
    MIXING:  cpu time    1.2738: real time    1.2735
    --------------------------------------------
      LOOP:  cpu time  278.7786: real time  278.5497

 eigenvalue-minimisations  :   368
 total energy-change (2. order) :-0.9387083E-03  (-0.5277835E-05)
 number of electron      57.9999906 magnetization 
 augmentation part        2.5818021 magnetization 

 Broyden mixing:
  rms(total) = 0.31874E-03    rms(broyden)= 0.31854E-03
  rms(prec ) = 0.45154E-03
  weight for this iteration     100.00

 eigenvalues of (default mixing * dielectric matrix)
  average eigenvalue GAMMA=   2.1389
  8.0911  4.7345  2.6025  2.6025  1.6083  1.6083  1.6007  1.0633  1.0633  0.9588
  1.0306  1.0306  0.9752  0.9752

 Free energy of the ion-electron system (eV)
  ---------------------------------------------------
  alpha Z        PSCENC =         0.51957394
  Ewald energy   TEWEN  =      6103.14346975
  -Hartree energ DENC   =     -8106.42056854
  -exchange      EXHF   =         0.00000000
  -V(xc)+E(xc)   XCENC  =       214.22645509
  PAW double counting   =      4783.23475040    -4794.45438967
  entropy T*S    EENTRO =         0.00000000
  eigenvalues    EBANDS =      -755.53627705
  atomic energy  EATOM  =      2425.98333211
  Solvation  Ediel_sol  =         0.00000000
  ---------------------------------------------------
  free energy    TOTEN  =      -129.30365397 eV

  energy without entropy =     -129.30365397  energy(sigma->0) =     -129.30365397


--------------------------------------------------------------------------------------------------------




----------------------------------------- Iteration    1(  20)  ---------------------------------------


    POTLOK:  cpu time   18.4472: real time   18.4317
    SETDIJ:  cpu time    0.0280: real time    0.0284
     EDDAV:  cpu time  241.6833: real time  241.4827
       DOS:  cpu time    0.0000: real time    0.0005
    CHARGE:  cpu time   16.4725: real time   16.4588
    MIXING:  cpu time    1.3458: real time    1.3445
    --------------------------------------------
      LOOP:  cpu time  277.9787: real time  277.7499

 eigenvalue-minimisations  :   366
 total energy-change (2. order) :-0.4226229E-03  (-0.1719946E-05)
 number of electron      57.9999906 magnetization 
 augmentation part        2.5818067 magnetization 

 Broyden mixing:
  rms(total) = 0.19522E-03    rms(broyden)= 0.19515E-03
  rms(prec ) = 0.27452E-03
  weight for this iteration     100.00

 eigenvalues of (default mixing * dielectric matrix)
  average eigenvalue GAMMA=   2.1530
  8.3059  5.1741  2.8507  2.5171  1.9474  1.7174  1.3403  1.3403  1.0501  1.0501
  0.9715  1.0416  1.0416  0.9738  0.9738

 Free energy of the ion-electron system (eV)
  ---------------------------------------------------
  alpha Z        PSCENC =         0.51957394
  Ewald energy   TEWEN  =      6103.14346975
  -Hartree energ DENC   =     -8106.44368901
  -exchange      EXHF   =         0.00000000
  -V(xc)+E(xc)   XCENC  =       214.22525564
  PAW double counting   =      4782.93867850    -4794.15824638
  entropy T*S    EENTRO =         0.00000000
  eigenvalues    EBANDS =      -755.51245113
  atomic energy  EATOM  =      2425.98333211
  Solvation  Ediel_sol  =         0.00000000
  ---------------------------------------------------
  free energy    TOTEN  =      -129.30407660 eV

  energy without entropy =     -129.30407660  energy(sigma->0) =     -129.30407660


--------------------------------------------------------------------------------------------------------




----------------------------------------- Iteration    1(  21)  ---------------------------------------


    POTLOK:  cpu time   18.6202: real time   18.6062
    SETDIJ:  cpu time    0.0290: real time    0.0284
     EDDAV:  cpu time  208.7643: real time  208.5904
       DOS:  cpu time    0.0000: real time    0.0005
    CHARGE:  cpu time   16.5635: real time   16.5495
    MIXING:  cpu time    1.3638: real time    1.3632
    --------------------------------------------
      LOOP:  cpu time  245.3427: real time  245.1417

 eigenvalue-minimisations  :   302
 total energy-change (2. order) :-0.2168772E-03  (-0.7852644E-06)
 number of electron      57.9999906 magnetization 
 augmentation part        2.5817914 magnetization 

 Broyden mixing:
  rms(total) = 0.11659E-03    rms(broyden)= 0.11654E-03
  rms(prec ) = 0.16539E-03
  weight for this iteration     100.00

 eigenvalues of (default mixing * dielectric matrix)
  average eigenvalue GAMMA=   2.2231
  8.4918  5.7745  3.4363  2.6207  2.3451  1.6178  1.6178  1.4987  1.0723  1.0723
  1.0740  1.0740  0.9728  0.9728  0.9895  0.9399

 Free energy of the ion-electron system (eV)
  ---------------------------------------------------
  alpha Z        PSCENC =         0.51957394
  Ewald energy   TEWEN  =      6103.14346975
  -Hartree energ DENC   =     -8106.45515597
  -exchange      EXHF   =         0.00000000
  -V(xc)+E(xc)   XCENC  =       214.22507168
  PAW double counting   =      4783.00061986    -4794.22021078
  entropy T*S    EENTRO =         0.00000000
  eigenvalues    EBANDS =      -755.50099407
  atomic energy  EATOM  =      2425.98333211
  Solvation  Ediel_sol  =         0.00000000
  ---------------------------------------------------
  free energy    TOTEN  =      -129.30429347 eV

  energy without entropy =     -129.30429347  energy(sigma->0) =     -129.30429347


--------------------------------------------------------------------------------------------------------




----------------------------------------- Iteration    1(  22)  ---------------------------------------


    POTLOK:  cpu time   18.6222: real time   18.6074
    SETDIJ:  cpu time    0.0290: real time    0.0287
     EDDAV:  cpu time  208.6833: real time  208.5101
       DOS:  cpu time    0.0000: real time    0.0005
    CHARGE:  cpu time   16.5285: real time   16.5151
    MIXING:  cpu time    1.4748: real time    1.4724
    --------------------------------------------
      LOOP:  cpu time  245.3397: real time  245.1376

 eigenvalue-minimisations  :   302
 total energy-change (2. order) :-0.1366502E-03  (-0.3747935E-06)
 number of electron      57.9999906 magnetization 
 augmentation part        2.5817967 magnetization 

 Broyden mixing:
  rms(total) = 0.87977E-04    rms(broyden)= 0.87937E-04
  rms(prec ) = 0.10780E-03
  weight for this iteration     100.00

 eigenvalues of (default mixing * dielectric matrix)
  average eigenvalue GAMMA=   2.2150
  8.5541  6.1346  3.6437  2.4810  2.4810  1.8891  1.6289  1.3261  1.3261  1.0512
  1.0512  1.1116  1.1116  0.9702  0.9702  0.9619  0.9619

 Free energy of the ion-electron system (eV)
  ---------------------------------------------------
  alpha Z        PSCENC =         0.51957394
  Ewald energy   TEWEN  =      6103.14346975
  -Hartree energ DENC   =     -8106.47117458
  -exchange      EXHF   =         0.00000000
  -V(xc)+E(xc)   XCENC  =       214.22486201
  PAW double counting   =      4782.92474372    -4794.14433242
  entropy T*S    EENTRO =         0.00000000
  eigenvalues    EBANDS =      -755.48490465
  atomic energy  EATOM  =      2425.98333211
  Solvation  Ediel_sol  =         0.00000000
  ---------------------------------------------------
  free energy    TOTEN  =      -129.30443012 eV

  energy without entropy =     -129.30443012  energy(sigma->0) =     -129.30443012


--------------------------------------------------------------------------------------------------------




----------------------------------------- Iteration    1(  23)  ---------------------------------------


    POTLOK:  cpu time   18.6382: real time   18.6234
    SETDIJ:  cpu time    0.0290: real time    0.0285
     EDDAV:  cpu time  232.9456: real time  232.7514
       DOS:  cpu time    0.0000: real time    0.0005
    --------------------------------------------
      LOOP:  cpu time  251.6127: real time  251.4073

 eigenvalue-minimisations  :   352
 total energy-change (2. order) :-0.3884367E-04  (-0.9320132E-07)
 number of electron      57.9999906 magnetization 
 augmentation part        2.5817967 magnetization 

 Free energy of the ion-electron system (eV)
  ---------------------------------------------------
  alpha Z        PSCENC =         0.51957394
  Ewald energy   TEWEN  =      6103.14346975
  -Hartree energ DENC   =     -8106.47949627
  -exchange      EXHF   =         0.00000000
  -V(xc)+E(xc)   XCENC  =       214.22485214
  PAW double counting   =      4782.95179937    -4794.17138355
  entropy T*S    EENTRO =         0.00000000
  eigenvalues    EBANDS =      -755.47661646
  atomic energy  EATOM  =      2425.98333211
  Solvation  Ediel_sol  =         0.00000000
  ---------------------------------------------------
  free energy    TOTEN  =      -129.30446897 eV

  energy without entropy =     -129.30446897  energy(sigma->0) =     -129.30446897


--------------------------------------------------------------------------------------------------------




 average (electrostatic) potential at core
  the test charge radii are     0.5201  0.6991  0.7089  0.7215
  (the norm of the test charge is              1.0000)
       1 -42.3752       2 -42.6614       3 -42.6344       4 -44.7572       5 -42.3586
       6 -41.6355       7 -41.9521       8 -41.9941       9 -43.1395      10 -41.6484
      11 -41.7156      12 -41.8976      13 -59.1543      14 -61.5748      15 -60.0217
      16 -58.5740      17 -60.7270      18 -59.0360      19 -74.7662      20 -73.7710
      21 -80.1358      22 -79.2440
 
 
 
 E-fermi :  -4.4340     XC(G=0):  -0.1520     alpha+bet : -0.0465


 k-point     1 :       0.2500    0.2500    0.2500
  band No.  band energies     occupation 
      1     -26.3381      2.00000
      2     -25.5119      2.00000
      3     -23.5194      2.00000
      4     -22.5733      2.00000
      5     -19.6003      2.00000
      6     -18.2915      2.00000
      7     -17.4267      2.00000
      8     -15.7584      2.00000
      9     -14.9578      2.00000
     10     -13.9261      2.00000
     11     -12.9852      2.00000
     12     -12.5524      2.00000
     13     -12.0790      2.00000
     14     -11.3282      2.00000
     15     -11.1921      2.00000
     16     -10.5733      2.00000
     17     -10.2669      2.00000
     18     -10.1219      2.00000
     19     -10.0474      2.00000
     20      -9.5861      2.00000
     21      -9.3026      2.00000
     22      -9.1620      2.00000
     23      -8.9766      2.00000
     24      -8.8115      2.00000
     25      -8.4982      2.00000
     26      -6.8736      2.00000
     27      -6.3542      2.00000
     28      -5.6841      2.00000
     29      -5.4394      2.00000
     30      -1.2907      0.00000
     31      -0.9898      0.00000
     32      -0.4918      0.00000
     33      -0.2124      0.00000
     34      -0.1694      0.00000
     35      -0.1125      0.00000
     36       0.0124      0.00000
     37       0.0967      0.00000
     38       0.1031      0.00000
     39       0.1105      0.00000
     40       0.1554      0.00000
     41       0.1765      0.00000

 k-point     2 :      -0.2500    0.2500    0.2500
  band No.  band energies     occupation 
      1     -26.3381      2.00000
      2     -25.5119      2.00000
      3     -23.5194      2.00000
      4     -22.5733      2.00000
      5     -19.6003      2.00000
      6     -18.2915      2.00000
      7     -17.4267      2.00000
      8     -15.7584      2.00000
      9     -14.9578      2.00000
     10     -13.9261      2.00000
     11     -12.9852      2.00000
     12     -12.5524      2.00000
     13     -12.0790      2.00000
     14     -11.3282      2.00000
     15     -11.1921      2.00000
     16     -10.5733      2.00000
     17     -10.2669      2.00000
     18     -10.1219      2.00000
     19     -10.0474      2.00000
     20      -9.5861      2.00000
     21      -9.3026      2.00000
     22      -9.1620      2.00000
     23      -8.9766      2.00000
     24      -8.8115      2.00000
     25      -8.4983      2.00000
     26      -6.8736      2.00000
     27      -6.3542      2.00000
     28      -5.6841      2.00000
     29      -5.4394      2.00000
     30      -1.2907      0.00000
     31      -0.9898      0.00000
     32      -0.4917      0.00000
     33      -0.2125      0.00000
     34      -0.1695      0.00000
     35      -0.1123      0.00000
     36       0.0156      0.00000
     37       0.0827      0.00000
     38       0.0982      0.00000
     39       0.1203      0.00000
     40       0.1633      0.00000
     41       0.1685      0.00000

 k-point     3 :       0.2500   -0.2500    0.2500
  band No.  band energies     occupation 
      1     -26.3381      2.00000
      2     -25.5119      2.00000
      3     -23.5194      2.00000
      4     -22.5733      2.00000
      5     -19.6003      2.00000
      6     -18.2915      2.00000
      7     -17.4267      2.00000
      8     -15.7584      2.00000
      9     -14.9578      2.00000
[...]
 augmentation part        2.5816818 magnetization 

 Free energy of the ion-electron system (eV)
  ---------------------------------------------------
  alpha Z        PSCENC =         0.51957394
  Ewald energy   TEWEN  =      6072.03582020
  -Hartree energ DENC   =     -8074.84245047
  -exchange      EXHF   =         0.00000000
  -V(xc)+E(xc)   XCENC  =       214.14093686
  PAW double counting   =      4783.11698523    -4794.33321262
  entropy T*S    EENTRO =         0.00000000
  eigenvalues    EBANDS =      -756.07766284
  atomic energy  EATOM  =      2425.98333211
  Solvation  Ediel_sol  =         0.00000000
  ---------------------------------------------------
  free energy    TOTEN  =      -129.45667758 eV

  energy without entropy =     -129.45667758  energy(sigma->0) =     -129.45667758


--------------------------------------------------------------------------------------------------------




 average (electrostatic) potential at core
  the test charge radii are     0.5201  0.6991  0.7089  0.7215
  (the norm of the test charge is              1.0000)
       1 -42.3505       2 -42.6057       3 -42.5757       4 -44.7465       5 -42.3510
       6 -41.7770       7 -41.9802       8 -42.0446       9 -43.4130      10 -41.6992
      11 -41.7740      12 -41.9639      13 -59.1189      14 -61.4829      15 -60.0212
      16 -58.6532      17 -60.7900      18 -59.0949      19 -74.7499      20 -73.9301
      21 -79.9857      22 -79.3003
 
 
 
 E-fermi :  -4.4973     XC(G=0):  -0.1344     alpha+bet : -0.0465


 k-point     1 :       0.2500    0.2500    0.2500
  band No.  band energies     occupation 
      1     -26.2323      2.00000
      2     -25.5589      2.00000
      3     -23.4854      2.00000
      4     -22.6591      2.00000
      5     -19.6187      2.00000
      6     -18.2461      2.00000
      7     -17.5010      2.00000
      8     -15.8033      2.00000
      9     -14.9445      2.00000
     10     -14.0184      2.00000
     11     -13.0680      2.00000
     12     -12.4480      2.00000
     13     -12.0233      2.00000
     14     -11.3220      2.00000
     15     -11.1668      2.00000
     16     -10.6507      2.00000
     17     -10.2632      2.00000
     18     -10.1055      2.00000
     19      -9.9866      2.00000
     20      -9.5587      2.00000
     21      -9.3541      2.00000
     22      -9.2833      2.00000
     23      -9.0145      2.00000
     24      -8.8247      2.00000
     25      -8.5154      2.00000
     26      -6.8486      2.00000
     27      -6.2549      2.00000
     28      -5.8016      2.00000
     29      -5.4811      2.00000
     30      -1.1743      0.00000
     31      -0.9334      0.00000
     32      -0.4676      0.00000
     33      -0.2495      0.00000
     34      -0.1770      0.00000
     35      -0.0826      0.00000
     36       0.0342      0.00000
     37       0.1219      0.00000
     38       0.1244      0.00000
     39       0.1304      0.00000
     40       0.1716      0.00000
     41       0.1915      0.00000

 k-point     2 :      -0.2500    0.2500    0.2500
  band No.  band energies     occupation 
      1     -26.2323      2.00000
      2     -25.5589      2.00000
      3     -23.4854      2.00000
      4     -22.6591      2.00000
      5     -19.6187      2.00000
      6     -18.2461      2.00000
      7     -17.5010      2.00000
      8     -15.8033      2.00000
      9     -14.9445      2.00000
     10     -14.0184      2.00000
     11     -13.0680      2.00000
     12     -12.4480      2.00000
     13     -12.0233      2.00000
     14     -11.3221      2.00000
     15     -11.1668      2.00000
     16     -10.6507      2.00000
     17     -10.2632      2.00000
     18     -10.1055      2.00000
     19      -9.9866      2.00000
     20      -9.5587      2.00000
     21      -9.3541      2.00000
     22      -9.2833      2.00000
     23      -9.0146      2.00000
     24      -8.8247      2.00000
     25      -8.5154      2.00000
     26      -6.8486      2.00000
     27      -6.2549      2.00000
     28      -5.8016      2.00000
     29      -5.4811      2.00000
     30      -1.1743      0.00000
     31      -0.9334      0.00000
     32      -0.4675      0.00000
     33      -0.2495      0.00000
     34      -0.1770      0.00000
     35      -0.0827      0.00000
     36       0.0387      0.00000
     37       0.1032      0.00000
     38       0.1209      0.00000
     39       0.1400      0.00000
     40       0.1826      0.00000
     41       0.1893      0.00000

 k-point     3 :       0.2500   -0.2500    0.2500
  band No.  band energies     occupation 
      1     -26.2323      2.00000
      2     -25.5589      2.00000
      3     -23.4854      2.00000
      4     -22.6591      2.00000
      5     -19.6187      2.00000
      6     -18.2461      2.00000
      7     -17.5010      2.00000
      8     -15.8033      2.00000
      9     -14.9445      2.00000
     10     -14.0184      2.00000
     11     -13.0680      2.00000
     12     -12.4480      2.00000
     13     -12.0233      2.00000
     14     -11.3221      2.00000
     15     -11.1668      2.00000
     16     -10.6507      2.00000
     17     -10.2632      2.00000
     18     -10.1055      2.00000
     19      -9.9866      2.00000
     20      -9.5587      2.00000
     21      -9.3541      2.00000
     22      -9.2833      2.00000
     23      -9.0145      2.00000
     24      -8.8248      2.00000
     25      -8.5154      2.00000
     26      -6.8486      2.00000
     27      -6.2549      2.00000
     28      -5.8016      2.00000
     29      -5.4811      2.00000
     30      -1.1743      0.00000
     31      -0.9334      0.00000
     32      -0.4675      0.00000
     33      -0.2495      0.00000
     34      -0.1770      0.00000
     35      -0.0828      0.00000
     36       0.0398      0.00000
     37       0.0985      0.00000
     38       0.1251      0.00000
     39       0.1380      0.00000
     40       0.1840      0.00000
     41       0.1926      0.00000

 k-point     4 :      -0.2500   -0.2500    0.2500
  band No.  band energies     occupation 
      1     -26.2323      2.00000
      2     -25.5589      2.00000
      3     -23.4854      2.00000
      4     -22.6591      2.00000
      5     -19.6187      2.00000
      6     -18.2461      2.00000
      7     -17.5010      2.00000
      8     -15.8033      2.00000
      9     -14.9445      2.00000
     10     -14.0184      2.00000
     11     -13.0680      2.00000
     12     -12.4480      2.00000
     13     -12.0233      2.00000
     14     -11.3221      2.00000
     15     -11.1668      2.00000
     16     -10.6507      2.00000
     17     -10.2632      2.00000
     18     -10.1055      2.00000
     19      -9.9866      2.00000
     20      -9.5587      2.00000
     21      -9.3541      2.00000
     22      -9.2833      2.00000
     23      -9.0145      2.00000
     24      -8.8247      2.00000
     25      -8.5154      2.00000
     26      -6.8487      2.00000
     27      -6.2549      2.00000
     28      -5.8016      2.00000
     29      -5.4811      2.00000
     30      -1.1743      0.00000
     31      -0.9334      0.00000
     32      -0.4675      0.00000
     33      -0.2495      0.00000
     34      -0.1770      0.00000
     35      -0.0830      0.00000
     36       0.0400      0.00000
     37       0.1008      0.00000
     38       0.1279      0.00000
     39       0.1370      0.00000
     40       0.1718      0.00000
     41       0.1967      0.00000


--------------------------------------------------------------------------------------------------------


 soft charge-density along one line, spin component           1
         0         1         2         3         4         5         6         7         8         9
 total charge-density along one line
 
 pseudopotential strength for first ion, spin component:           1
 -2.353  -4.056   0.002   0.000  -0.001
 -4.056  -6.907   0.005   0.000  -0.002
  0.002   0.005  -0.332   0.000  -0.002
  0.000   0.000   0.000  -0.336   0.000
 -0.001  -0.002  -0.002   0.000  -0.335
 total augmentation occupancy for first ion, spin component:           1
  3.531  -0.636  -0.411  -0.001   0.165
 -0.636   0.129   0.076   0.000  -0.030
 -0.411   0.076   0.049   0.000  -0.017
 -0.001   0.000   0.000   0.009  -0.001
  0.165  -0.030  -0.017  -0.001   0.015


------------------------ aborting loop because EDIFF is reached ----------------------------------------


    CHARGE:  cpu time   16.3885: real time   16.3752
    FORLOC:  cpu time    5.8151: real time    5.8095
    FORNL :  cpu time   60.3228: real time   60.2738
    STRESS:  cpu time  184.1930: real time  184.0399
    FORCOR:  cpu time   23.8894: real time   23.8693
    FORHAR:  cpu time   10.6034: real time   10.5946
    MIXING:  cpu time    0.7709: real time    0.7697
    OFIELD:  cpu time    0.0000: real time    0.0000

  FORCE on cell =-STRESS in cart. coord.  units (eV):
  Direction    XX          YY          ZZ          XY          YZ          ZX
  --------------------------------------------------------------------------------------
  Alpha Z     0.51957     0.51957     0.51957
  Ewald    3281.40851  2590.34710   200.27902  -104.22955   100.15277  -391.12382
  Hartree  3729.42812  3068.84822  1276.56513   -59.91072    11.83533  -338.46490
  E(xc)    -229.54337  -229.63060  -232.00375    -0.29171     0.56982    -0.24060
  Local   -7608.53373 -6253.19101 -2108.49674   155.39710   -91.13768   727.86973
  n-local  -133.90429  -133.49974  -132.36783     0.79711    -1.56493     0.42149
  augment    14.46732    14.44855    14.47122     0.09039    -0.70636    -0.08647
  Kinetic   942.59032   938.78864   977.26706     8.01764   -19.01957     1.58135
  Fock        0.00000     0.00000     0.00000     0.00000     0.00000     0.00000
  -------------------------------------------------------------------------------------
  Total      -3.56755    -3.36927    -3.76631    -0.12976     0.12938    -0.04322
  in kB      -0.21170    -0.19993    -0.22349    -0.00770     0.00768    -0.00256
  external pressure =       -0.21 kB  Pullay stress =        0.00 kB


 VOLUME and BASIS-vectors are now :
 -----------------------------------------------------------------------------
  energy-cutoff  :      400.00
  volume of cell :    27000.00
      direct lattice vectors                 reciprocal lattice vectors
    30.000000000  0.000000000  0.000000000     0.033333333  0.000000000  0.000000000
     0.000000000 30.000000000  0.000000000     0.000000000  0.033333333  0.000000000
     0.000000000  0.000000000 30.000000000     0.000000000  0.000000000  0.033333333

  length of vectors
    30.000000000 30.000000000 30.000000000     0.033333333  0.033333333  0.033333333


 FORCES acting on ions
    electron-ion (+dipol)            ewald-force                    non-local-force                 convergence-correction
 -----------------------------------------------------------------------------------------------
   0.596E+02 -.623E+02 0.678E+01   -.617E+02 0.676E+02 -.678E+01   0.213E+01 -.525E+01 -.188E-01   0.148E-04 0.216E-04 -.378E-05
   0.479E+02 0.227E+02 0.652E+02   -.489E+02 -.249E+02 -.701E+02   0.938E+00 0.227E+01 0.491E+01   0.121E-04 0.115E-04 -.890E-05
   0.676E+02 0.327E+02 -.418E+02   -.704E+02 -.355E+02 0.455E+02   0.274E+01 0.290E+01 -.374E+01   0.570E-05 0.729E-05 -.217E-06
   0.602E+02 0.777E+02 0.566E+02   -.637E+02 -.830E+02 -.605E+02   0.352E+01 0.532E+01 0.378E+01   0.165E-04 0.651E-05 -.887E-05
   -.635E+01 0.119E+02 -.990E+02   0.638E+01 -.111E+02 0.104E+03   -.873E-02 -.752E+00 -.553E+01   0.185E-04 0.129E-04 0.160E-05
   -.600E+02 0.626E+02 -.219E+02   0.653E+02 -.641E+02 0.233E+02   -.532E+01 0.152E+01 -.138E+01   -.270E-05 0.858E-05 0.140E-04
   0.216E+01 0.531E+02 0.711E+02   -.243E+01 -.540E+02 -.765E+02   0.289E+00 0.826E+00 0.539E+01   -.227E-05 0.830E-05 0.679E-05
   0.372E+02 0.750E+02 -.324E+02   -.408E+02 -.782E+02 0.350E+02   0.360E+01 0.326E+01 -.256E+01   0.187E-04 0.636E-05 0.204E-05
   0.360E+02 -.686E+02 -.229E+02   -.420E+02 0.712E+02 0.257E+02   0.604E+01 -.263E+01 -.286E+01   -.409E-05 0.101E-04 0.879E-05
   -.864E+02 -.812E+01 0.557E+01   0.915E+02 0.561E+01 -.501E+01   -.512E+01 0.252E+01 -.537E+00   -.119E-04 0.169E-04 0.289E-04
   -.105E+02 -.377E+02 0.775E+02   0.973E+01 0.387E+02 -.828E+02   0.802E+00 -.948E+00 0.536E+01   -.223E-04 0.143E-04 0.476E-05
   -.213E+02 -.819E+02 -.221E+02   0.214E+02 0.869E+02 0.248E+02   -.290E-01 -.493E+01 -.269E+01   -.133E-04 -.104E-04 0.102E-04
   0.223E+03 -.136E+02 0.389E+02   -.223E+03 0.146E+02 -.392E+02   0.774E+00 -.101E+01 0.242E+00   0.484E-04 0.633E-04 -.344E-04
   0.178E+03 -.553E+01 0.189E+02   -.183E+03 0.587E+01 -.199E+02   0.488E+01 -.374E+00 0.996E+00   0.133E-03 0.159E-03 0.560E-04
   -.220E+02 0.994E+02 -.106E+03   0.271E+02 -.101E+03 0.108E+03   -.507E+01 0.157E+01 -.181E+01   0.787E-04 0.742E-04 0.118E-04
   -.178E+02 0.237E+03 -.147E+01   0.189E+02 -.238E+03 0.155E+01   -.116E+01 0.117E+01 -.584E-01   0.334E-04 0.309E-04 0.479E-04
   -.272E+02 0.174E+02 -.182E+02   0.240E+02 -.197E+02 0.195E+02   0.322E+01 0.228E+01 -.138E+01   -.121E-03 0.103E-03 0.461E-04
   -.142E+03 -.181E+03 0.790E+02   0.147E+03 0.184E+03 -.810E+02   -.427E+01 -.273E+01 0.199E+01   -.809E-04 0.538E-04 0.146E-03
   0.120E+03 0.139E+03 0.910E+02   -.116E+03 -.137E+03 -.940E+02   -.395E+01 -.139E+01 0.294E+01   0.123E-03 0.441E-04 -.501E-04
   -.249E+02 -.199E+03 0.200E+02   0.221E+02 0.202E+03 -.212E+02   0.280E+01 -.282E+01 0.122E+01   -.569E-04 0.591E-04 0.106E-03
   0.494E+02 -.334E+03 -.238E+03   -.325E+02 0.375E+03 0.266E+03   -.169E+02 -.409E+02 -.273E+02   0.135E-03 0.160E-03 0.161E-03
   -.406E+03 0.180E+03 0.851E+02   0.452E+03 -.204E+03 -.967E+02   -.457E+02 0.243E+02 0.115E+02   -.178E-03 0.108E-03 0.271E-04
 -----------------------------------------------------------------------------------------------
   0.558E+02 0.158E+02 0.114E+02   0.568E-13 0.853E-13 0.142E-13   -.558E+02 -.158E+02 -.114E+02   0.145E-03 0.969E-03 0.572E-03
 
 
 POSITION                                       TOTAL-FORCE (eV/Angst)
 -----------------------------------------------------------------------------------
     11.41042     16.45429     15.02468         0.013793      0.013450     -0.011889
     11.65417     14.96998     14.04652         0.003409      0.003381     -0.000649
     11.28079     14.84770     15.78145        -0.022933      0.019941     -0.001451
     13.53142     13.67733     14.51295         0.007818      0.003774     -0.031651
     15.34558     14.17606     16.62453         0.021763      0.023239     -0.020002
     16.58153     12.25273     15.48136        -0.006954     -0.010996      0.035708
     15.48313     12.40181     14.10839         0.014962     -0.033220      0.019819
     14.83265     11.91773     15.70740        -0.008551      0.005656      0.031655
     15.45309     16.56828     15.24022        -0.001823     -0.011416     -0.011465
     18.31886     16.59914     14.40254        -0.000624      0.011796      0.015766
     17.16446     17.26431     13.21972         0.000559      0.014831      0.010819
     17.32507     18.03388     14.82410        -0.007327      0.002273      0.024453
     11.82222     15.43949     15.02672        -0.002885      0.006507      0.001252
     13.28835     15.48914     15.40513        -0.018067     -0.038170     -0.003227
     15.34952     14.02664     15.52860         0.005419     -0.001306     -0.017796
     15.56832     12.55466     15.19616        -0.000380     -0.009709      0.019051
     16.54020     14.86072     14.97073         0.005664     -0.008766     -0.039876
     17.33472     17.07303     14.29274        -0.000905      0.009781      0.009987
     14.02043     14.40575     15.02682        -0.001625     -0.002132      0.002724
     16.32232     16.18947     14.83969        -0.001138      0.001644     -0.004708
     13.77830     16.44031     16.03921         0.003167     -0.004977      0.040571
     17.61356     14.30537     14.69873        -0.003343      0.004420     -0.069090
 -----------------------------------------------------------------------------------
    total drift:                               -0.010207      0.002992     -0.013182


--------------------------------------------------------------------------------------------------------



  FREE ENERGIE OF THE ION-ELECTRON SYSTEM (eV)
  ---------------------------------------------------
  free  energy   TOTEN  =      -129.45667758 eV

  energy  without entropy=     -129.45667758  energy(sigma->0) =     -129.45667758
 
 d Force = 0.1040865E-03[ 0.104E-03, 0.104E-03]  d Energy = 0.1042884E-03-0.202E-06
 d Force = 0.4906335E-01[ 0.491E-01, 0.490E-01]  d Ewald  = 0.4906335E-01-0.118E-09


--------------------------------------------------------------------------------------------------------


    POTLOK:  cpu time   21.7717: real time   21.7541


--------------------------------------------------------------------------------------------------------


 NEB: the previous image is higher in energy: F
 NEB: the next image is higher in energy    : T
 NEB: only next energy greater

 NEB: Tangent
 ----------------------------------------------
     -0.07601     -0.09991     -0.09623
     -0.00943     -0.09701     -0.07979
     -0.01974     -0.09771     -0.08259
     -0.00820     -0.03436     -0.00791
     -0.05425     -0.18858     -0.02087
      0.04077      0.03104     -0.21728
      0.09278      0.20483     -0.23458
      0.04500     -0.03935     -0.35587
     -0.06828      0.00760     -0.03611
      0.00903      0.03076      0.28135
      0.11727      0.13434      0.24103
     -0.00375      0.01336      0.30037
     -0.03632     -0.08261     -0.08248
     -0.04049     -0.02160     -0.07326
     -0.01203     -0.02386     -0.02830
      0.04680      0.04360     -0.22317
      0.00878      0.04491      0.16561
      0.02802      0.05454      0.23274
     -0.00902     -0.01332     -0.03763
     -0.01859      0.02644      0.07377
     -0.07967      0.01870     -0.10911
      0.05984      0.08887      0.38264

 NEB: forces: par spring, perp REAL, dneb     0.008317    0.131935    0.000000
 NEB: distance to prev, next image, angle between     1.161845    1.163509  164.188446
 NEB: projections on to tangent (spring, REAL)     0.008317   -0.059470

 stress matrix after NEB project (eV)
     -3.56755     -0.12976     -0.04322
     -0.12976     -3.36927      0.12938
     -0.04322      0.12938     -3.76631
  FORCES: max atom, RMS     0.045562    0.028185
  FORCE total and by dimension    0.132197    0.044815
  Stress total and by dimension    6.191554    3.766310
 OPT: skip step - force has converged


--------------------------------------------------------------------------------------------------------


  
 reached required accuracy - stopping structural energy minimisation
     LOOP+:  cpu time 1817.1967: real time 1815.7117
    4ORBIT:  cpu time    0.0000: real time    0.0000

 total amount of memory used by VASP on root node  4333710. kBytes
========================================================================

   base      :      30000. kBytes
   nonlr-proj:       2405. kBytes
   fftplans  :     924480. kBytes
   grid      :    2089440. kBytes
   one-center:         67. kBytes
   wavefun   :    1287318. kBytes
 
  
  
 General timing and accounting informations for this job:
 ========================================================
  
                  Total CPU time used (sec):   123718.539
                            User time (sec):   122949.448
                          System time (sec):      769.089
                         Elapsed time (sec):   123693.233
  
                   Maximum memory used (kb):     5902236.
                   Average memory used (kb):           0.
  
                          Minor page faults:    182555472
                          Major page faults:            8
                 Voluntary context switches:         7971
