unknown system                          
           1
    30.000000    0.000000    0.000000
     0.000000   30.000000    0.000000
     0.000000    0.000000   30.000000
   H    C    N    O 
  12   6   2   2
Direct configuration=     1
   0.38003995  0.54917669  0.50506149
   0.38518125  0.50107024  0.46986752
   0.38013627  0.49479623  0.52854371
   0.45041347  0.45590371  0.48559799
   0.50753634  0.47115330  0.55561889
   0.55474956  0.41139052  0.51354201
   0.51460538  0.41432973  0.47055043
   0.49789089  0.39569460  0.52440903
   0.51617417  0.55248168  0.51107242
   0.61001764  0.55126684  0.47452985
   0.56609969  0.56858130  0.43868924
   0.57799875  0.60087519  0.48676596
   0.39445435  0.51582567  0.50209161
   0.44409612  0.51858774  0.51023067
   0.51085636  0.46762351  0.51904577
   0.51964622  0.41903942  0.50660865
   0.55185565  0.49513600  0.50314204
   0.57681528  0.56667104  0.47379128
   0.46796319  0.48147659  0.49930224
   0.54579815  0.53951360  0.49901118
   0.46094175  0.55203519  0.52810235
   0.58723738  0.47563409  0.49444857
Direct configuration=     2
   0.38001485  0.54919938  0.50500588
   0.38523749  0.50103850  0.46982778
   0.38007969  0.49477186  0.52852574
   0.45038639  0.45591618  0.48556919
   0.50762531  0.47115766  0.55559182
   0.55467721  0.41136634  0.51353311
   0.51465632  0.41436401  0.47051045
   0.49782820  0.39569342  0.52444329
   0.51617912  0.55247576  0.51096691
   0.61000736  0.55132125  0.47463567
   0.56614076  0.56861489  0.43866750
   0.57804176  0.60083826  0.48689835
   0.39440921  0.51581794  0.50208482
   0.44404609  0.51854352  0.51028777
   0.51089332  0.46760478  0.51901925
   0.51959238  0.41901498  0.50659714
   0.55190559  0.49515448  0.50313122
   0.57680348  0.56670021  0.47378788
   0.46795856  0.48144421  0.49936086
   0.54583524  0.53952162  0.49902334
   0.46087506  0.55198947  0.52815229
   0.58731615  0.47571407  0.49440161
Direct configuration=     3
   0.37997984  0.54922495  0.50492300
   0.38531966  0.50099462  0.46977527
   0.37999114  0.49473952  0.52849567
   0.45035628  0.45593810  0.48553116
   0.50775970  0.47116369  0.55555323
   0.55457793  0.41132472  0.51352475
   0.51472580  0.41440940  0.47045670
   0.49773576  0.39569573  0.52448750
   0.51618141  0.55246680  0.51081381
   0.60999506  0.55140006  0.47478539
   0.56620159  0.56866776  0.43863766
   0.57810083  0.60079202  0.48708920
   0.39434492  0.51580061  0.50207074
   0.44397956  0.51847251  0.51036804
   0.51094358  0.46758355  0.51898690
   0.51951892  0.41898292  0.50657693
   0.55198424  0.49516744  0.50310408
   0.57679964  0.56673920  0.47379441
   0.46793168  0.48139896  0.49943963
   0.54587819  0.53954094  0.49903620
   0.46078315  0.55193143  0.52823511
   0.58742320  0.47582776  0.49433505
Direct configuration=     4
   0.37993846  0.54924289  0.50481304
   0.38542407  0.50094084  0.46971431
   0.37986600  0.49470346  0.52844989
   0.45032870  0.45596477  0.48548499
   0.50793973  0.47117163  0.55550749
   0.55446168  0.41125945  0.51352243
   0.51480548  0.41445876  0.47039454
   0.49761672  0.39570721  0.52453150
   0.51617089  0.55245662  0.51062082
   0.60998954  0.55149741  0.47496940
   0.56628443  0.56874327  0.43860859
   0.57817060  0.60074570  0.48732880
   0.39426608  0.51576995  0.50204789
   0.44390153  0.51838803  0.51047272
   0.51099999  0.46756438  0.51894907
   0.51943271  0.41894883  0.50654964
   0.55207436  0.49518175  0.50305313
   0.57680994  0.56678919  0.47381913
   0.46788079  0.48134686  0.49953651
   0.54592260  0.53956409  0.49904155
   0.46067000  0.55185807  0.52835370
   0.58756104  0.47595941  0.49424935
Direct configuration=     5
   0.37989424  0.54924115  0.50467658
   0.38554449  0.50087779  0.46964593
   0.37969887  0.49466802  0.52838479
   0.45030571  0.45598634  0.48542952
   0.50816331  0.47118236  0.55546081
   0.55433871  0.41116439  0.51353234
   0.51488454  0.41450347  0.47032963
   0.49747567  0.39573524  0.52456164
   0.51613690  0.55244643  0.51039808
   0.61000399  0.55160428  0.47517620
   0.56639428  0.56884570  0.43859725
   0.57824430  0.60070972  0.48760416
   0.39418382  0.51572709  0.50201967
   0.44381104  0.51830798  0.51060151
   0.51105407  0.46755125  0.51890078
   0.51934533  0.41891858  0.50651892
   0.55215873  0.49520301  0.50297039
   0.57683537  0.56685467  0.47386635
   0.46781970  0.48129615  0.49965433
   0.54596306  0.53958070  0.49902917
   0.46054225  0.55176588  0.52850978
   0.58772092  0.47609217  0.49414835
Direct configuration=     6
   0.37984867  0.54921176  0.50451565
   0.38567373  0.50080539  0.46957015
   0.37948713  0.49463671  0.52829824
   0.45029192  0.45599884  0.48536693
   0.50842464  0.47119689  0.55541715
   0.55421812  0.41103660  0.51355958
   0.51495190  0.41453512  0.47026806
   0.49731846  0.39578676  0.52456360
   0.51607704  0.55243330  0.51015596
   0.61004810  0.55171197  0.47539350
   0.56653626  0.56897932  0.43862259
   0.57831398  0.60069411  0.48790054
   0.39410940  0.51567276  0.50198966
   0.44370520  0.51823519  0.51074752
   0.51110376  0.46754779  0.51883900
   0.51926872  0.41889743  0.50648738
   0.55224011  0.49521873  0.50284905
   0.57687752  0.56693722  0.47393745
   0.46776043  0.48124942  0.49979139
   0.54598534  0.53959272  0.49899008
   0.46041248  0.55166474  0.52870831
   0.58787099  0.47621942  0.49404168
Direct configuration=     7
   0.37979544  0.54914637  0.50431284
   0.38582084  0.50071462  0.46947957
   0.37920301  0.49460875  0.52817708
   0.45029863  0.45600972  0.48529792
   0.50874821  0.47121829  0.55536896
   0.55409480  0.41085875  0.51361283
   0.51500366  0.41454814  0.47020972
   0.49713181  0.39587536  0.52452018
   0.51598597  0.55240859  0.50987672
   0.61013091  0.55182701  0.47563481
   0.56673427  0.56916850  0.43870568
   0.57837865  0.60070876  0.48823764
   0.39404113  0.51559851  0.50195236
   0.44358372  0.51815598  0.51092287
   0.51116062  0.46755688  0.51876315
   0.51920807  0.41888623  0.50645032
   0.55231170  0.49522476  0.50267585
   0.57695180  0.56704580  0.47405063
   0.46769349  0.48119799  0.49995336
   0.54597502  0.53960843  0.49890597
   0.46027529  0.55155248  0.52897771
   0.58800275  0.47634203  0.49392386
Direct configuration=     8
   0.37972913  0.54904419  0.50406325
   0.38598591  0.50060107  0.46937505
   0.37883765  0.49458494  0.52801414
   0.45034057  0.45602691  0.48523000
   0.50913403  0.47124943  0.55530665
   0.55397490  0.41062538  0.51369850
   0.51503081  0.41453441  0.47015877
   0.49691355  0.39600983  0.52441117
   0.51586088  0.55236497  0.50956689
   0.61025095  0.55194937  0.47589960
   0.56700460  0.56943467  0.43886154
   0.57843085  0.60076633  0.48861181
   0.39397536  0.51549605  0.50189614
   0.44347634  0.51807233  0.51114187
   0.51123977  0.46757629  0.51868162
   0.51917227  0.41888499  0.50640021
   0.55233363  0.49524218  0.50245912
   0.57707217  0.56717955  0.47422904
   0.46761499  0.48114006  0.50013378
   0.54592668  0.53962356  0.49875381
   0.46012460  0.55141754  0.52931918
   0.58810743  0.47643765  0.49379360
Direct configuration=     9
   0.37964302  0.54890967  0.50375928
   0.38617239  0.50045429  0.46924985
   0.37838837  0.49456368  0.52780031
   0.45041896  0.45604575  0.48516264
   0.50957718  0.47129377  0.55522293
   0.55386150  0.41033480  0.51381843
   0.51503131  0.41449012  0.47010910
   0.49665666  0.39619408  0.52422103
   0.51570345  0.55230041  0.50923354
   0.61040443  0.55207963  0.47619997
   0.56737115  0.56980779  0.43909873
   0.57846558  0.60087447  0.48902922
   0.39390807  0.51536379  0.50181718
   0.44338514  0.51796016  0.51140650
   0.51134096  0.46759874  0.51859141
   0.51916929  0.41889133  0.50633122
   0.55231198  0.49527038  0.50220485
   0.57723929  0.56734185  0.47449109
   0.46756136  0.48108844  0.50034500
   0.54583763  0.53963375  0.49851365
   0.45996359  0.55125515  0.52973756
   0.58813500  0.47650932  0.49365681
Direct configuration=    10
   0.37953590  0.54875009  0.50338920
   0.38638981  0.50025676  0.46908932
   0.37786178  0.49453884  0.52752610
   0.45054188  0.45607640  0.48510304
   0.51006738  0.47135354  0.55512015
   0.55375231  0.40999042  0.51396755
   0.51501836  0.41441878  0.47003850
   0.49634780  0.39642245  0.52394760
   0.51552909  0.55222006  0.50888131
   0.61058855  0.55221878  0.47657019
   0.56786958  0.57032853  0.43941565
   0.57848314  0.60102979  0.48951731
   0.39384431  0.51521175  0.50172189
   0.44327323  0.51780841  0.51172070
   0.51145777  0.46761815  0.51847822
   0.51919332  0.41889509  0.50624267
   0.55224453  0.49530750  0.50192977
   0.57742669  0.56754885  0.47481818
   0.46756960  0.48101887  0.50058671
   0.54569404  0.53964739  0.49818412
   0.45979546  0.55104959  0.53023765
   0.58807365  0.47655098  0.49350751
Direct configuration=    11
   0.37942264  0.54858097  0.50294312
   0.38666489  0.50000382  0.46890563
   0.37727867  0.49450257  0.52718937
   0.45072536  0.45612701  0.48506039
   0.51059090  0.47142937  0.55500111
   0.55362866  0.40960277  0.51413682
   0.51503025  0.41433128  0.46992894
   0.49596621  0.39667441  0.52362521
   0.51534402  0.55215514  0.50852300
   0.61076283  0.55238475  0.47706280
   0.56852888  0.57104374  0.43974730
   0.57848814  0.60120725  0.49012446
   0.39376971  0.51503500  0.50158811
   0.44317914  0.51762490  0.51210689
   0.51159249  0.46762900  0.51837692
   0.51921557  0.41887241  0.50612464
   0.55211573  0.49535905  0.50163931
   0.57762244  0.56780842  0.47518196
   0.46755614  0.48093311  0.50082878
   0.54550814  0.53966942  0.49776991
   0.45959195  0.55073864  0.53081153
   0.58799029  0.47654763  0.49330831
Direct configuration=    12
   0.37934176  0.54841591  0.50242851
   0.38702076  0.49970809  0.46870892
   0.37668369  0.49445919  0.52680644
   0.45088881  0.45610292  0.48497286
   0.51111982  0.47152407  0.55490853
   0.55344672  0.40918926  0.51431974
   0.51511256  0.41423885  0.46979055
   0.49551003  0.39692143  0.52333097
   0.51517194  0.55214837  0.50817137
   0.61087522  0.55259494  0.47769610
   0.56933258  0.57195002  0.43998684
   0.57848406  0.60135314  0.49087282
   0.39370264  0.51485471  0.50143900
   0.44295725  0.51726216  0.51243843
   0.51169488  0.46762341  0.51826041
   0.51919034  0.41881435  0.50601422
   0.55213683  0.49531384  0.50125028
   0.57781059  0.56811486  0.47554511
   0.46757704  0.48089907  0.50113247
   0.54530159  0.53971155  0.49728337
   0.45943626  0.55045247  0.53157928
   0.58779463  0.47660771  0.49303826
Direct configuration=    13
   0.37935521  0.54828792  0.50189621
   0.38744234  0.49941766  0.46853061
   0.37610706  0.49444029  0.52642504
   0.45113578  0.45615722  0.48493150
   0.51165594  0.47167903  0.55481322
   0.55317258  0.40875416  0.51457276
   0.51525300  0.41409872  0.46971852
   0.49499931  0.39715036  0.52317983
   0.51503541  0.55218048  0.50784468
   0.61095179  0.55283276  0.47837257
   0.57022565  0.57296113  0.44011465
   0.57847013  0.60144472  0.49167900
   0.39360928  0.51466298  0.50127038
   0.44304721  0.51753852  0.51317976
   0.51184241  0.46762445  0.51820541
   0.51904819  0.41873011  0.50597905
   0.55158563  0.49566974  0.50085999
   0.57790359  0.56845549  0.47577753
   0.46743694  0.48055474  0.50127583
   0.54516254  0.53963608  0.49669115
   0.45900470  0.54958816  0.53220782
   0.58816030  0.47639530  0.49244011
Direct configuration=    14
   0.37936837  0.54830285  0.50189638
   0.38746649  0.49942595  0.46853345
   0.37611587  0.49445431  0.52643641
   0.45106673  0.45607786  0.48487400
   0.51166047  0.47170162  0.55482505
   0.55313852  0.40874612  0.51460318
   0.51525549  0.41407720  0.46975726
   0.49497953  0.39715242  0.52323831
   0.51510428  0.55217643  0.50782580
   0.61092796  0.55284092  0.47835369
   0.57022521  0.57296553  0.44008289
   0.57845354  0.60142462  0.49167115
   0.39364648  0.51470568  0.50130365
   0.44279411  0.51695329  0.51286468
   0.51179941  0.46762852  0.51817746
   0.51906351  0.41872495  0.50601935
   0.55205347  0.49530343  0.50072603
   0.57792630  0.56844513  0.47574337
   0.46749171  0.48073586  0.50139295
   0.54506922  0.53977678  0.49666428
   0.45924522  0.55002113  0.53252005
   0.58775174  0.47661938  0.49245703
Direct configuration=    15
   0.37937396  0.54830613  0.50189631
   0.38746933  0.49942729  0.46853489
   0.37611754  0.49445655  0.52643760
   0.45106791  0.45607861  0.48487360
   0.51166017  0.47170572  0.55482368
   0.55313397  0.40874463  0.51460903
   0.51525727  0.41407416  0.46976365
   0.49497791  0.39715207  0.52324666
   0.51510235  0.55217994  0.50782894
   0.61092581  0.55284215  0.47835316
   0.57022774  0.57296878  0.44007724
   0.57845207  0.60142101  0.49167174
   0.39364699  0.51470424  0.50130232
   0.44281695  0.51700080  0.51289616
   0.51180095  0.46762775  0.51817837
   0.51905685  0.41872438  0.50602529
   0.55202773  0.49532781  0.50072352
   0.57792273  0.56844715  0.47573894
   0.46748833  0.48072379  0.50138843
   0.54507942  0.53976132  0.49665390
   0.45922466  0.54997577  0.53250388
   0.58777282  0.47660991  0.49243923
Direct configuration=    16
   0.37938501  0.54831247  0.50189602
   0.38747535  0.49942991  0.46853754
   0.37612103  0.49446108  0.52643998
   0.45106931  0.45607939  0.48487223
   0.51165959  0.47171385  0.55482112
   0.55312468  0.40874164  0.51462076
   0.51526085  0.41406806  0.46977644
   0.49497448  0.39715136  0.52326351
   0.51510063  0.55218622  0.50783446
   0.61092133  0.55284474  0.47835210
   0.57023281  0.57297535  0.44006605
   0.57844887  0.60141367  0.49167317
   0.39364863  0.51470225  0.50130034
   0.44285588  0.51708126  0.51295076
   0.51180325  0.46762664  0.51817973
   0.51904441  0.41872316  0.50603725
   0.55198486  0.49536906  0.50071680
   0.57791631  0.56845077  0.47572989
   0.46748237  0.48070270  0.50138100
   0.54509633  0.53973446  0.49663364
   0.45918974  0.54989693  0.53247879
   0.58780742  0.47659501  0.49240515
Direct configuration=    17
   0.37940213  0.54832215  0.50189509
   0.38748592  0.49943381  0.46854122
   0.37612704  0.49446838  0.52644384
   0.45106887  0.45607873  0.48486847
   0.51165865  0.47172661  0.55481753
   0.55310916  0.40873688  0.51463958
   0.51526659  0.41405840  0.46979699
   0.49496836  0.39715016  0.52329087
   0.51510424  0.55219412  0.50784095
   0.61091372  0.55284926  0.47835053
   0.57024095  0.57298613  0.44004836
   0.57844298  0.60140199  0.49167642
   0.39365325  0.51470184  0.50129918
   0.44289795  0.51716430  0.51301196
   0.51180482  0.46762582  0.51818050
   0.51902700  0.41872109  0.50605660
   0.55194164  0.49541190  0.50070106
   0.57790827  0.56845523  0.47571495
   0.46747455  0.48067865  0.50137408
   0.54511290  0.53970448  0.49660290
   0.45915257  0.54980703  0.53246092
   0.58784100  0.47658300  0.49235508
Direct configuration=    18
   0.37940312  0.54832268  0.50189491
   0.38748684  0.49943400  0.46854133
   0.37612753  0.49446887  0.52644410
   0.45106825  0.45607827  0.48486788
   0.51165858  0.47172739  0.55481739
   0.55310801  0.40873658  0.51464085
   0.51526697  0.41405780  0.46979835
   0.49496781  0.39715007  0.52329274
   0.51510593  0.55219415  0.50784084
   0.61091315  0.55284964  0.47835047
   0.57024151  0.57298693  0.44004725
   0.57844242  0.60140125  0.49167689
   0.39365401  0.51470247  0.50129957
   0.44289582  0.51715878  0.51300970
   0.51180445  0.46762598  0.51818022
   0.51902644  0.41872096  0.50605789
   0.55194444  0.49540930  0.50069895
   0.57790823  0.56845525  0.47571385
   0.46747442  0.48067931  0.50137476
   0.54511156  0.53970562  0.49660125
   0.45915464  0.54980986  0.53246513
   0.58783842  0.47658483  0.49235277
Direct configuration=    19
   0.37940513  0.54832374  0.50189456
   0.38748867  0.49943437  0.46854156
   0.37612852  0.49446986  0.52644463
   0.45106703  0.45607737  0.48486670
   0.51165843  0.47172896  0.55481712
   0.55310570  0.40873597  0.51464337
   0.51526772  0.41405658  0.46980107
   0.49496670  0.39714988  0.52329649
   0.51510924  0.55219423  0.50784065
   0.61091200  0.55285038  0.47835035
   0.57024264  0.57298853  0.44004504
   0.57844129  0.60139979  0.49167783
   0.39365552  0.51470369  0.50130032
   0.44289174  0.51714811  0.51300540
   0.51180374  0.46762629  0.51817969
   0.51902530  0.41872070  0.50606048
   0.55194982  0.49540428  0.50069477
   0.57790814  0.56845529  0.47571165
   0.46747412  0.48068056  0.50137608
   0.54510897  0.53970782  0.49659793
   0.45915859  0.54981517  0.53247334
   0.58783344  0.47658841  0.49234809
Direct configuration=    20
   0.37940818  0.54832535  0.50189403
   0.38749143  0.49943492  0.46854192
   0.37613000  0.49447134  0.52644542
   0.45106526  0.45607607  0.48486497
   0.51165820  0.47173132  0.55481668
   0.55310225  0.40873504  0.51464719
   0.51526887  0.41405475  0.46980515
   0.49496504  0.39714960  0.52330212
   0.51511409  0.55219440  0.50784041
   0.61091030  0.55285150  0.47835020
   0.57024437  0.57299096  0.44004171
   0.57843959  0.60139759  0.49167927
   0.39365775  0.51470547  0.50130139
   0.44288610  0.51713312  0.51299956
   0.51180271  0.46762675  0.51817892
   0.51902353  0.41872032  0.50606438
   0.55195727  0.49539727  0.50068858
   0.57790793  0.56845540  0.47570837
   0.46747364  0.48068221  0.50137794
   0.54510529  0.53971085  0.49659287
   0.45916409  0.54982227  0.53248519
   0.58782648  0.47659350  0.49234092
Direct configuration=    21
   0.37941234  0.54832752  0.50189330
   0.38749513  0.49943566  0.46854241
   0.37613201  0.49447333  0.52644647
   0.45106300  0.45607441  0.48486270
   0.51165787  0.47173451  0.55481604
   0.55309763  0.40873379  0.51465236
   0.51527042  0.41405229  0.46981064
   0.49496283  0.39714922  0.52330969
   0.51512033  0.55219473  0.50784022
   0.61090804  0.55285299  0.47835004
   0.57024675  0.57299429  0.44003722
   0.57843731  0.60139462  0.49168124
   0.39366065  0.51470775  0.50130272
   0.44287946  0.51711506  0.51299294
   0.51180140  0.46762733  0.51817795
   0.51902105  0.41871980  0.50606962
   0.55196602  0.49538893  0.50068046
   0.57790753  0.56845560  0.47570400
   0.46747292  0.48068394  0.50138018
   0.54510076  0.53971436  0.49658591
   0.45917063  0.54983007  0.53250016
   0.58781817  0.47659978  0.49233100
Direct configuration=    22
   0.37941773  0.54833030  0.50189237
   0.38749981  0.49943660  0.46854305
   0.37613455  0.49447587  0.52644777
   0.45106033  0.45607248  0.48485992
   0.51165741  0.47173860  0.55481515
   0.55309180  0.40873219  0.51465899
   0.51527242  0.41404915  0.46981761
   0.49496003  0.39714873  0.52331928
   0.51512779  0.55219533  0.50784018
   0.61090524  0.55285486  0.47834990
   0.57024985  0.57299861  0.44003151
   0.57843443  0.60139085  0.49168381
   0.39366419  0.51471042  0.50130421
   0.44287261  0.51709567  0.51298660
   0.51179989  0.46762803  0.51817682
   0.51901772  0.41871913  0.50607626
   0.55197500  0.49538015  0.50067048
   0.57790684  0.56845596  0.47569853
   0.46747187  0.48068531  0.50138259
   0.54509571  0.53971787  0.49657684
   0.45917750  0.54983706  0.53251754
   0.58780935  0.47660680  0.49231797
Direct configuration=    23
   0.37942442  0.54833371  0.50189122
   0.38750547  0.49943772  0.46854386
   0.37613765  0.49447897  0.52644932
   0.45105738  0.45607038  0.48485669
   0.51165680  0.47174360  0.55481396
   0.55308480  0.40873023  0.51466711
   0.51527486  0.41404535  0.46982606
   0.49495665  0.39714813  0.52333085
   0.51513617  0.55219631  0.50784043
   0.61090193  0.55285710  0.47834984
   0.57025374  0.57300399  0.44002457
   0.57843093  0.60138628  0.49168703
   0.39366824  0.51471334  0.50130573
   0.44286650  0.51707714  0.51298180
   0.51179826  0.46762880  0.51817559
   0.51901344  0.41871833  0.50608431
   0.55198288  0.49537209  0.50065889
   0.57790576  0.56845655  0.47569198
   0.46747046  0.48068580  0.50138488
   0.54509058  0.53972077  0.49656549
   0.45918381  0.54984144  0.53253635
   0.58780113  0.47661397  0.49230152
Direct configuration=    24
   0.37943322  0.54833812  0.50188970
   0.38751272  0.49943913  0.46854493
   0.37614165  0.49448296  0.52645126
   0.45105398  0.45606799  0.48485271
   0.51165593  0.47175008  0.55481227
   0.55307590  0.40872770  0.51467768
   0.51527805  0.41404046  0.46983687
   0.49495236  0.39714735  0.52334564
   0.51514602  0.55219792  0.50784117
   0.61089781  0.55285994  0.47834995
   0.57025894  0.57301112  0.44001565
   0.57842643  0.60138041  0.49169135
   0.39367311  0.51471662  0.50130730
   0.44286163  0.51706013  0.51297958
   0.51179644  0.46762969  0.51817419
   0.51900760  0.41871728  0.50609463
   0.55198889  0.49536523  0.50064467
   0.57790402  0.56845753  0.47568373
   0.46746843  0.48068482  0.50138696
   0.54508535  0.53972266  0.49655043
   0.45918921  0.54984151  0.53255745
   0.58779391  0.47662132  0.49227954
Direct configuration=    25
   0.37944438  0.54834362  0.50188773
   0.38752169  0.49944082  0.46854626
   0.37614664  0.49448792  0.52645356
   0.45105022  0.45606541  0.48484798
   0.51165473  0.47175817  0.55480996
   0.55306502  0.40872453  0.51469092
   0.51528206  0.41403444  0.46985021
   0.49494707  0.39714640  0.52336383
   0.51515709  0.55220036  0.50784261
   0.61089289  0.55286342  0.47835033
   0.57026564  0.57302029  0.44000464
   0.57842083  0.60137315  0.49169699
   0.39367875  0.51472017  0.50130883
   0.44285917  0.51704720  0.51298157
   0.51179451  0.46763065  0.51817267
   0.51899999  0.41871597  0.50610736
   0.55199140  0.49536092  0.50062783
   0.57790147  0.56845901  0.47567376
   0.46746567  0.48068163  0.50138846
   0.54508045  0.53972276  0.49653115
   0.45919264  0.54983489  0.53257992
   0.58778897  0.47662822  0.49225127
Direct configuration=    26
   0.37945822  0.54835030  0.50188520
   0.38753257  0.49944277  0.46854785
   0.37615274  0.49449395  0.52645623
   0.45104619  0.45606272  0.48484244
   0.51165309  0.47176803  0.55480691
   0.55305204  0.40872067  0.51470717
   0.51528700  0.41402720  0.46986624
   0.49494069  0.39714525  0.52338562
   0.51516915  0.55220387  0.50784497
   0.61088717  0.55286758  0.47835118
   0.57027416  0.57303187  0.43999139
   0.57841397  0.60136442  0.49170427
   0.39368514  0.51472383  0.50131016
   0.44286015  0.51704062  0.51298930
   0.51179252  0.46763165  0.51817105
   0.51899040  0.41871430  0.50612269
   0.55198893  0.49536031  0.50060826
   0.57789794  0.56846111  0.47566206
   0.46746207  0.48067559  0.50138903
   0.54507623  0.53972040  0.49650706
   0.45919318  0.54981938  0.53260308
   0.58778735  0.47663414  0.49221591
Direct configuration=    27
   0.37947517  0.54835826  0.50188191
   0.38754568  0.49944492  0.46854967
   0.37616012  0.49450117  0.52645925
   0.45104187  0.45605989  0.48483594
   0.51165085  0.47177987  0.55480294
   0.55303675  0.40871604  0.51472690
   0.51529303  0.41401865  0.46988523
   0.49493306  0.39714390  0.52341133
   0.51518216  0.55220867  0.50784850
   0.61088062  0.55287253  0.47835281
   0.57028495  0.57304647  0.43997573
   0.57840560  0.60135404  0.49171378
   0.39369234  0.51472756  0.50131107
   0.44286527  0.51704172  0.51300385
   0.51179046  0.46763267  0.51816930
   0.51897865  0.41871220  0.50614086
   0.55198060  0.49536406  0.50058555
   0.57789331  0.56846403  0.47564860
   0.46745750  0.48066616  0.50138840
   0.54507273  0.53971509  0.49647733
   0.45919026  0.54979321  0.53262691
   0.58778952  0.47663886  0.49217245
Direct configuration=    28
   0.37949586  0.54836768  0.50187751
   0.38756162  0.49944713  0.46855160
   0.37616912  0.49450978  0.52646260
   0.45103705  0.45605674  0.48482806
   0.51164775  0.47179403  0.55479780
   0.55301882  0.40871050  0.51475088
   0.51530041  0.41400866  0.46990757
   0.49492386  0.39714232  0.52344147
   0.51519639  0.55221507  0.50785345
   0.61087316  0.55287845  0.47835577
   0.57029879  0.57306511  0.43995744
   0.57839522  0.60134177  0.49172653
   0.39370058  0.51473138  0.50131139
   0.44287444  0.51704972  0.51302537
   0.51178815  0.46763365  0.51816723
   0.51896456  0.41870955  0.50616234
   0.55196669  0.49537167  0.50055869
   0.57788752  0.56846801  0.47563332
   0.46745185  0.48065320  0.50138644
   0.54506932  0.53970685  0.49644072
   0.45918412  0.54975580  0.53265278
   0.58779476  0.47664288  0.49211963
Direct configuration=    29
   0.37952124  0.54837873  0.50187131
   0.38758138  0.49944909  0.46855337
   0.37618022  0.49452008  0.52646622
   0.45103117  0.45605280  0.48481799
   0.51164328  0.47181096  0.55479116
   0.55299773  0.40870387  0.51478031
   0.51530960  0.41399710  0.46993381
   0.49491258  0.39714049  0.52347667
   0.51521275  0.55222332  0.50786003
   0.61086464  0.55288568  0.47836103
   0.57031699  0.57308952  0.43993633
   0.57838197  0.60132724  0.49174436
   0.39371034  0.51473553  0.50131098
   0.44288563  0.51705908  0.51305145
   0.51178515  0.46763460  0.51816438
   0.51894822  0.41870615  0.50618768
   0.55195010  0.49538025  0.50052568
   0.57788079  0.56847331  0.47561629
   0.46744509  0.48063752  0.50138344
   0.54506398  0.53969689  0.49639549
   0.45917696  0.54970967  0.53268490
   0.58779971  0.47664807  0.49205603
Direct configuration=    30
   0.37955148  0.54839121  0.50186258
   0.38760559  0.49945028  0.46855445
   0.37619366  0.49453202  0.52646987
   0.45102351  0.45604737  0.48480489
   0.51163701  0.47183062  0.55478287
   0.55297359  0.40869613  0.51481564
   0.51532084  0.41398421  0.46996361
   0.49489892  0.39713847  0.52351641
   0.51523236  0.55223325  0.50786803
   0.61085509  0.55289442  0.47836979
   0.57034067  0.57312115  0.43991308
   0.57836518  0.60131051  0.49176912
   0.39372232  0.51474042  0.50130983
   0.44289394  0.51705809  0.51307557
   0.51178082  0.46763545  0.51816010
   0.51893048  0.41870189  0.50621680
   0.55193706  0.49538393  0.50048479
   0.57787391  0.56848004  0.47559817
   0.46743755  0.48062170  0.50138034
   0.54505334  0.53968822  0.49634113
   0.45917346  0.54966301  0.53272956
   0.58779824  0.47665756  0.49198256
Direct configuration=    31
   0.37958617  0.54840461  0.50185071
   0.38763436  0.49945005  0.46855421
   0.37620935  0.49454528  0.52647318
   0.45101370  0.45604004  0.48478825
   0.51162857  0.47185251  0.55477291
   0.55294712  0.40868744  0.51485657
   0.51533421  0.41397055  0.46999596
   0.49488290  0.39713634  0.52355911
   0.51525555  0.55224455  0.50787722
   0.61084479  0.55290473  0.47838318
   0.57037059  0.57316094  0.43988907
   0.57834449  0.60129202  0.49180230
   0.39373678  0.51474615  0.50130790
   0.44289536  0.51703758  0.51309208
   0.51177459  0.46763616  0.51815386
   0.51891249  0.41869674  0.50624873
   0.55193190  0.49537870  0.50043559
   0.57786768  0.56848824  0.47558021
   0.46742968  0.48060794  0.50137772
   0.54503480  0.53968326  0.49627819
   0.45917740  0.54962295  0.53279091
   0.58778611  0.47667314  0.49190158
Direct configuration=    32
   0.37962541  0.54841837  0.50183442
   0.38766817  0.49944731  0.46855169
   0.37622728  0.49455952  0.52647549
   0.45100178  0.45603075  0.48476739
   0.51161716  0.47187628  0.55476082
   0.55291929  0.40867790  0.51490334
   0.51535013  0.41395679  0.47002958
   0.49486449  0.39713424  0.52360262
   0.51528152  0.55225744  0.50788806
   0.61083413  0.55291681  0.47840362
   0.57040887  0.57321134  0.43986634
   0.57831912  0.60127212  0.49184705
   0.39375389  0.51475220  0.50130444
   0.44288923  0.51699568  0.51310000
   0.51176624  0.46763642  0.51814496
   0.51889519  0.41869062  0.50628258
   0.55193320  0.49536479  0.50037810
   0.57786251  0.56849852  0.47556439
   0.46742171  0.48059648  0.50137479
   0.54500652  0.53968236  0.49620573
   0.45918943  0.54958957  0.53287045
   0.58776307  0.47669443  0.49181377
Direct configuration=    33
   0.37967005  0.54843165  0.50181125
   0.38770789  0.49944008  0.46854519
   0.37624739  0.49457431  0.52647544
   0.45098885  0.45602019  0.48474144
   0.51160121  0.47190163  0.55474527
   0.55289182  0.40866763  0.51495684
   0.51536968  0.41394399  0.47006240
   0.49484358  0.39713239  0.52364309
   0.51530666  0.55227315  0.50790244
   0.61082392  0.55293108  0.47843592
   0.57045997  0.57327761  0.43984860
   0.57828753  0.60125124  0.49190947
   0.39377334  0.51475660  0.50129714
   0.44288258  0.51694704  0.51310831
   0.51175617  0.46763543  0.51813276
   0.51887903  0.41868314  0.50631689
   0.55192798  0.49535114  0.50031385
   0.57785824  0.56851261  0.47555461
   0.46741335  0.48058325  0.50136779
   0.54496875  0.53968148  0.49612049
   0.45920341  0.54954802  0.53296254
   0.58773697  0.47671628  0.49171783
Direct configuration=    34
   0.37971906  0.54844357  0.50178064
   0.38775227  0.49942760  0.46853424
   0.37626844  0.49458892  0.52647209
   0.45097702  0.45600995  0.48471128
   0.51158060  0.47192776  0.55472581
   0.55286685  0.40865702  0.51501567
   0.51539288  0.41393288  0.47009227
   0.49482095  0.39713105  0.52367666
   0.51532593  0.55229228  0.50792154
   0.61081490  0.55294722  0.47848178
   0.57052482  0.57336051  0.43983899
   0.57825017  0.60123022  0.49199046
   0.39379383  0.51475727  0.50128426
   0.44288691  0.51691775  0.51313134
   0.51174572  0.46763273  0.51811800
   0.51886400  0.41867441  0.50634920
   0.55190226  0.49535021  0.50024714
   0.57785406  0.56853136  0.47555379
   0.46740432  0.48056251  0.50135282
   0.54492656  0.53967447  0.49602320
   0.45920867  0.54947848  0.53305289
   0.58771865  0.47673176  0.49161523
Direct configuration=    35
   0.37977152  0.54845284  0.50174078
   0.38780110  0.49940842  0.46851776
   0.37628905  0.49460276  0.52646404
   0.45096702  0.45600037  0.48467607
   0.51155489  0.47195415  0.55470184
   0.55284623  0.40864645  0.51507921
   0.51542033  0.41392404  0.47011692
   0.49479670  0.39713061  0.52369888
   0.51533649  0.55231465  0.50794575
   0.61080733  0.55296545  0.47854485