   6   6   0   0
  0.4500000E+04  0.3000000E-08  0.3000000E-08  0.3000000E-08  0.0000000E+00
  1.000000000000000E-004
  CAR 
 unknown system                          
      2.02508947    -25.88539646  301     -6.16162298      1.00000000
    -25.885  0.0000E+00  0.0000E+00
    -25.792  0.0000E+00  0.0000E+00
    -25.699  0.0000E+00  0.0000E+00
    -25.606  0.0000E+00  0.0000E+00
    -25.513  0.0000E+00  0.0000E+00
    -25.420  0.0000E+00  0.0000E+00
    -25.327  0.0000E+00  0.0000E+00
    -25.234  0.0000E+00  0.0000E+00
    -25.141  0.0000E+00  0.0000E+00
    -25.048  0.7956E-17  0.7401E-18
    -24.955  0.1396E-14  0.1306E-15
    -24.862  0.1776E-12  0.1665E-13
    -24.769  0.1473E-10  0.1387E-11
    -24.676  0.7986E-09  0.7569E-10
    -24.583  0.2833E-07  0.2711E-08
    -24.490  0.6579E-06  0.6392E-07
    -24.397  0.1001E-04  0.9956E-06
    -24.304  0.1000E-03  0.1030E-04
    -24.211  0.6563E-03  0.7136E-04
    -24.118  0.2831E-02  0.3347E-03
    -24.025  0.8033E-02  0.1082E-02
    -23.932  0.1501E-01  0.2479E-02
    -23.839  0.1847E-01  0.4197E-02
    -23.746  0.1498E-01  0.5590E-02
    -23.653  0.7997E-02  0.6334E-02
    -23.560  0.2812E-02  0.6596E-02
    -23.466  0.6504E-03  0.6656E-02
    -23.373  0.9891E-04  0.6666E-02
    -23.280  0.9880E-05  0.6667E-02
    -23.187  0.6475E-06  0.6667E-02
    -23.094  0.2782E-07  0.6667E-02
    -23.001  0.7825E-09  0.6667E-02
    -22.908  0.1440E-10  0.6667E-02
    -22.815  0.1732E-12  0.6667E-02
    -22.722  0.1360E-14  0.6667E-02
    -22.629  0.7956E-17  0.6667E-02
    -22.536  0.0000E+00  0.6667E-02
    -22.443  0.0000E+00  0.6667E-02
    -22.350  0.0000E+00  0.6667E-02
    -22.257  0.0000E+00  0.6667E-02
    -22.164  0.0000E+00  0.6667E-02
    -22.071  0.0000E+00  0.6667E-02
    -21.978  0.0000E+00  0.6667E-02
    -21.885  0.0000E+00  0.6667E-02
    -21.792  0.0000E+00  0.6667E-02
    -21.699  0.0000E+00  0.6667E-02
    -21.606  0.0000E+00  0.6667E-02
    -21.513  0.0000E+00  0.6667E-02
    -21.420  0.0000E+00  0.6667E-02
    -21.327  0.0000E+00  0.6667E-02
    -21.234  0.0000E+00  0.6667E-02
    -21.141  0.0000E+00  0.6667E-02
    -21.048  0.0000E+00  0.6667E-02
    -20.955  0.0000E+00  0.6667E-02
    -20.862  0.0000E+00  0.6667E-02
    -20.768  0.0000E+00  0.6667E-02
    -20.675  0.0000E+00  0.6667E-02
    -20.582  0.0000E+00  0.6667E-02
    -20.489  0.0000E+00  0.6667E-02
    -20.396  0.2586E-15  0.6667E-02
    -20.303  0.3787E-13  0.6667E-02
    -20.210  0.3613E-11  0.6667E-02
    -20.117  0.2253E-09  0.6667E-02
    -20.024  0.9185E-08  0.6667E-02
    -19.931  0.2451E-06  0.6667E-02
    -19.838  0.4287E-05  0.6667E-02
    -19.745  0.4918E-04  0.6672E-02
    -19.652  0.3704E-03  0.6706E-02
    -19.559  0.1834E-02  0.6877E-02
    -19.466  0.5971E-02  0.7432E-02
    -19.373  0.1280E-01  0.8623E-02
    -19.280  0.1807E-01  0.1030E-01
    -19.187  0.1680E-01  0.1187E-01
    -19.094  0.1029E-01  0.1282E-01
    -19.001  0.4152E-02  0.1321E-01
    -18.908  0.1102E-02  0.1331E-01
    -18.815  0.1924E-03  0.1333E-01
    -18.722  0.2207E-04  0.1333E-01
    -18.629  0.1661E-05  0.1333E-01
    -18.536  0.8202E-07  0.1333E-01
    -18.443  0.2652E-08  0.1333E-01
    -18.350  0.5611E-10  0.1333E-01
    -18.257  0.7762E-12  0.1333E-01
    -18.163  0.7011E-14  0.1333E-01
    -18.070  0.3978E-16  0.1333E-01
    -17.977  0.0000E+00  0.1333E-01
    -17.884  0.0000E+00  0.1333E-01
    -17.791  0.0000E+00  0.1333E-01
    -17.698  0.0000E+00  0.1333E-01
    -17.605  0.0000E+00  0.1333E-01
    -17.512  0.0000E+00  0.1333E-01
    -17.419  0.0000E+00  0.1333E-01
    -17.326  0.0000E+00  0.1333E-01
    -17.233  0.0000E+00  0.1333E-01
    -17.140  0.0000E+00  0.1333E-01
    -17.047  0.0000E+00  0.1333E-01
    -16.954  0.0000E+00  0.1333E-01
    -16.861  0.0000E+00  0.1333E-01
    -16.768  0.0000E+00  0.1333E-01
    -16.675  0.0000E+00  0.1333E-01
    -16.582  0.0000E+00  0.1333E-01
    -16.489  0.0000E+00  0.1333E-01
    -16.396  0.0000E+00  0.1333E-01
    -16.303  0.0000E+00  0.1333E-01
    -16.210  0.0000E+00  0.1333E-01
    -16.117  0.0000E+00  0.1333E-01
    -16.024  0.0000E+00  0.1333E-01
    -15.931  0.0000E+00  0.1333E-01
    -15.838  0.0000E+00  0.1333E-01
    -15.745  0.0000E+00  0.1333E-01
    -15.652  0.0000E+00  0.1333E-01
    -15.559  0.0000E+00  0.1333E-01
    -15.465  0.0000E+00  0.1333E-01
    -15.372  0.0000E+00  0.1333E-01
    -15.279  0.0000E+00  0.1333E-01
    -15.186  0.0000E+00  0.1333E-01
    -15.093  0.0000E+00  0.1333E-01
    -15.000  0.1074E-15  0.1333E-01
    -14.907  0.1658E-13  0.1333E-01
    -14.814  0.1702E-11  0.1333E-01
    -14.721  0.1142E-09  0.1333E-01
    -14.628  0.5006E-08  0.1333E-01
    -14.535  0.1437E-06  0.1333E-01
    -14.442  0.2702E-05  0.1333E-01
    -14.349  0.3332E-04  0.1334E-01
    -14.256  0.2698E-03  0.1336E-01
    -14.163  0.1435E-02  0.1350E-01
    -14.070  0.5022E-02  0.1396E-01
    -13.977  0.1157E-01  0.1504E-01
    -13.884  0.1754E-01  0.1667E-01
    -13.791  0.1753E-01  0.1830E-01
    -13.698  0.1153E-01  0.1937E-01
    -13.605  0.4999E-02  0.1984E-01
    -13.512  0.1426E-02  0.1997E-01
    -13.419  0.2675E-03  0.2000E-01
    -13.326  0.3299E-04  0.2000E-01
    -13.233  0.2670E-05  0.2000E-01
    -13.140  0.1417E-06  0.2000E-01
    -13.047  0.4928E-08  0.2000E-01
    -12.954  0.1122E-09  0.2000E-01
    -12.861  0.1673E-11  0.2000E-01
    -12.767  0.4681E-12  0.2000E-01
    -12.674  0.3665E-10  0.2000E-01
    -12.581  0.1943E-08  0.2000E-01
    -12.488  0.6739E-07  0.2000E-01
    -12.395  0.1531E-05  0.2000E-01
    -12.302  0.2279E-04  0.2000E-01
    -12.209  0.2227E-03  0.2002E-01
    -12.116  0.1430E-02  0.2016E-01
    -12.023  0.6034E-02  0.2072E-01
    -11.930  0.1676E-01  0.2228E-01
    -11.837  0.3065E-01  0.2513E-01
    -11.744  0.3692E-01  0.2856E-01
    -11.651  0.2930E-01  0.3129E-01
    -11.558  0.1532E-01  0.3271E-01
    -11.465  0.5271E-02  0.3320E-01
    -11.372  0.1194E-02  0.3332E-01
    -11.279  0.1778E-03  0.3333E-01
    -11.186  0.1738E-04  0.3333E-01
    -11.093  0.1116E-05  0.3333E-01
    -11.000  0.4692E-07  0.3333E-01
    -10.907  0.1292E-08  0.3333E-01
    -10.814  0.2329E-10  0.3333E-01
    -10.721  0.2742E-12  0.3333E-01
    -10.628  0.2124E-14  0.3333E-01
    -10.535  0.0000E+00  0.3333E-01
    -10.442  0.0000E+00  0.3333E-01
    -10.349  0.0000E+00  0.3333E-01
    -10.256  0.0000E+00  0.3333E-01
    -10.162  0.0000E+00  0.3333E-01
    -10.069  0.0000E+00  0.3333E-01
     -9.976  0.0000E+00  0.3333E-01
     -9.883  0.0000E+00  0.3333E-01
     -9.790  0.0000E+00  0.3333E-01
     -9.697  0.0000E+00  0.3333E-01
     -9.604  0.0000E+00  0.3333E-01
     -9.511  0.0000E+00  0.3333E-01
     -9.418  0.1870E-15  0.3333E-01
     -9.325  0.2938E-13  0.3333E-01
     -9.232  0.3049E-11  0.3333E-01
     -9.139  0.2067E-09  0.3333E-01
     -9.046  0.9160E-08  0.3333E-01
     -8.953  0.2657E-06  0.3333E-01
     -8.860  0.5049E-05  0.3333E-01
     -8.767  0.6292E-04  0.3334E-01
     -8.674  0.5148E-03  0.3339E-01
     -8.581  0.2767E-02  0.3365E-01
     -8.488  0.9785E-02  0.3456E-01
     -8.395  0.2277E-01  0.3667E-01
     -8.302  0.3490E-01  0.3992E-01
     -8.209  0.3523E-01  0.4320E-01
     -8.116  0.2343E-01  0.4538E-01
     -8.023  0.1026E-01  0.4633E-01
     -7.930  0.2958E-02  0.4661E-01
     -7.837  0.5608E-03  0.4666E-01
     -7.744  0.7070E-04  0.4667E-01
     -7.651  0.1796E-04  0.4667E-01
     -7.558  0.1185E-03  0.4668E-01
     -7.464  0.7497E-03  0.4675E-01
     -7.371  0.3126E-02  0.4704E-01
     -7.278  0.8579E-02  0.4784E-01
     -7.185  0.1550E-01  0.4928E-01
     -7.092  0.1845E-01  0.5100E-01
     -6.999  0.1446E-01  0.5234E-01
     -6.906  0.7467E-02  0.5304E-01
     -6.813  0.2538E-02  0.5327E-01
     -6.720  0.5677E-03  0.5332E-01
     -6.627  0.8347E-04  0.5333E-01
     -6.534  0.8060E-05  0.5333E-01
     -6.441  0.5106E-06  0.5333E-01
     -6.348  0.2120E-07  0.5333E-01
     -6.255  0.5764E-09  0.5333E-01
     -6.162  0.1025E-10  0.5333E-01
     -6.069  0.1191E-12  0.5333E-01
     -5.976  0.9069E-15  0.5333E-01
     -5.883  0.0000E+00  0.5333E-01
     -5.790  0.0000E+00  0.5333E-01
     -5.697  0.0000E+00  0.5333E-01
     -5.604  0.0000E+00  0.5333E-01
     -5.511  0.0000E+00  0.5333E-01
     -5.418  0.0000E+00  0.5333E-01
     -5.325  0.0000E+00  0.5333E-01
     -5.232  0.0000E+00  0.5333E-01
     -5.139  0.0000E+00  0.5333E-01
     -5.046  0.0000E+00  0.5333E-01
     -4.953  0.0000E+00  0.5333E-01
     -4.859  0.0000E+00  0.5333E-01
     -4.766  0.0000E+00  0.5333E-01
     -4.673  0.0000E+00  0.5333E-01
     -4.580  0.0000E+00  0.5333E-01
     -4.487  0.0000E+00  0.5333E-01
     -4.394  0.0000E+00  0.5333E-01
     -4.301  0.0000E+00  0.5333E-01
     -4.208  0.0000E+00  0.5333E-01
     -4.115  0.0000E+00  0.5333E-01
     -4.022  0.0000E+00  0.5333E-01
     -3.929  0.0000E+00  0.5333E-01
     -3.836  0.0000E+00  0.5333E-01
     -3.743  0.0000E+00  0.5333E-01
     -3.650  0.0000E+00  0.5333E-01
     -3.557  0.0000E+00  0.5333E-01
     -3.464  0.0000E+00  0.5333E-01
     -3.371  0.0000E+00  0.5333E-01
     -3.278  0.0000E+00  0.5333E-01
     -3.185  0.0000E+00  0.5333E-01
     -3.092  0.0000E+00  0.5333E-01
     -2.999  0.0000E+00  0.5333E-01
     -2.906  0.0000E+00  0.5333E-01
     -2.813  0.0000E+00  0.5333E-01
     -2.720  0.0000E+00  0.5333E-01
     -2.627  0.0000E+00  0.5333E-01
     -2.534  0.0000E+00  0.5333E-01
     -2.441  0.0000E+00  0.5333E-01
     -2.348  0.0000E+00  0.5333E-01
     -2.255  0.0000E+00  0.5333E-01
     -2.161  0.0000E+00  0.5333E-01
     -2.068  0.0000E+00  0.5333E-01
     -1.975  0.0000E+00  0.5333E-01
     -1.882  0.7956E-16  0.5333E-01
     -1.789  0.1261E-13  0.5333E-01
     -1.696  0.1335E-11  0.5333E-01
     -1.603  0.9270E-10  0.5333E-01
     -1.510  0.4229E-08  0.5333E-01
     -1.417  0.1272E-06  0.5333E-01
     -1.324  0.2531E-05  0.5333E-01
     -1.231  0.3355E-04  0.5334E-01
     -1.138  0.2981E-03  0.5336E-01
     -1.045  0.1789E-02  0.5353E-01
     -0.952  0.7310E-02  0.5421E-01
     -0.859  0.2047E-01  0.5612E-01
     -0.766  0.3944E-01  0.5978E-01
     -0.673  0.5227E-01  0.6465E-01
     -0.580  0.4749E-01  0.6907E-01
     -0.487  0.2939E-01  0.7180E-01
     -0.394  0.1239E-01  0.7295E-01
     -0.301  0.4106E-02  0.7334E-01
     -0.208  0.3465E-02  0.7366E-01
     -0.115  0.8089E-02  0.7441E-01
     -0.022  0.1499E-01  0.7581E-01
      0.071  0.1847E-01  0.7752E-01
      0.164  0.1500E-01  0.7892E-01
      0.257  0.8021E-02  0.7967E-01
      0.350  0.2824E-02  0.7993E-01
      0.443  0.6543E-03  0.7999E-01
      0.537  0.9966E-04  0.8000E-01
      0.630  0.9970E-05  0.8000E-01
      0.723  0.6544E-06  0.8000E-01
      0.816  0.2816E-07  0.8000E-01
      0.909  0.7933E-09  0.8000E-01
      1.002  0.1462E-10  0.8000E-01
      1.095  0.1761E-12  0.8000E-01
      1.188  0.1382E-14  0.8000E-01
      1.281  0.7956E-17  0.8000E-01
      1.374  0.0000E+00  0.8000E-01
      1.467  0.0000E+00  0.8000E-01
      1.560  0.0000E+00  0.8000E-01
      1.653  0.0000E+00  0.8000E-01
      1.746  0.0000E+00  0.8000E-01
      1.839  0.0000E+00  0.8000E-01
      1.932  0.0000E+00  0.8000E-01
      2.025  0.0000E+00  0.8000E-01
