    6    6  300    1
  0.4500000E+04  0.3000000E-08  0.3000000E-08  0.3000000E-08  0.0000000E+00
  1.000000000000000E-004
  CAR 
 unknown system                          
     16      4     12
 
  0.2500000E+00  0.2500000E+00  0.2500000E+00  0.2500000E+00
    1      -23.885396   1.000000
    2      -19.296104   1.000000
    3      -13.884088   1.000000
    4      -11.797512   1.000000
    5      -11.793725   1.000000
    6       -8.300096   1.000000
    7       -8.299255   1.000000
    8       -7.146589   1.000000
    9       -0.760694   0.000000
   10       -0.667308   0.000000
   11       -0.666009   0.000000
   12        0.025077   0.000000
 
 -0.2500000E+00  0.2500000E+00  0.2500000E+00  0.2500000E+00
    1      -23.885396   1.000000
    2      -19.296103   1.000000
    3      -13.884093   1.000000
    4      -11.797516   1.000000
    5      -11.793718   1.000000
    6       -8.300099   1.000000
    7       -8.299260   1.000000
    8       -7.146588   1.000000
    9       -0.760694   0.000000
   10       -0.667300   0.000000
   11       -0.666005   0.000000
   12        0.024807   0.000000
 
  0.2500000E+00 -0.2500000E+00  0.2500000E+00  0.2500000E+00
    1      -23.885395   1.000000
    2      -19.296103   1.000000
    3      -13.884089   1.000000
    4      -11.797512   1.000000
    5      -11.793727   1.000000
    6       -8.300097   1.000000
    7       -8.299249   1.000000
    8       -7.146588   1.000000
    9       -0.760694   0.000000
   10       -0.667310   0.000000
   11       -0.666011   0.000000
   12        0.025089   0.000000
 
 -0.2500000E+00 -0.2500000E+00  0.2500000E+00  0.2500000E+00
    1      -23.885396   1.000000
    2      -19.296100   1.000000
    3      -13.884101   1.000000
    4      -11.797513   1.000000
    5      -11.793723   1.000000
    6       -8.300099   1.000000
    7       -8.299256   1.000000
    8       -7.146589   1.000000
    9       -0.760694   0.000000
   10       -0.667307   0.000000
   11       -0.666001   0.000000
   12        0.024720   0.000000
