 vasp.5.4.1 24Jun15 (build Jan 13 2020 12:58:22) complex                        
  
 executed on           IFC91_ompi date 2020.02.05  18:18:08
 running on   15 total cores
 each image running on    1 cores
 distrk:  each k-point on    1 cores,    1 groups
 distr:  one band on NCORES_PER_BAND=   1 cores,    1 groups


--------------------------------------------------------------------------------------------------------


 INCAR:
 POTCAR:    PAW_PBE H 15Jun2001                   
 POTCAR:    PAW_PBE C 08Apr2002                   
 POTCAR:    PAW_PBE N 08Apr2002                   
 POTCAR:    PAW_PBE H 15Jun2001                   
   VRHFIN =H: ultrasoft test                                                    
   LEXCH  = PE                                                                  
   EATOM  =    12.4884 eV,    0.9179 Ry                                         
                                                                                
   TITEL  = PAW_PBE H 15Jun2001                                                 
   LULTRA =        F    use ultrasoft PP ?                                      
   IUNSCR =        0    unscreen: 0-lin 1-nonlin 2-no                           
   RPACOR =    0.000    partial core radius                                     
   POMASS =    1.000; ZVAL   =    1.000    mass and valenz                      
   RCORE  =    1.100    outmost cutoff radius                                   
   RWIGS  =    0.700; RWIGS  =    0.370    wigner-seitz radius (au A)           
   ENMAX  =  250.000; ENMIN  =  200.000 eV                                      
   RCLOC  =    0.701    cutoff for local pot                                    
   LCOR   =        T    correct aug charges                                     
   LPAW   =        T    paw PP                                                  
   EAUG   =  400.000                                                            
   RMAX   =    1.123    core radius for proj-oper                               
   RAUG   =    1.200    factor for augmentation sphere                          
   RDEP   =    1.112    radius for radial grids                                 
   RDEPT  =    0.926    core radius for aug-charge                              
                                                                                
   Atomic configuration                                                         
    2 entries                                                                   
     n  l   j            E        occ.                                          
     1  0  0.50        -6.4927   1.0000                                         
     2  1  0.50        -3.4015   0.0000                                         
   Description                                                                  
     l       E           TYP  RCUT    TYP  RCUT                                 
     0     -6.4927494     23  1.100                                             
     0      6.8029130     23  1.100                                             
     1     -4.0817478     23  1.100                                             
  local pseudopotential read in
  atomic valenz-charges read in
  non local Contribution for L=           0  read in
    real space projection operators read in
  non local Contribution for L=           0  read in
    real space projection operators read in
  non local Contribution for L=           1  read in
    real space projection operators read in
    PAW grid and wavefunctions read in
 
   number of l-projection  operators is LMAX  =           3
   number of lm-projection operators is LMMAX =           5
 
 POTCAR:    PAW_PBE C 08Apr2002                   
   VRHFIN =C: s2p2                                                              
   LEXCH  = PE                                                                  
   EATOM  =   147.1560 eV,   10.8157 Ry                                         
                                                                                
   TITEL  = PAW_PBE C 08Apr2002                                                 
   LULTRA =        F    use ultrasoft PP ?                                      
   IUNSCR =        1    unscreen: 0-lin 1-nonlin 2-no                           
   RPACOR =    1.200    partial core radius                                     
   POMASS =   12.011; ZVAL   =    4.000    mass and valenz                      
   RCORE  =    1.500    outmost cutoff radius                                   
   RWIGS  =    1.630; RWIGS  =    0.863    wigner-seitz radius (au A)           
   ENMAX  =  400.000; ENMIN  =  300.000 eV                                      
   ICORE  =        2    local potential                                         
   LCOR   =        T    correct aug charges                                     
   LPAW   =        T    paw PP                                                  
   EAUG   =  644.873                                                            
   DEXC   =    0.000                                                            
   RMAX   =    1.529    core radius for proj-oper                               
   RAUG   =    1.300    factor for augmentation sphere                          
   RDEP   =    1.501    radius for radial grids                                 
   RDEPT  =    1.300    core radius for aug-charge                              
                                                                                
   Atomic configuration                                                         
    4 entries                                                                   
     n  l   j            E        occ.                                          
     1  0  0.50      -273.3789   2.0000                                         
     2  0  0.50       -13.7508   2.0000                                         
     2  1  0.50        -5.2854   2.0000                                         
     3  2  1.50        -5.4423   0.0000                                         
   Description                                                                  
     l       E           TYP  RCUT    TYP  RCUT                                 
     0    -13.7508458     23  1.200                                             
     0     -8.2022199     23  1.200                                             
     1     -5.2854383     23  1.500                                             
     1     34.0145650     23  1.500                                             
     2     -5.4423304      7  1.500                                             
  local pseudopotential read in
  partial core-charges read in
  partial kinetic energy density read in
  atomic valenz-charges read in
  non local Contribution for L=           0  read in
    real space projection operators read in
  non local Contribution for L=           0  read in
    real space projection operators read in
  non local Contribution for L=           1  read in
    real space projection operators read in
  non local Contribution for L=           1  read in
    real space projection operators read in
    PAW grid and wavefunctions read in
 
   number of l-projection  operators is LMAX  =           4
   number of lm-projection operators is LMMAX =           8
 
 POTCAR:    PAW_PBE N 08Apr2002                   
   VRHFIN =N: s2p3                                                              
   LEXCH  = PE                                                                  
   EATOM  =   264.5486 eV,   19.4438 Ry                                         
                                                                                
   TITEL  = PAW_PBE N 08Apr2002                                                 
   LULTRA =        F    use ultrasoft PP ?                                      
   IUNSCR =        1    unscreen: 0-lin 1-nonlin 2-no                           
   RPACOR =    1.200    partial core radius                                     
   POMASS =   14.001; ZVAL   =    5.000    mass and valenz                      
   RCORE  =    1.500    outmost cutoff radius                                   
   RWIGS  =    1.400; RWIGS  =    0.741    wigner-seitz radius (au A)           
   ENMAX  =  400.000; ENMIN  =  300.000 eV                                      
   ICORE  =        2    local potential                                         
   LCOR   =        T    correct aug charges                                     
   LPAW   =        T    paw PP                                                  
   EAUG   =  627.112                                                            
   DEXC   =    0.000                                                            
   RMAX   =    1.529    core radius for proj-oper                               
   RAUG   =    1.300    factor for augmentation sphere                          
   RDEP   =    1.514    radius for radial grids                                 
   RDEPT  =    1.338    core radius for aug-charge                              
                                                                                
   Atomic configuration                                                         
    4 entries                                                                   
     n  l   j            E        occ.                                          
     1  0  0.50      -384.7179   2.0000                                         
     2  0  0.50       -18.5828   2.0000                                         
     2  1  0.50        -7.0898   3.0000                                         
     3  2  1.50        -6.8029   0.0000                                         
   Description                                                                  
     l       E           TYP  RCUT    TYP  RCUT                                 
     0    -18.5828119     23  1.200                                             
     0    -13.5018863     23  1.200                                             
     1     -7.0897853     23  1.500                                             
     1      9.5240782     23  1.500                                             
     2     -6.8029130      7  1.500                                             
  local pseudopotential read in
  partial core-charges read in
  partial kinetic energy density read in
  atomic valenz-charges read in
  non local Contribution for L=           0  read in
    real space projection operators read in
  non local Contribution for L=           0  read in
    real space projection operators read in
  non local Contribution for L=           1  read in
    real space projection operators read in
  non local Contribution for L=           1  read in
    real space projection operators read in
    PAW grid and wavefunctions read in
 
   number of l-projection  operators is LMAX  =           4
   number of lm-projection operators is LMMAX =           8
 

 ----------------------------------------------------------------------------- 
|                                                                             |
|  ADVICE TO THIS USER RUNNING 'VASP/VAMP'   (HEAR YOUR MASTER'S VOICE ...):  |
|                                                                             |
|      You have a (more or less) 'small supercell' and for smaller cells      |
|      it is recommended  to use the reciprocal-space projection scheme!      |
|      The real space optimization is not  efficient for small cells and it   |
|      is also less accurate ...                                              |
|      Therefore set LREAL=.FALSE. in the  INCAR file                         |
|                                                                             |
 ----------------------------------------------------------------------------- 

 Optimization of the real space projectors (new method)

 maximal supplied QI-value         = 34.20
 optimisation between [QCUT,QGAM] = [  9.92, 20.18] = [ 27.55,114.04] Ry 
 Optimized for a Real-space Cutoff    1.26 Angstroem

   l    n(q)    QCUT    max X(q) W(low)/X(q) W(high)/X(q)  e(spline) 
   0      8     9.919    19.460    0.50E-03    0.23E-03    0.29E-06
   0      8     9.919    12.209    0.48E-03    0.23E-03    0.28E-06
   1      7     9.919     4.655    0.17E-03    0.75E-03    0.30E-06
 Optimization of the real space projectors (new method)

 maximal supplied QI-value         = 25.13
 optimisation between [QCUT,QGAM] = [ 10.05, 20.36] = [ 28.30,116.06] Ry 
 Optimized for a Real-space Cutoff    1.30 Angstroem

   l    n(q)    QCUT    max X(q) W(low)/X(q) W(high)/X(q)  e(spline) 
   0      8    10.053   115.676    0.49E-03    0.72E-03    0.18E-06
   0      8    10.053    87.132    0.49E-03    0.71E-03    0.18E-06
   1      7    10.053     4.429    0.32E-03    0.31E-03    0.18E-06
   1      7    10.053     2.733    0.23E-03    0.19E-03    0.20E-06
 Optimization of the real space projectors (new method)

 maximal supplied QI-value         = 25.13
 optimisation between [QCUT,QGAM] = [ 10.05, 20.36] = [ 28.30,116.06] Ry 
 Optimized for a Real-space Cutoff    1.65 Angstroem

   l    n(q)    QCUT    max X(q) W(low)/X(q) W(high)/X(q)  e(spline) 
   0     10    10.053    79.467    0.76E-04    0.72E-04    0.56E-06
   0     10    10.053    66.151    0.76E-04    0.72E-04    0.55E-06
   1     10    10.053     8.350    0.25E-03    0.92E-03    0.41E-05
   1     10    10.053     5.531    0.27E-03    0.10E-02    0.45E-05
  PAW_PBE H 15Jun2001                   :
 energy of atom  1       EATOM=  -12.4884
 kinetic energy error for atom=    0.0098 (will be added to EATOM!!)
  PAW_PBE C 08Apr2002                   :
 energy of atom  2       EATOM= -147.1560
 kinetic energy error for atom=    0.0288 (will be added to EATOM!!)
  PAW_PBE N 08Apr2002                   :
 energy of atom  3       EATOM= -264.5486
 kinetic energy error for atom=    0.0736 (will be added to EATOM!!)
 
 
 POSCAR: H3 C2 N1                                
  positions in direct lattice
  velocities in cartesian coordinates
 exchange correlation table for  LEXCH =        8
   RHO(1)=    0.500       N(1)  =     2000
   RHO(2)=  100.500       N(2)  =     4000

 VTST: version 3.2, (02/03/18)

 CHAIN: initializing optimizer
 
 OPT: Using FIRE optimizer
 OPT: FIRE, Init
 OPT: FIRE, MAXMOVE       0.20000
 OPT: FIRE, TIMESTEP      0.10000
 OPT: FIRE, FTIMEMAX      1.00000
 OPT: FIRE, FTIMEINC      1.10000
 OPT: FIRE, FTIMEDEC      0.50000
 OPT: FIRE, FALPHADEC     0.99000
 OPT: FIRE, FALPHA        0.10000
 OPT: FIRE, FNMIN         5
 
 CHAIN: Read ICHAIN            0
 CHAIN: Running the NEB
 NEB:          SPRING     -5.000000
 NEB:          LCLIMB      T
 NEB:     LTANGENTOLD      F
 NEB:           LDNEB      F
 NEB:        LDNEBORG      F
 NEB:        LNEBCELL      F
 NEB:          EFIRST      0.000000
 NEB:           ELAST      0.000000
 
 POSCAR: H3 C2 N1                                
  positions in direct lattice
  No initial velocities read in
 
 POSCAR: H3 C2 N1                                
  positions in direct lattice
  No initial velocities read in
 


--------------------------------------------------------------------------------------------------------


 ion  position               nearest neighbor table
   1  0.486  0.463  0.527-   4 1.10
   2  0.458  0.504  0.494-   4 1.10
   3  0.493  0.521  0.539-   4 1.10
   4  0.489  0.496  0.512-   1 1.10   3 1.10   2 1.10   6 1.42
   5  0.557  0.499  0.459-   6 1.18
   6  0.526  0.498  0.483-   5 1.18   4 1.42
 
  LATTYP: Found a simple cubic cell.
 ALAT       =    30.0000000000
  
  Lattice vectors:
  
 A1 = (  30.0000000000,   0.0000000000,   0.0000000000)
 A2 = (   0.0000000000,  30.0000000000,   0.0000000000)
 A3 = (   0.0000000000,   0.0000000000,  30.0000000000)


Analysis of symmetry for initial positions (statically):
=====================================================================
 Subroutine PRICEL returns:
 Original cell was already a primitive cell.
 

 Routine SETGRP: Setting up the symmetry group for a 
 simple cubic supercell.


 Subroutine GETGRP returns: Found  1 space group operations
 (whereof  1 operations were pure point group operations)
 out of a pool of 48 trial point group operations.


The static configuration has the point symmetry C_1 .


Analysis of symmetry for dynamics (positions and initial velocities):
=====================================================================
 Subroutine PRICEL returns:
 Original cell was already a primitive cell.
 

 Routine SETGRP: Setting up the symmetry group for a 
 simple cubic supercell.


 Subroutine GETGRP returns: Found  1 space group operations
 (whereof  1 operations were pure point group operations)
 out of a pool of 48 trial point group operations.


The dynamic configuration has the point symmetry C_1 .
 
 
 KPOINTS: Mo2C                                    

Automatic generation of k-mesh.
Space group operators:
 irot       det(A)        alpha          n_x          n_y          n_z        tau_x        tau_y        tau_z
    1     1.000000     0.000000     1.000000     0.000000     0.000000     0.000000     0.000000     0.000000
 
 Subroutine IBZKPT returns following result:
 ===========================================
 
 Found      4 irreducible k-points:
 
 Following reciprocal coordinates:
            Coordinates               Weight
  0.250000  0.250000  0.250000      2.000000
 -0.250000  0.250000  0.250000      2.000000
  0.250000 -0.250000  0.250000      2.000000
 -0.250000 -0.250000  0.250000      2.000000
 
 Following cartesian coordinates:
            Coordinates               Weight
  0.008333  0.008333  0.008333      2.000000
 -0.008333  0.008333  0.008333      2.000000
  0.008333 -0.008333  0.008333      2.000000
 -0.008333 -0.008333  0.008333      2.000000
 


--------------------------------------------------------------------------------------------------------




 Dimension of arrays:
   k-points           NKPTS =      4   k-points in BZ     NKDIM =      4   number of bands    NBANDS=     12
   number of dos      NEDOS =    301   number of ions     NIONS =      6
   non local maximal  LDIM  =      4   non local SUM 2l+1 LMDIM =      8
   total plane-waves  NPLWV = ******
   max r-space proj   IRMAX =   2395   max aug-charges    IRDMAX=   1738
   dimension x,y,z NGX =   150 NGY =  150 NGZ =  150
   dimension x,y,z NGXF=   300 NGYF=  300 NGZF=  300
   support grid    NGXF=   300 NGYF=  300 NGZF=  300
   ions per type =               3   2   1
 NGX,Y,Z   is equivalent  to a cutoff of   8.31,  8.31,  8.31 a.u.
 NGXF,Y,Z  is equivalent  to a cutoff of  16.62, 16.62, 16.62 a.u.


 I would recommend the setting:
   dimension x,y,z NGX =   147 NGY =  147 NGZ =  147
 SYSTEM =  unknown system                          
 POSCAR =  H3 C2 N1                                

 Startparameter for this run:
   NWRITE =      2    write-flag & timer
   PREC   = normal    normal or accurate (medium, high low for compatibility)
   ISTART =      0    job   : 0-new  1-cont  2-samecut
   ICHARG =      2    charge: 1-file 2-atom 10-const
   ISPIN  =      1    spin polarized calculation?
   LNONCOLLINEAR =      F non collinear calculations
   LSORBIT =      F    spin-orbit coupling
   INIWAV =      1    electr: 0-lowe 1-rand  2-diag
   LASPH  =      F    aspherical Exc in radial PAW
   METAGGA=      F    non-selfconsistent MetaGGA calc.

 Electronic Relaxation 1
   ENCUT  =  400.0 eV  29.40 Ry    5.42 a.u.  48.92 48.92 48.92*2*pi/ulx,y,z
   ENINI  =  400.0     initial cutoff
   ENAUG  =  644.9 eV  augmentation charge cutoff
   NELM   =    500;   NELMIN=  6; NELMDL= -5     # of ELM steps 
   EDIFF  = 0.1E-03   stopping-criterion for ELM
   LREAL  =      T    real-space projection
   NLSPLINE    = F    spline interpolate recip. space projectors
   LCOMPAT=      F    compatible to vasp.4.4
   GGA_COMPAT  = T    GGA compatible to vasp.4.4-vasp.4.6
   LMAXPAW     = -100 max onsite density
   LMAXMIX     =    2 max onsite mixed and CHGCAR
   VOSKOWN=      0    Vosko Wilk Nusair interpolation
   ROPT   =   -0.00050  -0.00050  -0.00050
 Ionic relaxation
   EDIFFG = -.1E+00   stopping-criterion for IOM
   NSW    =    300    number of steps for IOM
   NBLOCK =      1;   KBLOCK =    300    inner block; outer block 
   IBRION =      3    ionic relax: 0-MD 1-quasi-New 2-CG
   NFREE  =      0    steps in history (QN), initial steepest desc. (CG)
   ISIF   =      2    stress and relaxation
   IWAVPR =     11    prediction:  0-non 1-charg 2-wave 3-comb
   ISYM   =      2    0-nonsym 1-usesym 2-fastsym
   LCORR  =      T    Harris-Foulkes like correction to forces

   POTIM  = 0.0000    time-step for ionic-motion
   TEIN   =    0.0    initial temperature
   TEBEG  =    0.0;   TEEND  =   0.0 temperature during run
   SMASS  =   2.00    Nose mass-parameter (am)
   estimated Nose-frequenzy (Omega)   =  0.12E+10 period in steps =  0.00 mass=   0.137E-25a.u.
   SCALEE = 1.0000    scale energy and forces
   NPACO  =    256;   APACO  = 16.0  distance and # of slots for P.C.
   PSTRESS=    0.0 pullay stress

  Mass of Ions in am
   POMASS =   1.00 12.01 14.00
  Ionic Valenz
   ZVAL   =   1.00  4.00  5.00
  Atomic Wigner-Seitz radii
   RWIGS  =  -1.00 -1.00 -1.00
  virtual crystal weights 
   VCA    =   1.00  1.00  1.00
   NELECT =      16.0000    total number of electrons
   NUPDOWN=      -1.0000    fix difference up-down

 DOS related values:
   EMIN   =  10.00;   EMAX   =-10.00  energy-range for DOS
   EFERMI =   0.00
   ISMEAR =     0;   SIGMA  =   0.20  broadening in eV -4-tet -1-fermi 0-gaus

 Electronic relaxation 2 (details)
   IALGO  =     38    algorithm
   LDIAG  =      T    sub-space diagonalisation (order eigenvalues)
   LSUBROT=      F    optimize rotation matrix (better conditioning)
   TURBO    =      0    0=normal 1=particle mesh
   IRESTART =      0    0=no restart 2=restart with 2 vectors
   NREBOOT  =      0    no. of reboots
   NMIN     =      0    reboot dimension
   EREF     =   0.00    reference energy to select bands
   IMIX   =      4    mixing-type and parameters
     AMIX     =   0.40;   BMIX     =  1.00
     AMIX_MAG =   1.60;   BMIX_MAG =  1.00
     AMIN     =   0.10
     WC   =   100.;   INIMIX=   1;  MIXPRE=   1;  MAXMIX= -45

 Intra band minimization:
   WEIMIN = 0.0010     energy-eigenvalue tresh-hold
   EBREAK =  0.21E-05  absolut break condition
   DEPER  =   0.30     relativ break condition  

   TIME   =   0.40     timestep for ELM

  volume/ion in A,a.u.               =    4500.00     30367.50
  Fermi-wavevector in a.u.,A,eV,Ry     =   0.137508  0.259852  0.257264  0.018908
  Thomas-Fermi vector in A             =   0.790710
 
 Write flags
   LWAVE  =      F    write WAVECAR
   LCHARG =      F    write CHGCAR
   LVTOT  =      F    write LOCPOT, total local potential
   LVHAR  =      F    write LOCPOT, Hartree potential only
   LELF   =      F    write electronic localiz. function (ELF)
   LORBIT =      0    0 simple, 1 ext, 2 COOP (PROOUT)


 Dipole corrections
   LMONO  =      F    monopole corrections only (constant potential shift)
   LDIPOL =      F    correct potential (dipole corrections)
   IDIPOL =      0    1-x, 2-y, 3-z, 4-all directions 
   EPSILON=  1.0000000 bulk dielectric constant

 Exchange correlation treatment:
   GGA     =    PE    GGA type
   LEXCH   =     8    internal setting for exchange type
   VOSKOWN=      0    Vosko Wilk Nusair interpolation
   LHFCALC =     F    Hartree Fock is set to
   LHFONE  =     F    Hartree Fock one center treatment
   AEXX    =    0.0000 exact exchange contribution

 Linear response parameters
   LEPSILON=     F    determine dielectric tensor
   LRPA    =     F    only Hartree local field effects (RPA)
   LNABLA  =     F    use nabla operator in PAW spheres
   LVEL    =     F    velocity operator in full k-point grid
   LINTERFAST=   F  fast interpolation
   KINTER  =     0    interpolate to denser k-point grid
   CSHIFT  =0.1000    complex shift for real part using Kramers Kronig
   OMEGAMAX=  -1.0    maximum frequency
   DEG_THRESHOLD= 0.2000000E-02 threshold for treating states as degnerate
   RTIME   =    0.100 relaxation time in fs

 Orbital magnetization related:
   ORBITALMAG=     F  switch on orbital magnetization
   LCHIMAG   =     F  perturbation theory with respect to B field
   DQ        =  0.001000  dq finite difference perturbation B field



--------------------------------------------------------------------------------------------------------


 quickmin algorithm: (dynamic with friction)
 charge density and potential will be updated during run
 non-spin polarized calculation
 Variant of blocked Davidson
 Davidson routine will perform the subspace rotation
 perform sub-space diagonalisation
    after iterative eigenvector-optimisation
 modified Broyden-mixing scheme, WC =      100.0
 initial mixing is a Kerker type mixing with AMIX =  0.4000 and BMIX =      1.0000
 Hartree-type preconditioning will be used
 using additional bands            4
 real space projection scheme for non local part
 use partial core corrections
 calculate Harris-corrections to forces 
   (improved forces if not selfconsistent)
 use gradient corrections 
 use of overlap-Matrix (Vanderbilt PP)
 Gauss-broadening in eV      SIGMA  =   0.20


--------------------------------------------------------------------------------------------------------


  energy-cutoff  :      400.00
  volume of cell :    27000.00
      direct lattice vectors                 reciprocal lattice vectors
    30.000000000  0.000000000  0.000000000     0.033333333  0.000000000  0.000000000
     0.000000000 30.000000000  0.000000000     0.000000000  0.033333333  0.000000000
     0.000000000  0.000000000 30.000000000     0.000000000  0.000000000  0.033333333

  length of vectors
    30.000000000 30.000000000 30.000000000     0.033333333  0.033333333  0.033333333


 
 k-points in units of 2pi/SCALE and weight: Mo2C                                    
   0.00833333  0.00833333  0.00833333       0.250
  -0.00833333  0.00833333  0.00833333       0.250
   0.00833333 -0.00833333  0.00833333       0.250
  -0.00833333 -0.00833333  0.00833333       0.250
 
 k-points in reciprocal lattice and weights: Mo2C                                    
   0.25000000  0.25000000  0.25000000       0.250
  -0.25000000  0.25000000  0.25000000       0.250
   0.25000000 -0.25000000  0.25000000       0.250
  -0.25000000 -0.25000000  0.25000000       0.250
 
 position of ions in fractional coordinates (direct lattice) 
   0.48611236  0.46278826  0.52700474
   0.45832330  0.50399642  0.49403266
   0.49347321  0.52068599  0.53923541
   0.48910658  0.49621749  0.51231835
   0.55703832  0.49864864  0.45870105
   0.52612812  0.49766487  0.48301331
 
 position of ions in cartesian coordinates  (Angst):
  14.58337085 13.88364769 15.81014207
  13.74969893 15.11989257 14.82097991
  14.80419628 15.62057971 16.17706227
  14.67319739 14.88652462 15.36955059
  16.71114964 14.95945920 13.76103163
  15.78384372 14.92994615 14.49039925
 


--------------------------------------------------------------------------------------------------------


 k-point  1 :   0.2500 0.2500 0.2500  plane waves:  490454
 k-point  2 :  -0.2500 0.2500 0.2500  plane waves:  490454
 k-point  3 :   0.2500-0.2500 0.2500  plane waves:  490454
 k-point  4 :  -0.2500-0.2500 0.2500  plane waves:  490454

 maximum and minimum number of plane-waves per node :    490454   490454

 maximum number of plane-waves:    490454
 maximum index in each direction: 
   IXMAX=   49   IYMAX=   49   IZMAX=   48
   IXMIN=  -49   IYMIN=  -49   IZMIN=  -49

 WARNING: aliasing errors must be expected set NGX to 198 to avoid them
 WARNING: aliasing errors must be expected set NGY to 198 to avoid them
 WARNING: aliasing errors must be expected set NGZ to 196 to avoid them
 aliasing errors are usually negligible using standard VASP settings
 and one can safely disregard these warnings

 serial   3D FFT for wavefunctions
 parallel 3D FFT for charge:
    minimum data exchange during FFTs selected (reduces bandwidth)


 total amount of memory used by VASP on root node  3203887. kBytes
========================================================================

   base      :      30000. kBytes
   nonlr-proj:        691. kBytes
   fftplans  :     924480. kBytes
   grid      :    1872000. kBytes
   one-center:         18. kBytes
   wavefun   :     376698. kBytes
 
     INWAV:  cpu time    0.0010: real time    0.0005
 Broyden mixing: mesh for mixing (old mesh)
   NGX = 97   NGY = 97   NGZ = 97
  (NGX  =300   NGY  =300   NGZ  =300)
  gives a total of 912673 points

 initial charge density was supplied:
 charge density of overlapping atoms calculated
 number of electron      16.0000000 magnetization 
 keeping initial charge density in first step


--------------------------------------------------------------------------------------------------------


 Maximum index for non-local projection operator         2271
 Maximum index for augmentation-charges         1493 (set IRDMAX)


--------------------------------------------------------------------------------------------------------


 First call to EWALD:  gamma=   0.059
 Maximum number of real-space cells 3x 3x 3
 Maximum number of reciprocal cells 3x 3x 3

 FEWALD executed in parallel
    FEWALD:  cpu time    0.0020: real time    0.0023


----------------------------------------- Iteration    1(   1)  ---------------------------------------


    POTLOK:  cpu time   30.7073: real time   30.7779
    SETDIJ:  cpu time    0.0060: real time    0.0066
     EDDAV:  cpu time  140.9516: real time  141.2850
       DOS:  cpu time    0.0000: real time    0.0003
    --------------------------------------------
      LOOP:  cpu time  171.6679: real time  172.0744

 eigenvalue-minimisations  :   160
 total energy-change (2. order) : 0.1123220E+03  (-0.2152579E+03)
 number of electron      16.0000000 magnetization 
 augmentation part       16.0000000 magnetization 

 Free energy of the ion-electron system (eV)
  ---------------------------------------------------
  alpha Z        PSCENC =         0.04144063
  Ewald energy   TEWEN  =       702.72841707
  -Hartree energ DENC   =     -1117.05011066
  -exchange      EXHF   =         0.00000000
  -V(xc)+E(xc)   XCENC  =        51.41806739
  PAW double counting   =       428.37890668     -430.73533574
  entropy T*S    EENTRO =        -0.20152740
  eigenvalues    EBANDS =      -118.42320187
  atomic energy  EATOM  =       596.16534815
  Solvation  Ediel_sol  =         0.00000000
  ---------------------------------------------------
  free energy    TOTEN  =       112.32200425 eV

  energy without entropy =      112.52353164  energy(sigma->0) =      112.42276795


--------------------------------------------------------------------------------------------------------




----------------------------------------- Iteration    1(   2)  ---------------------------------------


     EDDAV:  cpu time  163.5551: real time  163.9428
       DOS:  cpu time    0.0000: real time    0.0002
    --------------------------------------------
      LOOP:  cpu time  163.5581: real time  163.9476

 eigenvalue-minimisations  :   192
 total energy-change (2. order) :-0.1150506E+03  (-0.1117864E+03)
 number of electron      16.0000000 magnetization 
 augmentation part       16.0000000 magnetization 

 Free energy of the ion-electron system (eV)
  ---------------------------------------------------
  alpha Z        PSCENC =         0.04144063
  Ewald energy   TEWEN  =       702.72841707
  -Hartree energ DENC   =     -1117.05011066
  -exchange      EXHF   =         0.00000000
  -V(xc)+E(xc)   XCENC  =        51.41806739
  PAW double counting   =       428.37890668     -430.73533574
  entropy T*S    EENTRO =         0.00000000
  eigenvalues    EBANDS =      -233.67531845
  atomic energy  EATOM  =       596.16534815
  Solvation  Ediel_sol  =         0.00000000
  ---------------------------------------------------
  free energy    TOTEN  =        -2.72858493 eV

  energy without entropy =       -2.72858493  energy(sigma->0) =       -2.72858493


--------------------------------------------------------------------------------------------------------




----------------------------------------- Iteration    1(   3)  ---------------------------------------


     EDDAV:  cpu time  120.9086: real time  121.1965
       DOS:  cpu time    0.0000: real time    0.0002
    --------------------------------------------
      LOOP:  cpu time  120.9106: real time  121.2011

 eigenvalue-minimisations  :   128
 total energy-change (2. order) :-0.3188454E+02  (-0.3179820E+02)
 number of electron      16.0000000 magnetization 
 augmentation part       16.0000000 magnetization 

 Free energy of the ion-electron system (eV)
  ---------------------------------------------------
  alpha Z        PSCENC =         0.04144063
  Ewald energy   TEWEN  =       702.72841707
  -Hartree energ DENC   =     -1117.05011066
  -exchange      EXHF   =         0.00000000
  -V(xc)+E(xc)   XCENC  =        51.41806739
  PAW double counting   =       428.37890668     -430.73533574
  entropy T*S    EENTRO =         0.00000000
  eigenvalues    EBANDS =      -265.55985814
  atomic energy  EATOM  =       596.16534815
  Solvation  Ediel_sol  =         0.00000000
  ---------------------------------------------------
  free energy    TOTEN  =       -34.61312462 eV

  energy without entropy =      -34.61312462  energy(sigma->0) =      -34.61312462


--------------------------------------------------------------------------------------------------------




----------------------------------------- Iteration    1(   4)  ---------------------------------------


     EDDAV:  cpu time  116.5573: real time  116.8325
       DOS:  cpu time    0.0000: real time    0.0002
    --------------------------------------------
      LOOP:  cpu time  116.5583: real time  116.8371

 eigenvalue-minimisations  :   128
 total energy-change (2. order) :-0.4324400E+01  (-0.4281462E+01)
 number of electron      16.0000000 magnetization 
 augmentation part       16.0000000 magnetization 

 Free energy of the ion-electron system (eV)
  ---------------------------------------------------
  alpha Z        PSCENC =         0.04144063
  Ewald energy   TEWEN  =       702.72841707
  -Hartree energ DENC   =     -1117.05011066
  -exchange      EXHF   =         0.00000000
  -V(xc)+E(xc)   XCENC  =        51.41806739
  PAW double counting   =       428.37890668     -430.73533574
  entropy T*S    EENTRO =         0.00000000
  eigenvalues    EBANDS =      -269.88425805
  atomic energy  EATOM  =       596.16534815
  Solvation  Ediel_sol  =         0.00000000
  ---------------------------------------------------
  free energy    TOTEN  =       -38.93752454 eV

  energy without entropy =      -38.93752454  energy(sigma->0) =      -38.93752454


--------------------------------------------------------------------------------------------------------




----------------------------------------- Iteration    1(   5)  ---------------------------------------


     EDDAV:  cpu time  118.8869: real time  119.1668
       DOS:  cpu time    0.0000: real time    0.0002
    CHARGE:  cpu time    9.0546: real time    9.0761
    MIXING:  cpu time    0.8309: real time    0.8328
    --------------------------------------------
      LOOP:  cpu time  128.7744: real time  129.0803

 eigenvalue-minimisations  :   132
 total energy-change (2. order) :-0.1618587E+00  (-0.1598026E+00)
 number of electron      16.0000021 magnetization 
 augmentation part        0.5199792 magnetization 

 Broyden mixing:
  rms(total) = 0.10382E+01    rms(broyden)= 0.10377E+01
  rms(prec ) = 0.10748E+01
  weight for this iteration     100.00

 Free energy of the ion-electron system (eV)
  ---------------------------------------------------
  alpha Z        PSCENC =         0.04144063
  Ewald energy   TEWEN  =       702.72841707
  -Hartree energ DENC   =     -1117.05011066
  -exchange      EXHF   =         0.00000000
  -V(xc)+E(xc)   XCENC  =        51.41806739
  PAW double counting   =       428.37890668     -430.73533574
  entropy T*S    EENTRO =         0.00000000
  eigenvalues    EBANDS =      -270.04611675
  atomic energy  EATOM  =       596.16534815
  Solvation  Ediel_sol  =         0.00000000
  ---------------------------------------------------
  free energy    TOTEN  =       -39.09938323 eV

  energy without entropy =      -39.09938323  energy(sigma->0) =      -39.09938323


--------------------------------------------------------------------------------------------------------




----------------------------------------- Iteration    1(   6)  ---------------------------------------


    POTLOK:  cpu time   29.5115: real time   29.5780
    SETDIJ:  cpu time    0.0060: real time    0.0069
     EDDAV:  cpu time  109.4944: real time  109.7444
       DOS:  cpu time    0.0000: real time    0.0002
    CHARGE:  cpu time    9.4296: real time    9.4518
    MIXING:  cpu time    0.9109: real time    0.9134
    --------------------------------------------
      LOOP:  cpu time  149.3553: real time  149.7004

 eigenvalue-minimisations  :   124
 total energy-change (2. order) : 0.2689736E+01  (-0.4556804E+00)
 number of electron      16.0000022 magnetization 
 augmentation part        0.4734524 magnetization 

 Broyden mixing:
  rms(total) = 0.56284E+00    rms(broyden)= 0.56277E+00
  rms(prec ) = 0.57833E+00
  weight for this iteration     100.00

 eigenvalues of (default mixing * dielectric matrix)
  average eigenvalue GAMMA=   1.6042
  1.6042

 Free energy of the ion-electron system (eV)
  ---------------------------------------------------
  alpha Z        PSCENC =         0.04144063
  Ewald energy   TEWEN  =       702.72841707
  -Hartree energ DENC   =     -1146.21557685
  -exchange      EXHF   =         0.00000000
  -V(xc)+E(xc)   XCENC  =        53.01901119
  PAW double counting   =       719.92108175     -722.61334482
  entropy T*S    EENTRO =         0.00000000
  eigenvalues    EBANDS =      -239.45602421
  atomic energy  EATOM  =       596.16534815
  Solvation  Ediel_sol  =         0.00000000
  ---------------------------------------------------
  free energy    TOTEN  =       -36.40964708 eV

  energy without entropy =      -36.40964708  energy(sigma->0) =      -36.40964708


--------------------------------------------------------------------------------------------------------




----------------------------------------- Iteration    1(   7)  ---------------------------------------


    POTLOK:  cpu time   30.9583: real time   31.0297
    SETDIJ:  cpu time    0.0070: real time    0.0068
     EDDAV:  cpu time  119.1539: real time  119.4365
       DOS:  cpu time    0.0000: real time    0.0002
    CHARGE:  cpu time    8.8687: real time    8.8897
    MIXING:  cpu time    0.9599: real time    0.9620
    --------------------------------------------
      LOOP:  cpu time  159.9497: real time  160.3300

 eigenvalue-minimisations  :   124
 total energy-change (2. order) : 0.7001207E+00  (-0.1798093E+00)
 number of electron      16.0000021 magnetization 
 augmentation part        0.4580262 magnetization 

 Broyden mixing:
  rms(total) = 0.22404E+00    rms(broyden)= 0.22398E+00
  rms(prec ) = 0.22920E+00
  weight for this iteration     100.00

 eigenvalues of (default mixing * dielectric matrix)
  average eigenvalue GAMMA=   1.5707
  1.0813  2.0601

 Free energy of the ion-electron system (eV)
  ---------------------------------------------------
  alpha Z        PSCENC =         0.04144063
  Ewald energy   TEWEN  =       702.72841707
  -Hartree energ DENC   =     -1165.96704281
  -exchange      EXHF   =         0.00000000
  -V(xc)+E(xc)   XCENC  =        54.28214051
  PAW double counting   =      1096.22830868    -1099.10963422
  entropy T*S    EENTRO =         0.00000000
  eigenvalues    EBANDS =      -220.07850442
  atomic energy  EATOM  =       596.16534815
  Solvation  Ediel_sol  =         0.00000000
  ---------------------------------------------------
  free energy    TOTEN  =       -35.70952641 eV

  energy without entropy =      -35.70952641  energy(sigma->0) =      -35.70952641


--------------------------------------------------------------------------------------------------------




----------------------------------------- Iteration    1(   8)  ---------------------------------------


    POTLOK:  cpu time   30.6173: real time   30.6903
    SETDIJ:  cpu time    0.0070: real time    0.0065
     EDDAV:  cpu time  123.0713: real time  123.3631
       DOS:  cpu time    0.0000: real time    0.0002
    CHARGE:  cpu time    9.0716: real time    9.0933
    MIXING:  cpu time    1.0188: real time    1.0211
    --------------------------------------------
      LOOP:  cpu time  163.7881: real time  164.1799

 eigenvalue-minimisations  :   128
 total energy-change (2. order) : 0.7113728E-01  (-0.1442146E-01)
 number of electron      16.0000021 magnetization 
 augmentation part        0.4492997 magnetization 

 Broyden mixing:
  rms(total) = 0.88343E-01    rms(broyden)= 0.88321E-01
  rms(prec ) = 0.92610E-01
  weight for this iteration     100.00

 eigenvalues of (default mixing * dielectric matrix)
  average eigenvalue GAMMA=   1.5905
  2.3151  0.8246  1.6316

 Free energy of the ion-electron system (eV)
  ---------------------------------------------------
  alpha Z        PSCENC =         0.04144063
  Ewald energy   TEWEN  =       702.72841707
  -Hartree energ DENC   =     -1172.41147790
  -exchange      EXHF   =         0.00000000
  -V(xc)+E(xc)   XCENC  =        54.70039748
  PAW double counting   =      1272.82961999    -1275.73268568
  entropy T*S    EENTRO =         0.00000000
  eigenvalues    EBANDS =      -213.95944887
  atomic energy  EATOM  =       596.16534815
  Solvation  Ediel_sol  =         0.00000000
  ---------------------------------------------------
  free energy    TOTEN  =       -35.63838913 eV

  energy without entropy =      -35.63838913  energy(sigma->0) =      -35.63838913


--------------------------------------------------------------------------------------------------------




----------------------------------------- Iteration    1(   9)  ---------------------------------------


    POTLOK:  cpu time   28.2667: real time   28.3298
    SETDIJ:  cpu time    0.0070: real time    0.0069
     EDDAV:  cpu time  120.4227: real time  120.7086
       DOS:  cpu time    0.0000: real time    0.0002
    CHARGE:  cpu time    8.8647: real time    8.8863
    MIXING:  cpu time    1.1128: real time    1.1151
    --------------------------------------------
      LOOP:  cpu time  158.6749: real time  159.0520

 eigenvalue-minimisations  :   128
 total energy-change (2. order) : 0.1875954E-01  (-0.2107942E-02)
 number of electron      16.0000021 magnetization 
 augmentation part        0.4498813 magnetization 

 Broyden mixing:
  rms(total) = 0.21691E-01    rms(broyden)= 0.21682E-01
  rms(prec ) = 0.27937E-01
  weight for this iteration     100.00

 eigenvalues of (default mixing * dielectric matrix)
  average eigenvalue GAMMA=   1.5440
  2.0153  2.0153  0.8493  1.2960

 Free energy of the ion-electron system (eV)
  ---------------------------------------------------
  alpha Z        PSCENC =         0.04144063
  Ewald energy   TEWEN  =       702.72841707
  -Hartree energ DENC   =     -1173.64192784
  -exchange      EXHF   =         0.00000000
  -V(xc)+E(xc)   XCENC  =        54.78472594
  PAW double counting   =      1338.74500745    -1341.62065361
  entropy T*S    EENTRO =         0.00000000
  eigenvalues    EBANDS =      -212.82198739
  atomic energy  EATOM  =       596.16534815
  Solvation  Ediel_sol  =         0.00000000
  ---------------------------------------------------
  free energy    TOTEN  =       -35.61962959 eV

  energy without entropy =      -35.61962959  energy(sigma->0) =      -35.61962959


--------------------------------------------------------------------------------------------------------




----------------------------------------- Iteration    1(  10)  ---------------------------------------


    POTLOK:  cpu time   30.3734: real time   30.4450
    SETDIJ:  cpu time    0.0060: real time    0.0073
     EDDAV:  cpu time  122.2634: real time  122.5536
       DOS:  cpu time    0.0010: real time    0.0002
    CHARGE:  cpu time    8.8756: real time    8.8970
    MIXING:  cpu time    1.1508: real time    1.1538
    --------------------------------------------
      LOOP:  cpu time  162.6723: real time  163.0615

 eigenvalue-minimisations  :   128
 total energy-change (2. order) : 0.3345417E-03  (-0.4257341E-03)
 number of electron      16.0000021 magnetization 
 augmentation part        0.4507812 magnetization 

 Broyden mixing:
  rms(total) = 0.13122E-01    rms(broyden)= 0.13116E-01
  rms(prec ) = 0.18806E-01
  weight for this iteration     100.00

 eigenvalues of (default mixing * dielectric matrix)
  average eigenvalue GAMMA=   1.5103
  2.1812  2.1812  0.8989  0.8989  1.3912

 Free energy of the ion-electron system (eV)
  ---------------------------------------------------
  alpha Z        PSCENC =         0.04144063
  Ewald energy   TEWEN  =       702.72841707
  -Hartree energ DENC   =     -1174.62029980
  -exchange      EXHF   =         0.00000000
  -V(xc)+E(xc)   XCENC  =        54.80816193
  PAW double counting   =      1334.08732054    -1336.95824338
  entropy T*S    EENTRO =         0.00000000
  eigenvalues    EBANDS =      -211.87144019
  atomic energy  EATOM  =       596.16534815
  Solvation  Ediel_sol  =         0.00000000
  ---------------------------------------------------
  free energy    TOTEN  =       -35.61929505 eV

  energy without entropy =      -35.61929505  energy(sigma->0) =      -35.61929505


--------------------------------------------------------------------------------------------------------




----------------------------------------- Iteration    1(  11)  ---------------------------------------


    POTLOK:  cpu time   28.5977: real time   28.6656
    SETDIJ:  cpu time    0.0070: real time    0.0070
     EDDAV:  cpu time  121.8185: real time  122.1073
       DOS:  cpu time    0.0000: real time    0.0002
    CHARGE:  cpu time    9.0606: real time    9.0823
    MIXING:  cpu time    1.1698: real time    1.1722
    --------------------------------------------
      LOOP:  cpu time  160.6556: real time  161.0392

 eigenvalue-minimisations  :   128
 total energy-change (2. order) :-0.1659071E-02  (-0.1769041E-03)
 number of electron      16.0000021 magnetization 
 augmentation part        0.4502373 magnetization 

 Broyden mixing:
  rms(total) = 0.80508E-02    rms(broyden)= 0.80500E-02
  rms(prec ) = 0.12979E-01
  weight for this iteration     100.00

 eigenvalues of (default mixing * dielectric matrix)
  average eigenvalue GAMMA=   1.6526
  2.6369  2.6369  1.4315  1.4315  0.8893  0.8893

 Free energy of the ion-electron system (eV)
  ---------------------------------------------------
  alpha Z        PSCENC =         0.04144063
  Ewald energy   TEWEN  =       702.72841707
  -Hartree energ DENC   =     -1175.66263080
  -exchange      EXHF   =         0.00000000
  -V(xc)+E(xc)   XCENC  =        54.84021628
  PAW double counting   =      1333.49794728    -1336.36760868
  entropy T*S    EENTRO =         0.00000000
  eigenvalues    EBANDS =      -210.86408405
  atomic energy  EATOM  =       596.16534815
  Solvation  Ediel_sol  =         0.00000000
  ---------------------------------------------------
  free energy    TOTEN  =       -35.62095412 eV

  energy without entropy =      -35.62095412  energy(sigma->0) =      -35.62095412


--------------------------------------------------------------------------------------------------------




----------------------------------------- Iteration    1(  12)  ---------------------------------------


    POTLOK:  cpu time   27.2619: real time   27.3248
    SETDIJ:  cpu time    0.0070: real time    0.0068
     EDDAV:  cpu time  117.2902: real time  117.5690
       DOS:  cpu time    0.0000: real time    0.0002
    CHARGE:  cpu time    9.1056: real time    9.1270
    MIXING:  cpu time    1.5258: real time    1.5300
    --------------------------------------------
      LOOP:  cpu time  155.1924: real time  155.5618

 eigenvalue-minimisations  :   124
 total energy-change (2. order) :-0.5576475E-02  (-0.2997336E-03)
 number of electron      16.0000021 magnetization 
 augmentation part        0.4499492 magnetization 

 Broyden mixing:
  rms(total) = 0.45675E-02    rms(broyden)= 0.45645E-02
  rms(prec ) = 0.74064E-02
  weight for this iteration     100.00

 eigenvalues of (default mixing * dielectric matrix)
  average eigenvalue GAMMA=   1.7846
  3.8606  2.2466  1.8370  1.6115  0.9079  1.0143  1.0143

 Free energy of the ion-electron system (eV)
  ---------------------------------------------------
  alpha Z        PSCENC =         0.04144063
  Ewald energy   TEWEN  =       702.72841707
  -Hartree energ DENC   =     -1176.88189395
  -exchange      EXHF   =         0.00000000
  -V(xc)+E(xc)   XCENC  =        54.86885537
  PAW double counting   =      1329.75025356    -1332.61760763
  entropy T*S    EENTRO =         0.00000000
  eigenvalues    EBANDS =      -209.68134379
  atomic energy  EATOM  =       596.16534815
  Solvation  Ediel_sol  =         0.00000000
  ---------------------------------------------------
  free energy    TOTEN  =       -35.62653060 eV

  energy without entropy =      -35.62653060  energy(sigma->0) =      -35.62653060


--------------------------------------------------------------------------------------------------------




----------------------------------------- Iteration    1(  13)  ---------------------------------------


    POTLOK:  cpu time   30.5574: real time   30.6293
    SETDIJ:  cpu time    0.0070: real time    0.0066
     EDDAV:  cpu time  117.1722: real time  117.4485
       DOS:  cpu time    0.0000: real time    0.0002
    CHARGE:  cpu time    8.8986: real time    8.9210
    MIXING:  cpu time    1.7127: real time    1.7167
    --------------------------------------------
      LOOP:  cpu time  158.3489: real time  158.7267

 eigenvalue-minimisations  :   128
 total energy-change (2. order) :-0.5966565E-02  (-0.1610611E-03)
 number of electron      16.0000021 magnetization 
 augmentation part        0.4497899 magnetization 

 Broyden mixing:
  rms(total) = 0.28472E-02    rms(broyden)= 0.28456E-02
  rms(prec ) = 0.43863E-02
  weight for this iteration     100.00

 eigenvalues of (default mixing * dielectric matrix)
  average eigenvalue GAMMA=   1.8896
  4.9233  2.3989  1.7948  1.6987  1.4623  0.9143  0.9508  0.9736

 Free energy of the ion-electron system (eV)
  ---------------------------------------------------
  alpha Z        PSCENC =         0.04144063
  Ewald energy   TEWEN  =       702.72841707
  -Hartree energ DENC   =     -1177.48836138
  -exchange      EXHF   =         0.00000000
  -V(xc)+E(xc)   XCENC  =        54.87642356
  PAW double counting   =      1329.24515396    -1332.11281099
  entropy T*S    EENTRO =         0.00000000
  eigenvalues    EBANDS =      -209.08810815
  atomic energy  EATOM  =       596.16534815
  Solvation  Ediel_sol  =         0.00000000
  ---------------------------------------------------
  free energy    TOTEN  =       -35.63249716 eV

  energy without entropy =      -35.63249716  energy(sigma->0) =      -35.63249716


--------------------------------------------------------------------------------------------------------




----------------------------------------- Iteration    1(  14)  ---------------------------------------


    POTLOK:  cpu time   31.3272: real time   31.4005
    SETDIJ:  cpu time    0.0070: real time    0.0066
     EDDAV:  cpu time  116.5733: real time  116.8474
       DOS:  cpu time    0.0000: real time    0.0002
    CHARGE:  cpu time    8.8827: real time    8.9054
    MIXING:  cpu time    1.8957: real time    1.9001
    --------------------------------------------
      LOOP:  cpu time  158.6889: real time  159.0650

 eigenvalue-minimisations  :   128
 total energy-change (2. order) :-0.4170662E-02  (-0.5190432E-04)
 number of electron      16.0000021 magnetization 
 augmentation part        0.4498055 magnetization 

 Broyden mixing:
  rms(total) = 0.18418E-02    rms(broyden)= 0.18413E-02
  rms(prec ) = 0.26869E-02
  weight for this iteration     100.00

 eigenvalues of (default mixing * dielectric matrix)
  average eigenvalue GAMMA=   1.9743
  5.1619  2.7654  2.4263  1.8700  1.5714  1.0974  1.0974  0.8893  0.8893

 Free energy of the ion-electron system (eV)
  ---------------------------------------------------
  alpha Z        PSCENC =         0.04144063
  Ewald energy   TEWEN  =       702.72841707
  -Hartree energ DENC   =     -1177.68184693
  -exchange      EXHF   =         0.00000000
  -V(xc)+E(xc)   XCENC  =        54.87039261
  PAW double counting   =      1327.54943817    -1330.41706075
  entropy T*S    EENTRO =         0.00000000
  eigenvalues    EBANDS =      -208.89279677
  atomic energy  EATOM  =       596.16534815
  Solvation  Ediel_sol  =         0.00000000
  ---------------------------------------------------
  free energy    TOTEN  =       -35.63666782 eV

  energy without entropy =      -35.63666782  energy(sigma->0) =      -35.63666782


--------------------------------------------------------------------------------------------------------




----------------------------------------- Iteration    1(  15)  ---------------------------------------


    POTLOK:  cpu time   30.9433: real time   31.0171
    SETDIJ:  cpu time    0.0060: real time    0.0068
     EDDAV:  cpu time  118.4760: real time  118.7546
       DOS:  cpu time    0.0000: real time    0.0002
    CHARGE:  cpu time    8.9076: real time    8.9285
    MIXING:  cpu time    1.9427: real time    1.9469
    --------------------------------------------
      LOOP:  cpu time  160.2786: real time  160.6601

 eigenvalue-minimisations  :   128
 total energy-change (2. order) :-0.3259459E-02  (-0.3467433E-04)
 number of electron      16.0000021 magnetization 
 augmentation part        0.4498485 magnetization 

 Broyden mixing:
  rms(total) = 0.11284E-02    rms(broyden)= 0.11283E-02
  rms(prec ) = 0.15625E-02
  weight for this iteration     100.00

 eigenvalues of (default mixing * dielectric matrix)
  average eigenvalue GAMMA=   2.0996
  6.5649  3.4912  2.3547  1.6098  1.6098  1.6032  1.0296  0.9290  0.9290  0.8748

 Free energy of the ion-electron system (eV)
  ---------------------------------------------------
  alpha Z        PSCENC =         0.04144063
  Ewald energy   TEWEN  =       702.72841707
  -Hartree energ DENC   =     -1177.70845902
  -exchange      EXHF   =         0.00000000
  -V(xc)+E(xc)   XCENC  =        54.86437767
  PAW double counting   =      1328.38727848    -1331.25513176
  entropy T*S    EENTRO =         0.00000000
  eigenvalues    EBANDS =      -208.86319850
  atomic energy  EATOM  =       596.16534815
  Solvation  Ediel_sol  =         0.00000000
  ---------------------------------------------------
  free energy    TOTEN  =       -35.63992728 eV

  energy without entropy =      -35.63992728  energy(sigma->0) =      -35.63992728


--------------------------------------------------------------------------------------------------------




----------------------------------------- Iteration    1(  16)  ---------------------------------------


    POTLOK:  cpu time   30.5644: real time   30.6352
    SETDIJ:  cpu time    0.0070: real time    0.0068
     EDDAV:  cpu time  115.7944: real time  116.0615
       DOS:  cpu time    0.0000: real time    0.0002
    CHARGE:  cpu time    8.8367: real time    8.8575
    MIXING:  cpu time    1.9597: real time    1.9645
    --------------------------------------------
      LOOP:  cpu time  157.1631: real time  157.5300

 eigenvalue-minimisations  :   128
 total energy-change (2. order) :-0.1305829E-02  (-0.1141414E-04)
 number of electron      16.0000021 magnetization 
 augmentation part        0.4498252 magnetization 

 Broyden mixing:
  rms(total) = 0.64789E-03    rms(broyden)= 0.64777E-03
  rms(prec ) = 0.89166E-03
  weight for this iteration     100.00

 eigenvalues of (default mixing * dielectric matrix)
  average eigenvalue GAMMA=   2.1590
  7.2437  3.4749  2.3124  2.3124  1.6485  1.6485  1.3341  0.9924  0.9924  0.8951
  0.8951

 Free energy of the ion-electron system (eV)
  ---------------------------------------------------
  alpha Z        PSCENC =         0.04144063
  Ewald energy   TEWEN  =       702.72841707
  -Hartree energ DENC   =     -1177.73988317
  -exchange      EXHF   =         0.00000000
  -V(xc)+E(xc)   XCENC  =        54.86217187
  PAW double counting   =      1328.33347206    -1331.20132641
  entropy T*S    EENTRO =         0.00000000
  eigenvalues    EBANDS =      -208.83087331
  atomic energy  EATOM  =       596.16534815
  Solvation  Ediel_sol  =         0.00000000
  ---------------------------------------------------
  free energy    TOTEN  =       -35.64123311 eV

  energy without entropy =      -35.64123311  energy(sigma->0) =      -35.64123311


--------------------------------------------------------------------------------------------------------




----------------------------------------- Iteration    1(  17)  ---------------------------------------


    POTLOK:  cpu time   25.4181: real time   25.4755
    SETDIJ:  cpu time    0.0070: real time    0.0070
     EDDAV:  cpu time   85.3520: real time   85.5527
       DOS:  cpu time    0.0000: real time    0.0002
    CHARGE:  cpu time    8.5827: real time    8.6033
    MIXING:  cpu time    1.6467: real time    1.6505
    --------------------------------------------
      LOOP:  cpu time  121.0096: real time  121.2938

 eigenvalue-minimisations  :    80
 total energy-change (2. order) :-0.8234986E-03  (-0.2777750E-05)
 number of electron      16.0000021 magnetization 
 augmentation part        0.4497958 magnetization 

 Broyden mixing:
  rms(total) = 0.41217E-03    rms(broyden)= 0.41206E-03
  rms(prec ) = 0.53271E-03
  weight for this iteration     100.00

 eigenvalues of (default mixing * dielectric matrix)
  average eigenvalue GAMMA=   2.2648
  8.1106  4.2904  2.7571  2.3364  1.6361  1.6361  1.5780  0.9888  0.9888  1.0885
  0.8834  0.8834

 Free energy of the ion-electron system (eV)
  ---------------------------------------------------
  alpha Z        PSCENC =         0.04144063
  Ewald energy   TEWEN  =       702.72841707
  -Hartree energ DENC   =     -1177.74937879
  -exchange      EXHF   =         0.00000000
  -V(xc)+E(xc)   XCENC  =        54.86114786
  PAW double counting   =      1328.18869920    -1331.05634438
  entropy T*S    EENTRO =         0.00000000
  eigenvalues    EBANDS =      -208.82138635
  atomic energy  EATOM  =       596.16534815
  Solvation  Ediel_sol  =         0.00000000
  ---------------------------------------------------
  free energy    TOTEN  =       -35.64205661 eV

  energy without entropy =      -35.64205661  energy(sigma->0) =      -35.64205661


--------------------------------------------------------------------------------------------------------




----------------------------------------- Iteration    1(  18)  ---------------------------------------


    POTLOK:  cpu time   25.4491: real time   25.5065
    SETDIJ:  cpu time    0.0070: real time    0.0068
     EDDAV:  cpu time   81.5056: real time   81.6937
       DOS:  cpu time    0.0000: real time    0.0002
    CHARGE:  cpu time    7.4529: real time    7.4693
    MIXING:  cpu time    2.0047: real time    2.0107
    --------------------------------------------
      LOOP:  cpu time  116.4203: real time  116.6913

 eigenvalue-minimisations  :    80
 total energy-change (2. order) :-0.3453233E-03  (-0.2480668E-05)
 number of electron      16.0000021 magnetization 
 augmentation part        0.4497983 magnetization 

 Broyden mixing:
  rms(total) = 0.26609E-03    rms(broyden)= 0.26604E-03
  rms(prec ) = 0.32724E-03
  weight for this iteration     100.00

 eigenvalues of (default mixing * dielectric matrix)
  average eigenvalue GAMMA=   2.3449
  8.4033  4.7823  2.5884  2.5884  2.5263  1.6737  1.6737  1.4412  1.0047  1.0047
  0.8953  0.8953  1.0058

 Free energy of the ion-electron system (eV)
  ---------------------------------------------------
  alpha Z        PSCENC =         0.04144063
  Ewald energy   TEWEN  =       702.72841707
  -Hartree energ DENC   =     -1177.74263214
  -exchange      EXHF   =         0.00000000
  -V(xc)+E(xc)   XCENC  =        54.86041730
  PAW double counting   =      1328.39801664    -1331.26567174
  entropy T*S    EENTRO =         0.00000000
  eigenvalues    EBANDS =      -208.82773783
  atomic energy  EATOM  =       596.16534815
  Solvation  Ediel_sol  =         0.00000000
  ---------------------------------------------------
  free energy    TOTEN  =       -35.64240193 eV

  energy without entropy =      -35.64240193  energy(sigma->0) =      -35.64240193


--------------------------------------------------------------------------------------------------------




----------------------------------------- Iteration    1(  19)  ---------------------------------------


    POTLOK:  cpu time   29.7425: real time   29.8111
    SETDIJ:  cpu time    0.0070: real time    0.0072
     EDDAV:  cpu time   70.9512: real time   71.1126
       DOS:  cpu time    0.0000: real time    0.0002
    CHARGE:  cpu time    7.8078: real time    7.8260
    MIXING:  cpu time    2.0867: real time    2.0914
    --------------------------------------------
      LOOP:  cpu time  110.5982: real time  110.8530

 eigenvalue-minimisations  :    72
 total energy-change (2. order) :-0.2154162E-03  (-0.9259642E-06)
 number of electron      16.0000021 magnetization 
 augmentation part        0.4498127 magnetization 

 Broyden mixing:
  rms(total) = 0.26609E-03    rms(broyden)= 0.26603E-03
  rms(prec ) = 0.28774E-03
  weight for this iteration     100.00

 eigenvalues of (default mixing * dielectric matrix)
  average eigenvalue GAMMA=   2.3333
  8.6611  5.3305  3.2814  2.5824  2.0003  1.7907  1.6413  1.6413  1.0244  1.0244
  1.0693  0.8801  0.8801  0.8583

 Free energy of the ion-electron system (eV)
  ---------------------------------------------------
  alpha Z        PSCENC =         0.04144063
  Ewald energy   TEWEN  =       702.72841707
  -Hartree energ DENC   =     -1177.73454824
  -exchange      EXHF   =         0.00000000
  -V(xc)+E(xc)   XCENC  =        54.85983008
  PAW double counting   =      1328.34204362    -1331.20980229
  entropy T*S    EENTRO =         0.00000000
  eigenvalues    EBANDS =      -208.83534637
  atomic energy  EATOM  =       596.16534815
  Solvation  Ediel_sol  =         0.00000000
  ---------------------------------------------------
  free energy    TOTEN  =       -35.64261735 eV

  energy without entropy =      -35.64261735  energy(sigma->0) =      -35.64261735


--------------------------------------------------------------------------------------------------------




----------------------------------------- Iteration    1(  20)  ---------------------------------------


    POTLOK:  cpu time   26.5400: real time   26.5982
    SETDIJ:  cpu time    0.0070: real time    0.0071
     EDDAV:  cpu time   96.2984: real time   96.5229
       DOS:  cpu time    0.0000: real time    0.0002
    --------------------------------------------
      LOOP:  cpu time  122.8483: real time  123.1323

 eigenvalue-minimisations  :    96
 total energy-change (2. order) :-0.4347055E-04  (-0.2551763E-06)
 number of electron      16.0000021 magnetization 
 augmentation part        0.4498127 magnetization 

 Free energy of the ion-electron system (eV)
  ---------------------------------------------------
  alpha Z        PSCENC =         0.04144063
  Ewald energy   TEWEN  =       702.72841707
  -Hartree energ DENC   =     -1177.73575024
  -exchange      EXHF   =         0.00000000
  -V(xc)+E(xc)   XCENC  =        54.85976946
  PAW double counting   =      1328.25698614    -1331.12469593
  entropy T*S    EENTRO =         0.00000000
  eigenvalues    EBANDS =      -208.83417610
  atomic energy  EATOM  =       596.16534815
  Solvation  Ediel_sol  =         0.00000000
  ---------------------------------------------------
  free energy    TOTEN  =       -35.64266082 eV

  energy without entropy =      -35.64266082  energy(sigma->0) =      -35.64266082


--------------------------------------------------------------------------------------------------------




 average (electrostatic) potential at core
  the test charge radii are     0.5201  0.6991  0.7089
  (the norm of the test charge is              1.0000)
       1 -43.0814       2 -43.0788       3 -43.0804       4 -60.5360       5 -59.3463
       6 -74.8327
 
 
 
 E-fermi :  -6.1897     XC(G=0):  -0.0949     alpha+bet : -0.0137


 k-point     1 :       0.2500    0.2500    0.2500
  band No.  band energies     occupation 
      1     -23.8896      2.00000
      2     -19.2984      2.00000
      3     -13.8834      2.00000
      4     -11.7964      2.00000
      5     -11.7954      2.00000
      6      -8.3062      2.00000
      7      -8.3052      2.00000
      8      -7.1424      2.00000
      9      -0.7629      0.00000
     10      -0.6610      0.00000
     11      -0.6597      0.00000
     12      -0.0128      0.00000

 k-point     2 :      -0.2500    0.2500    0.2500
  band No.  band energies     occupation 
      1     -23.8896      2.00000
      2     -19.2984      2.00000
      3     -13.8834      2.00000
      4     -11.7964      2.00000
      5     -11.7954      2.00000
      6      -8.3063      2.00000
      7      -8.3053      2.00000
      8      -7.1424      2.00000
      9      -0.7629      0.00000
     10      -0.6610      0.00000
     11      -0.6597      0.00000
     12      -0.0132      0.00000

 k-point     3 :       0.2500   -0.2500    0.2500
  band No.  band energies     occupation 
      1     -23.8896      2.00000
      2     -19.2984      2.00000
      3     -13.8834      2.00000
      4     -11.7964      2.00000
      5     -11.7954      2.00000
      6      -8.3062      2.00000
      7      -8.3052      2.00000
      8      -7.1424      2.00000
      9      -0.7629      0.00000
     10      -0.6610      0.00000
     11      -0.6597      0.00000
     12      -0.0130      0.00000

 k-point     4 :      -0.2500   -0.2500    0.2500
  band No.  band energies     occupation 
      1     -23.8896      2.00000
      2     -19.2984      2.00000
      3     -13.8834      2.00000
      4     -11.7964      2.00000
      5     -11.7954      2.00000
      6      -8.3062      2.00000
      7      -8.3053      2.00000
      8      -7.1424      2.00000
      9      -0.7629      0.00000
     10      -0.6610      0.00000
     11      -0.6597      0.00000
     12      -0.0132      0.00000


--------------------------------------------------------------------------------------------------------


 soft charge-density along one line, spin component           1
         0         1         2         3         4         5         6         7         8         9
 total charge-density along one line
 
 pseudopotential strength for first ion, spin component:           1
 -2.363  -4.075  -0.002   0.001   0.000
 -4.075  -6.943  -0.005   0.002  -0.001
 -0.002  -0.005  -0.330  -0.002   0.000
  0.001   0.002  -0.002  -0.333   0.000
  0.000  -0.001   0.000   0.000  -0.334
 total augmentation occupancy for first ion, spin component:           1
  3.521  -0.634   0.405  -0.179   0.038
 -0.634   0.131  -0.075   0.033  -0.007
  0.405  -0.075   0.048  -0.018   0.004
 -0.179   0.033  -0.018   0.016   0.000
  0.038  -0.007   0.004   0.000   0.007


------------------------ aborting loop because EDIFF is reached ----------------------------------------


    CHARGE:  cpu time    8.5007: real time    8.5217
    FORLOC:  cpu time    2.7746: real time    2.7800
    FORNL :  cpu time   24.1213: real time   24.1772
    STRESS:  cpu time   73.5238: real time   73.6955
    FORCOR:  cpu time   28.8616: real time   28.9243
    FORHAR:  cpu time   10.0185: real time   10.0411
    MIXING:  cpu time    2.3306: real time    2.3356
    OFIELD:  cpu time    0.0000: real time    0.0000

  FORCE on cell =-STRESS in cart. coord.  units (eV):
  Direction    XX          YY          ZZ          XY          YZ          ZX
  --------------------------------------------------------------------------------------
  Alpha Z     0.04144     0.04144     0.04144
  Ewald     399.54066    39.67159   263.51585    12.66614   -10.01722  -283.36079
  Hartree   479.19043   290.52843   408.02172     6.75572    -5.34239  -148.17944
  E(xc)     -59.31113   -60.19592   -59.64680     0.03012    -0.02383    -0.69790
  Local   -1031.10994  -505.16770  -832.49501   -18.66355    14.75970   413.72473
  n-local   -25.80998   -24.37741   -25.26268    -0.03541     0.02742     1.12678
  augment     0.66327     0.99719     0.78983    -0.01196     0.00914     0.26357
  Kinetic   235.91492   257.50421   244.09975    -0.73276     0.58131    17.02513
  Fock        0.00000     0.00000     0.00000     0.00000     0.00000     0.00000
  -------------------------------------------------------------------------------------
  Total      -0.88033    -0.99816    -0.93589     0.00829    -0.00588    -0.09791
  in kB      -0.05224    -0.05923    -0.05554     0.00049    -0.00035    -0.00581
  external pressure =       -0.06 kB  Pullay stress =        0.00 kB


 VOLUME and BASIS-vectors are now :
 -----------------------------------------------------------------------------
  energy-cutoff  :      400.00
  volume of cell :    27000.00
      direct lattice vectors                 reciprocal lattice vectors
    30.000000000  0.000000000  0.000000000     0.033333333  0.000000000  0.000000000
     0.000000000 30.000000000  0.000000000     0.000000000  0.033333333  0.000000000
     0.000000000  0.000000000 30.000000000     0.000000000  0.000000000  0.033333333

  length of vectors
    30.000000000 30.000000000 30.000000000     0.033333333  0.033333333  0.033333333


 FORCES acting on ions
    electron-ion (+dipol)            ewald-force                    non-local-force                 convergence-correction
 -----------------------------------------------------------------------------------------------
   0.155E+02 0.563E+02 -.329E+02   -.160E+02 -.615E+02 0.352E+02   0.497E+00 0.517E+01 -.230E+01   -.850E-04 0.265E-03 -.278E-04
   0.619E+02 -.126E+02 0.222E+02   -.667E+02 0.138E+02 -.250E+02   0.479E+01 -.120E+01 0.280E+01   0.130E-03 -.643E-04 0.232E-03
   0.321E+01 -.405E+02 -.533E+02   -.257E+01 0.443E+02 0.575E+02   -.641E+00 -.378E+01 -.419E+01   -.143E-03 -.202E-03 -.127E-03
   0.949E+02 0.357E+01 -.750E+02   -.101E+03 -.380E+01 0.797E+02   0.594E+01 0.235E+00 -.470E+01   -.121E-02 -.353E-04 0.977E-03
   -.181E+03 -.595E+01 0.143E+03   0.202E+03 0.660E+01 -.159E+03   -.209E+02 -.645E+00 0.164E+02   0.139E-02 0.387E-04 -.108E-02
   0.134E+02 -.549E+00 -.984E+01   -.159E+02 0.579E+00 0.117E+02   0.248E+01 -.288E-01 -.187E+01   -.156E-02 -.562E-04 0.126E-02
 -----------------------------------------------------------------------------------------------
   0.783E+01 0.262E+00 -.617E+01   -.284E-13 0.000E+00 0.142E-13   -.783E+01 -.251E+00 0.617E+01   -.148E-02 -.538E-04 0.123E-02
 
 
 POSITION                                       TOTAL-FORCE (eV/Angst)
 -----------------------------------------------------------------------------------
     14.58337     13.88365     15.81014        -0.001257     -0.003835     -0.000001
     13.74970     15.11989     14.82098         0.002955     -0.001949     -0.001861
     14.80420     15.62058     16.17706         0.001875     -0.000273     -0.000425
     14.67320     14.88652     15.36955         0.006478     -0.001279     -0.004299
     16.71115     14.95946     13.76103         0.029084      0.007575     -0.025225
     15.78384     14.92995     14.49040        -0.039135     -0.000239      0.031811
 -----------------------------------------------------------------------------------
    total drift:                               -0.002914      0.011414      0.000408


--------------------------------------------------------------------------------------------------------



  FREE ENERGIE OF THE ION-ELECTRON SYSTEM (eV)
  ---------------------------------------------------
  free  energy   TOTEN  =       -35.64266082 eV

  energy  without entropy=      -35.64266082  energy(sigma->0) =      -35.64266082
 


--------------------------------------------------------------------------------------------------------


    POTLOK:  cpu time   20.5369: real time   20.5792


--------------------------------------------------------------------------------------------------------


 NEB: the previous image is higher in energy: F
 NEB: the next image is higher in energy    : F
 NEB: image is at an extrema
 NEB: diff energy (min, max):     0.000617    0.000707

 NEB: Tangent
 ----------------------------------------------
      0.09736     -0.24949     -0.21854
     -0.04783      0.16499      0.44697
      0.30464     -0.51949      0.41638
      0.09042     -0.16853      0.16325
     -0.10314      0.05676     -0.18680
     -0.01584     -0.04520     -0.03000

 NEB: forces: par spring, perp REAL, dneb     0.020268    0.064632    0.000000
 NEB: distance to prev, next image, angle between     1.070255    1.074308   32.604222
 NEB: projections on to tangent (spring, REAL)     0.020268    0.001994

 stress matrix after NEB project (eV)
     -0.88033      0.00829     -0.09791
      0.00829     -0.99816     -0.00588
     -0.09791     -0.00588     -0.93589
  FORCES: max atom, RMS     0.050327    0.027653
  FORCE total and by dimension    0.067735    0.039425
  Stress total and by dimension    1.632969    0.998162
 
 OPT: Flag T
 OPT: FIRE Step
 OPT: FIRE, TIMESTEP      0.10000
 OPT: FIRE, alpha         0.10000


--------------------------------------------------------------------------------------------------------


    WAVPRE:  cpu time    7.8158: real time    9.4350
 FEWALD executed in parallel
    FEWALD:  cpu time    0.0010: real time    0.0004
    ORTHCH:  cpu time    6.2011: real time    6.3173
     LOOP+:  cpu time 3186.4346: real time 3195.6758


----------------------------------------- Iteration    2(   1)  ---------------------------------------


    POTLOK:  cpu time   36.5554: real time   38.5896
    SETDIJ:  cpu time    0.0060: real time    0.0063
     EDDAV:  cpu time   72.2900: real time   77.0547
       DOS:  cpu time    0.0000: real time    0.0002
    CHARGE:  cpu time    5.8771: real time    6.6844
    MIXING:  cpu time    0.8909: real time    0.8924
    --------------------------------------------
      LOOP:  cpu time  115.6204: real time  123.2313

 eigenvalue-minimisations  :    96
 total energy-change (2. order) :-0.9332385E-04  (-0.2005312E-03)
 number of electron      16.0000021 magnetization 
 augmentation part        0.4495890 magnetization 

 Broyden mixing:
  rms(total) = 0.22220E-02    rms(broyden)= 0.22194E-02
  rms(prec ) = 0.22745E-02
  weight for this iteration     100.00

 Free energy of the ion-electron system (eV)
  ---------------------------------------------------
  alpha Z        PSCENC =         0.04144063
  Ewald energy   TEWEN  =       702.62621502
  -Hartree energ DENC   =     -1177.68737646
  -exchange      EXHF   =         0.00000000
  -V(xc)+E(xc)   XCENC  =        54.85762196
  PAW double counting   =      1328.31041801    -1331.17813083
  entropy T*S    EENTRO =         0.00000000
  eigenvalues    EBANDS =      -208.77824714
  atomic energy  EATOM  =       596.16534815
  Solvation  Ediel_sol  =         0.00000000
  ---------------------------------------------------
  free energy    TOTEN  =       -35.64271067 eV

  energy without entropy =      -35.64271067  energy(sigma->0) =      -35.64271067


--------------------------------------------------------------------------------------------------------




----------------------------------------- Iteration    2(   2)  ---------------------------------------


    POTLOK:  cpu time   32.5830: real time   34.5235
    SETDIJ:  cpu time    0.0070: real time    0.0074
     EDDAV:  cpu time   79.2929: real time   80.7177
       DOS:  cpu time    0.0000: real time    0.0002
    CHARGE:  cpu time    5.7591: real time    5.7726
    MIXING:  cpu time    0.9319: real time    0.9340
    --------------------------------------------
      LOOP:  cpu time  118.5750: real time  121.9695

 eigenvalue-minimisations  :    96
 total energy-change (2. order) :-0.1605529E-05  (-0.4744216E-05)
 number of electron      16.0000021 magnetization 
 augmentation part        0.4495019 magnetization 

 Broyden mixing:
  rms(total) = 0.10803E-02    rms(broyden)= 0.10799E-02
  rms(prec ) = 0.11094E-02
  weight for this iteration     100.00

 eigenvalues of (default mixing * dielectric matrix)
  average eigenvalue GAMMA=   1.2474
  1.2474

 Free energy of the ion-electron system (eV)
  ---------------------------------------------------
  alpha Z        PSCENC =         0.04144063
  Ewald energy   TEWEN  =       702.62621502
  -Hartree energ DENC   =     -1177.67871481
  -exchange      EXHF   =         0.00000000
  -V(xc)+E(xc)   XCENC  =        54.85678524
  PAW double counting   =      1327.85332886    -1330.72069533
  entropy T*S    EENTRO =         0.00000000
  eigenvalues    EBANDS =      -208.78642004
  atomic energy  EATOM  =       596.16534815
  Solvation  Ediel_sol  =         0.00000000
  ---------------------------------------------------
  free energy    TOTEN  =       -35.64271228 eV

  energy without entropy =      -35.64271228  energy(sigma->0) =      -35.64271228


--------------------------------------------------------------------------------------------------------




----------------------------------------- Iteration    2(   3)  ---------------------------------------


    POTLOK:  cpu time   34.5737: real time   34.6509
    SETDIJ:  cpu time    0.0070: real time    0.0075
     EDDAV:  cpu time   57.0863: real time   57.2490
       DOS:  cpu time    0.0000: real time    0.0002
    CHARGE:  cpu time    5.9341: real time    5.9480
    MIXING:  cpu time    1.1448: real time    1.1468
    --------------------------------------------
      LOOP:  cpu time   98.7490: real time   99.0065

 eigenvalue-minimisations  :    64
 total energy-change (2. order) :-0.6053383E-05  (-0.1560507E-05)
 number of electron      16.0000021 magnetization 
 augmentation part        0.4495134 magnetization 

 Broyden mixing:
  rms(total) = 0.44141E-03    rms(broyden)= 0.44111E-03
  rms(prec ) = 0.45027E-03
  weight for this iteration     100.00

 eigenvalues of (default mixing * dielectric matrix)
  average eigenvalue GAMMA=   1.3827
  1.2310  1.5344

 Free energy of the ion-electron system (eV)
  ---------------------------------------------------
  alpha Z        PSCENC =         0.04144063
  Ewald energy   TEWEN  =       702.62621502
  -Hartree energ DENC   =     -1177.66036101
  -exchange      EXHF   =         0.00000000
  -V(xc)+E(xc)   XCENC  =        54.85576265
  PAW double counting   =      1327.53850690    -1330.40554729
  entropy T*S    EENTRO =         0.00000000
  eigenvalues    EBANDS =      -208.80408337
  atomic energy  EATOM  =       596.16534815
  Solvation  Ediel_sol  =         0.00000000
  ---------------------------------------------------
  free energy    TOTEN  =       -35.64271833 eV

  energy without entropy =      -35.64271833  energy(sigma->0) =      -35.64271833


--------------------------------------------------------------------------------------------------------




----------------------------------------- Iteration    2(   4)  ---------------------------------------


    POTLOK:  cpu time   31.8942: real time   31.9688
    SETDIJ:  cpu time    0.0060: real time    0.0068
[...]
  ---------------------------------------------------
  free energy    TOTEN  =       -35.64291296 eV

  energy without entropy =      -35.64291296  energy(sigma->0) =      -35.64291296


--------------------------------------------------------------------------------------------------------




----------------------------------------- Iteration   74(   2)  ---------------------------------------


    POTLOK:  cpu time   20.6149: real time   20.6536
    SETDIJ:  cpu time    0.0060: real time    0.0066
     EDDAV:  cpu time   37.4213: real time   37.4948
       DOS:  cpu time    0.0000: real time    0.0002
    CHARGE:  cpu time    5.2432: real time    5.2547
    MIXING:  cpu time    0.6009: real time    0.6012
    --------------------------------------------
      LOOP:  cpu time   63.8873: real time   64.0140

 eigenvalue-minimisations  :    48
 total energy-change (2. order) :-0.3105691E-06  (-0.2456374E-06)
 number of electron      15.9999993 magnetization 
 augmentation part        0.4495228 magnetization 

 Broyden mixing:
  rms(total) = 0.14763E-03    rms(broyden)= 0.14755E-03
  rms(prec ) = 0.15136E-03
  weight for this iteration     100.00

 eigenvalues of (default mixing * dielectric matrix)
  average eigenvalue GAMMA=   1.0577
  1.0577

 Free energy of the ion-electron system (eV)
  ---------------------------------------------------
  alpha Z        PSCENC =         0.04144063
  Ewald energy   TEWEN  =       702.60694854
  -Hartree energ DENC   =     -1177.63451407
  -exchange      EXHF   =         0.00000000
  -V(xc)+E(xc)   XCENC  =        54.85456453
  PAW double counting   =      1327.01202517    -1329.87880211
  entropy T*S    EENTRO =         0.00000000
  eigenvalues    EBANDS =      -208.80992411
  atomic energy  EATOM  =       596.16534815
  Solvation  Ediel_sol  =         0.00000000
  ---------------------------------------------------
  free energy    TOTEN  =       -35.64291327 eV

  energy without entropy =      -35.64291327  energy(sigma->0) =      -35.64291327


--------------------------------------------------------------------------------------------------------




----------------------------------------- Iteration   74(   3)  ---------------------------------------


    POTLOK:  cpu time   19.9440: real time   19.9824
    SETDIJ:  cpu time    0.0060: real time    0.0064
     EDDAV:  cpu time   36.1805: real time   36.2508
       DOS:  cpu time    0.0000: real time    0.0002
    CHARGE:  cpu time    5.0712: real time    5.0818
    MIXING:  cpu time    0.6169: real time    0.6180
    --------------------------------------------
      LOOP:  cpu time   61.8196: real time   61.9457

 eigenvalue-minimisations  :    48
 total energy-change (2. order) :-0.1321827E-06  (-0.2924692E-07)
 number of electron      15.9999993 magnetization 
 augmentation part        0.4495243 magnetization 

 Broyden mixing:
  rms(total) = 0.94076E-04    rms(broyden)= 0.94062E-04
  rms(prec ) = 0.96430E-04
  weight for this iteration     100.00

 eigenvalues of (default mixing * dielectric matrix)
  average eigenvalue GAMMA=   1.6149
  1.0303  2.1994

 Free energy of the ion-electron system (eV)
  ---------------------------------------------------
  alpha Z        PSCENC =         0.04144063
  Ewald energy   TEWEN  =       702.60694854
  -Hartree energ DENC   =     -1177.63674009
  -exchange      EXHF   =         0.00000000
  -V(xc)+E(xc)   XCENC  =        54.85468623
  PAW double counting   =      1327.04852115    -1329.91533972
  entropy T*S    EENTRO =         0.00000000
  eigenvalues    EBANDS =      -208.80777828
  atomic energy  EATOM  =       596.16534815
  Solvation  Ediel_sol  =         0.00000000
  ---------------------------------------------------
  free energy    TOTEN  =       -35.64291340 eV

  energy without entropy =      -35.64291340  energy(sigma->0) =      -35.64291340


--------------------------------------------------------------------------------------------------------




----------------------------------------- Iteration   74(   4)  ---------------------------------------


    POTLOK:  cpu time   19.9560: real time   19.9942
    SETDIJ:  cpu time    0.0070: real time    0.0062
     EDDAV:  cpu time   46.0770: real time   46.1669
       DOS:  cpu time    0.0000: real time    0.0002
    CHARGE:  cpu time    5.0732: real time    5.0830
    MIXING:  cpu time    0.7039: real time    0.7058
    --------------------------------------------
      LOOP:  cpu time   71.8201: real time   71.9593

 eigenvalue-minimisations  :    72
 total energy-change (2. order) :-0.2672241E-06  (-0.2178952E-07)
 number of electron      15.9999993 magnetization 
 augmentation part        0.4495193 magnetization 

 Broyden mixing:
  rms(total) = 0.29727E-04    rms(broyden)= 0.29711E-04
  rms(prec ) = 0.30978E-04
  weight for this iteration     100.00

 eigenvalues of (default mixing * dielectric matrix)
  average eigenvalue GAMMA=   1.3632
  2.1415  0.9741  0.9741

 Free energy of the ion-electron system (eV)
  ---------------------------------------------------
  alpha Z        PSCENC =         0.04144063
  Ewald energy   TEWEN  =       702.60694854
  -Hartree energ DENC   =     -1177.63980815
  -exchange      EXHF   =         0.00000000
  -V(xc)+E(xc)   XCENC  =        54.85484285
  PAW double counting   =      1327.10415547    -1329.97102203
  entropy T*S    EENTRO =         0.00000000
  eigenvalues    EBANDS =      -208.80481913
  atomic energy  EATOM  =       596.16534815
  Solvation  Ediel_sol  =         0.00000000
  ---------------------------------------------------
  free energy    TOTEN  =       -35.64291367 eV

  energy without entropy =      -35.64291367  energy(sigma->0) =      -35.64291367


--------------------------------------------------------------------------------------------------------




----------------------------------------- Iteration   74(   5)  ---------------------------------------


    POTLOK:  cpu time   22.8635: real time   22.9085
    SETDIJ:  cpu time    0.0060: real time    0.0063
     EDDAV:  cpu time   34.8577: real time   34.9251
       DOS:  cpu time    0.0000: real time    0.0002
    CHARGE:  cpu time    5.0782: real time    5.0880
    MIXING:  cpu time    0.6599: real time    0.6613
    --------------------------------------------
      LOOP:  cpu time   63.4664: real time   63.5938

 eigenvalue-minimisations  :    48
 total energy-change (2. order) :-0.8267421E-07  (-0.8224563E-08)
 number of electron      15.9999993 magnetization 
 augmentation part        0.4495192 magnetization 

 Broyden mixing:
  rms(total) = 0.23289E-04    rms(broyden)= 0.23281E-04
  rms(prec ) = 0.24258E-04
  weight for this iteration     100.00

 eigenvalues of (default mixing * dielectric matrix)
  average eigenvalue GAMMA=   1.3238
  2.0636  1.2529  1.2529  0.7259

 Free energy of the ion-electron system (eV)
  ---------------------------------------------------
  alpha Z        PSCENC =         0.04144063
  Ewald energy   TEWEN  =       702.60694854
  -Hartree energ DENC   =     -1177.63935351
  -exchange      EXHF   =         0.00000000
  -V(xc)+E(xc)   XCENC  =        54.85481858
  PAW double counting   =      1327.10749005    -1329.97435005
  entropy T*S    EENTRO =         0.00000000
  eigenvalues    EBANDS =      -208.80525614
  atomic energy  EATOM  =       596.16534815
  Solvation  Ediel_sol  =         0.00000000
  ---------------------------------------------------
  free energy    TOTEN  =       -35.64291375 eV

  energy without entropy =      -35.64291375  energy(sigma->0) =      -35.64291375


--------------------------------------------------------------------------------------------------------




----------------------------------------- Iteration   74(   6)  ---------------------------------------


    POTLOK:  cpu time   23.0745: real time   23.1205
    SETDIJ:  cpu time    0.0070: real time    0.0063
     EDDAV:  cpu time   34.7867: real time   34.8540
       DOS:  cpu time    0.0000: real time    0.0002
    --------------------------------------------
      LOOP:  cpu time   57.8692: real time   57.9850

 eigenvalue-minimisations  :    48
 total energy-change (2. order) :-0.9583187E-07  (-0.4868046E-08)
 number of electron      15.9999993 magnetization 
 augmentation part        0.4495192 magnetization 

 Free energy of the ion-electron system (eV)
  ---------------------------------------------------
  alpha Z        PSCENC =         0.04144063
  Ewald energy   TEWEN  =       702.60694854
  -Hartree energ DENC   =     -1177.63905905
  -exchange      EXHF   =         0.00000000
  -V(xc)+E(xc)   XCENC  =        54.85480065
  PAW double counting   =      1327.11082660    -1329.97768160
  entropy T*S    EENTRO =         0.00000000
  eigenvalues    EBANDS =      -208.80553777
  atomic energy  EATOM  =       596.16534815
  Solvation  Ediel_sol  =         0.00000000
  ---------------------------------------------------
  free energy    TOTEN  =       -35.64291385 eV

  energy without entropy =      -35.64291385  energy(sigma->0) =      -35.64291385


--------------------------------------------------------------------------------------------------------




 average (electrostatic) potential at core
  the test charge radii are     0.5201  0.6991  0.7089
  (the norm of the test charge is              1.0000)
       1 -43.0792       2 -43.0771       3 -43.0772       4 -60.5349       5 -59.3508
       6 -74.8316
 
 
 
 E-fermi :  -6.1616     XC(G=0):  -0.0594     alpha+bet : -0.0137


 k-point     1 :       0.2500    0.2500    0.2500
  band No.  band energies     occupation 
      1     -23.8854      2.00000
      2     -19.2961      2.00000
      3     -13.8841      2.00000
      4     -11.7975      2.00000
      5     -11.7937      2.00000
      6      -8.3001      2.00000
      7      -8.2993      2.00000
      8      -7.1466      2.00000
      9      -0.7607      0.00000
     10      -0.6673      0.00000
     11      -0.6660      0.00000
     12       0.0251      0.00000

 k-point     2 :      -0.2500    0.2500    0.2500
  band No.  band energies     occupation 
      1     -23.8854      2.00000
      2     -19.2961      2.00000
      3     -13.8841      2.00000
      4     -11.7975      2.00000
      5     -11.7937      2.00000
      6      -8.3001      2.00000
      7      -8.2993      2.00000
      8      -7.1466      2.00000
      9      -0.7607      0.00000
     10      -0.6673      0.00000
     11      -0.6660      0.00000
     12       0.0248      0.00000

 k-point     3 :       0.2500   -0.2500    0.2500
  band No.  band energies     occupation 
      1     -23.8854      2.00000
      2     -19.2961      2.00000
      3     -13.8841      2.00000
      4     -11.7975      2.00000
      5     -11.7937      2.00000
      6      -8.3001      2.00000
      7      -8.2992      2.00000
      8      -7.1466      2.00000
      9      -0.7607      0.00000
     10      -0.6673      0.00000
     11      -0.6660      0.00000
     12       0.0251      0.00000

 k-point     4 :      -0.2500   -0.2500    0.2500
  band No.  band energies     occupation 
      1     -23.8854      2.00000
      2     -19.2961      2.00000
      3     -13.8841      2.00000
      4     -11.7975      2.00000
      5     -11.7937      2.00000
      6      -8.3001      2.00000
      7      -8.2993      2.00000
      8      -7.1466      2.00000
      9      -0.7607      0.00000
     10      -0.6673      0.00000
     11      -0.6660      0.00000
     12       0.0247      0.00000


--------------------------------------------------------------------------------------------------------


 soft charge-density along one line, spin component           1
         0         1         2         3         4         5         6         7         8         9
 total charge-density along one line
 
 pseudopotential strength for first ion, spin component:           1
 -2.363  -4.075  -0.002   0.001   0.000
 -4.075  -6.942  -0.005   0.002  -0.001
 -0.002  -0.005  -0.330  -0.002   0.000
  0.001   0.002  -0.002  -0.333   0.000
  0.000  -0.001   0.000   0.000  -0.334
 total augmentation occupancy for first ion, spin component:           1
  3.521  -0.634   0.413  -0.158   0.041
 -0.634   0.131  -0.076   0.029  -0.007
  0.413  -0.076   0.050  -0.016   0.005
 -0.158   0.029  -0.016   0.014   0.000
  0.041  -0.007   0.005   0.000   0.007


------------------------ aborting loop because EDIFF is reached ----------------------------------------


    CHARGE:  cpu time    5.2612: real time    5.2718
    FORLOC:  cpu time    2.3326: real time    2.3368
    FORNL :  cpu time   16.8004: real time   16.8352
    STRESS:  cpu time   51.2392: real time   51.3382
    FORCOR:  cpu time   20.6259: real time   20.6668
    FORHAR:  cpu time    7.2879: real time    7.3010
    MIXING:  cpu time    0.7439: real time    0.7445
    OFIELD:  cpu time    0.0000: real time    0.0000

  FORCE on cell =-STRESS in cart. coord.  units (eV):
  Direction    XX          YY          ZZ          XY          YZ          ZX
  --------------------------------------------------------------------------------------
  Alpha Z     0.04144     0.04144     0.04144
  Ewald     389.74242    40.67826   272.18596    22.21244   -18.17887  -284.86924
  Hartree   474.06306   291.02554   412.55063    11.76309    -9.61800  -148.98464
  E(xc)     -59.32958   -60.18812   -59.61989     0.05350    -0.04387    -0.70203
  Local   -1016.83640  -506.59531  -845.16722   -32.62489    26.68713   415.97768
  n-local   -25.75733   -24.36890   -25.28151    -0.07483     0.05844     1.13082
  augment     0.67385     0.99894     0.78227    -0.02059     0.01677     0.26341
  Kinetic   236.46451   257.40870   243.54400    -1.29783     1.07210    17.12612
  Fock        0.00000     0.00000     0.00000     0.00000     0.00000     0.00000
  -------------------------------------------------------------------------------------
  Total      -0.93805    -0.99944    -0.96432     0.01089    -0.00631    -0.05788
  in kB      -0.05566    -0.05931    -0.05722     0.00065    -0.00037    -0.00343
  external pressure =       -0.06 kB  Pullay stress =        0.00 kB


 VOLUME and BASIS-vectors are now :
 -----------------------------------------------------------------------------
  energy-cutoff  :      400.00
  volume of cell :    27000.00
      direct lattice vectors                 reciprocal lattice vectors
    30.000000000  0.000000000  0.000000000     0.033333333  0.000000000  0.000000000
     0.000000000 30.000000000  0.000000000     0.000000000  0.033333333  0.000000000
     0.000000000  0.000000000 30.000000000     0.000000000  0.000000000  0.033333333

  length of vectors
    30.000000000 30.000000000 30.000000000     0.033333333  0.033333333  0.033333333


 FORCES acting on ions
    electron-ion (+dipol)            ewald-force                    non-local-force                 convergence-correction
 -----------------------------------------------------------------------------------------------
   0.158E+02 0.577E+02 -.301E+02   -.163E+02 -.630E+02 0.322E+02   0.532E+00 0.528E+01 -.203E+01   0.566E-05 -.328E-04 0.849E-05
   0.621E+02 -.147E+02 0.204E+02   -.669E+02 0.161E+02 -.230E+02   0.482E+01 -.142E+01 0.264E+01   -.151E-04 -.226E-05 -.126E-04
   0.168E+01 -.376E+02 -.554E+02   -.911E+00 0.412E+02 0.598E+02   -.770E+00 -.354E+01 -.437E+01   0.992E-05 0.874E-05 0.196E-04
   0.937E+02 0.623E+01 -.765E+02   -.995E+02 -.663E+01 0.812E+02   0.586E+01 0.400E+00 -.478E+01   0.357E-04 -.318E-04 -.106E-04
   -.178E+03 -.109E+02 0.145E+03   0.199E+03 0.121E+02 -.162E+03   -.206E+02 -.122E+01 0.168E+02   0.128E-03 -.429E-04 -.778E-04
   0.129E+02 -.269E+00 -.991E+01   -.153E+02 0.244E+00 0.118E+02   0.243E+01 0.310E-01 -.191E+01   0.314E-03 -.359E-04 -.227E-03
 -----------------------------------------------------------------------------------------------
   0.775E+01 0.478E+00 -.631E+01   0.000E+00 0.355E-14 -.142E-13   -.775E+01 -.472E+00 0.631E+01   0.478E-03 -.137E-03 -.300E-03
 
 
 POSITION                                       TOTAL-FORCE (eV/Angst)
 -----------------------------------------------------------------------------------
     14.58898     13.83437     15.77766        -0.005581     -0.001876      0.002071
     13.75660     15.13373     14.87101         0.002808     -0.004072     -0.001055
     14.84188     15.54625     16.23195         0.002050     -0.000619     -0.000756
     14.68600     14.85799     15.38919        -0.006524     -0.002751      0.007563
     16.69659     14.98723     13.74950        -0.048975      0.003466      0.038197
     15.78118     14.93232     14.49387         0.056222      0.005852     -0.046020
 -----------------------------------------------------------------------------------
    total drift:                                0.001112      0.005701     -0.003021


--------------------------------------------------------------------------------------------------------



  FREE ENERGIE OF THE ION-ELECTRON SYSTEM (eV)
  ---------------------------------------------------
  free  energy   TOTEN  =       -35.64291385 eV

  energy  without entropy=      -35.64291385  energy(sigma->0) =      -35.64291385
 
 d Force = 0.1043368E-04[ 0.935E-05, 0.115E-04]  d Energy = 0.1139524E-04-0.962E-06
 d Force =-0.1593258E-01[-0.159E-01,-0.159E-01]  d Ewald  =-0.1593258E-01-0.172E-09


--------------------------------------------------------------------------------------------------------


    POTLOK:  cpu time   19.8020: real time   19.8936


--------------------------------------------------------------------------------------------------------


 NEB: the previous image is higher in energy: F
 NEB: the next image is higher in energy    : F
 NEB: image is at an extrema
 NEB: diff energy (min, max):     0.000469    0.000479

 NEB: Tangent
 ----------------------------------------------
      0.08862     -0.30000     -0.31573
     -0.00764      0.14176      0.35653
      0.19269     -0.60086      0.40645
      0.07670     -0.20219      0.13035
     -0.02773      0.15226     -0.00080
      0.02100     -0.01062      0.05977

 NEB: forces: par spring, perp REAL, dneb     0.022828    0.096745    0.000000
 NEB: distance to prev, next image, angle between     1.095367    1.099933   32.387020
 NEB: projections on to tangent (spring, REAL)     0.022828    0.000164

 stress matrix after NEB project (eV)
     -0.93805      0.01089     -0.05788
      0.01089     -0.99944     -0.00631
     -0.05788     -0.00631     -0.96432
  FORCES: max atom, RMS     0.072396    0.040581
  FORCE total and by dimension    0.099402    0.056698
  Stress total and by dimension    1.678018    0.999442
 OPT: skip step - force has converged


--------------------------------------------------------------------------------------------------------


  
 reached required accuracy - stopping structural energy minimisation
     LOOP+:  cpu time  580.0478: real time  581.2507
    4ORBIT:  cpu time    0.0000: real time    0.0000

 total amount of memory used by VASP on root node  3203887. kBytes
========================================================================

   base      :      30000. kBytes
   nonlr-proj:        691. kBytes
   fftplans  :     924480. kBytes
   grid      :    1872000. kBytes
   one-center:         18. kBytes
   wavefun   :     376698. kBytes
 
  
  
 General timing and accounting informations for this job:
 ========================================================
  
                  Total CPU time used (sec):    49647.203
                            User time (sec):    48969.790
                          System time (sec):      677.411
                         Elapsed time (sec):    49851.790
  
                   Maximum memory used (kb):     4763068.
                   Average memory used (kb):           0.
  
                          Minor page faults:      6164189
                          Major page faults:            1
                 Voluntary context switches:         8957
