 vasp.5.4.1 24Jun15 (build Jan 13 2020 12:58:22) complex                        
  
 POSCAR found type information on POSCAR  H  C  N 
 02/POSCAR found :  3 types and       6 ions
 scaLAPACK will be used

 ----------------------------------------------------------------------------- 
|                                                                             |
|  ADVICE TO THIS USER RUNNING 'VASP/VAMP'   (HEAR YOUR MASTER'S VOICE ...):  |
|                                                                             |
|      You have a (more or less) 'small supercell' and for smaller cells      |
|      it is recommended  to use the reciprocal-space projection scheme!      |
|      The real space optimization is not  efficient for small cells and it   |
|      is also less accurate ...                                              |
|      Therefore set LREAL=.FALSE. in the  INCAR file                         |
|                                                                             |
 ----------------------------------------------------------------------------- 

 LDA part: xc-table for Pade appr. of Perdew
 POSCAR found type information on POSCAR  H  C  N 
 00/POSCAR found :  3 types and       6 ions
 POSCAR found type information on POSCAR  H  C  N 
 16/POSCAR found :  3 types and       6 ions
 Jacobian:    40.4401846379183     
 POSCAR, INCAR and KPOINTS ok, starting setup
 WARNING: small aliasing (wrap around) errors must be expected
 FFT: planning ...
 WAVECAR not read
 entering main loop
       N       E                     dE             d eps       ncg     rms          rms(c)
DAV:   1     0.112322004249E+03    0.11232E+03   -0.21526E+03   160   0.366E+02
DAV:   2    -0.272858493482E+01   -0.11505E+03   -0.11179E+03   192   0.108E+02
DAV:   3    -0.346131246215E+02   -0.31885E+02   -0.31798E+02   128   0.843E+01
DAV:   4    -0.389375245376E+02   -0.43244E+01   -0.42815E+01   128   0.302E+01
DAV:   5    -0.390993832332E+02   -0.16186E+00   -0.15980E+00   132   0.591E+00    0.104E+01
DAV:   6    -0.364096470806E+02    0.26897E+01   -0.45568E+00   124   0.147E+01    0.563E+00
DAV:   7    -0.357095264099E+02    0.70012E+00   -0.17981E+00   124   0.923E+00    0.224E+00
DAV:   8    -0.356383891332E+02    0.71137E-01   -0.14421E-01   128   0.289E+00    0.883E-01
DAV:   9    -0.356196295940E+02    0.18760E-01   -0.21079E-02   128   0.123E+00    0.217E-01
DAV:  10    -0.356192950523E+02    0.33454E-03   -0.42573E-03   128   0.516E-01    0.131E-01
DAV:  11    -0.356209541233E+02   -0.16591E-02   -0.17690E-03   128   0.346E-01    0.805E-02
DAV:  12    -0.356265305980E+02   -0.55765E-02   -0.29973E-03   124   0.415E-01    0.457E-02
DAV:  13    -0.356324971633E+02   -0.59666E-02   -0.16106E-03   128   0.246E-01    0.285E-02
DAV:  14    -0.356366678249E+02   -0.41707E-02   -0.51904E-04   128   0.121E-01    0.184E-02
DAV:  15    -0.356399272837E+02   -0.32595E-02   -0.34674E-04   128   0.861E-02    0.113E-02
DAV:  16    -0.356412331128E+02   -0.13058E-02   -0.11414E-04   128   0.526E-02    0.648E-03
DAV:  17    -0.356420566114E+02   -0.82350E-03   -0.27777E-05    80   0.371E-02    0.412E-03
DAV:  18    -0.356424019348E+02   -0.34532E-03   -0.24807E-05    80   0.237E-02    0.266E-03
DAV:  19    -0.356426173510E+02   -0.21542E-03   -0.92596E-06    72   0.205E-02    0.266E-03
DAV:  20    -0.356426608216E+02   -0.43471E-04   -0.25518E-06    96   0.119E-02
   1 F= -.35642661E+02 E0= -.35642661E+02  d E =-.356427E+02
damped:  g(F)=  0.000E+00 g(S)=  0.000E+00 dE (1.order)= 0.000E+00
 bond charge predicted
       N       E                     dE             d eps       ncg     rms          rms(c)
DAV:   1    -0.356427106749E+02   -0.93324E-04   -0.20053E-03    96   0.425E-01    0.222E-02
DAV:   2    -0.356427122804E+02   -0.16055E-05   -0.47442E-05    96   0.681E-02    0.108E-02
DAV:   3    -0.356427183338E+02   -0.60534E-05   -0.15605E-05    64   0.393E-02    0.441E-03
DAV:   4    -0.356427257143E+02   -0.73805E-05   -0.59558E-06    64   0.234E-02    0.159E-03
DAV:   5    -0.356427309425E+02   -0.52282E-05   -0.12509E-06    72   0.104E-02    0.800E-04
DAV:   6    -0.356427342409E+02   -0.32985E-05   -0.21380E-07    64   0.459E-03
   2 F= -.35642734E+02 E0= -.35642734E+02  d E =-.734194E-04
damped:  g(F)=  0.000E+00 g(S)=  0.000E+00 dE (1.order)= 0.000E+00
 bond charge predicted
       N       E                     dE             d eps       ncg     rms          rms(c)
DAV:   1    -0.356427497013E+02   -0.18759E-04   -0.18606E-04    64   0.133E-01    0.614E-03
DAV:   2    -0.356427519352E+02   -0.22340E-05   -0.11268E-05    76   0.327E-02    0.316E-03
DAV:   3    -0.356427532371E+02   -0.13019E-05   -0.12104E-06    56   0.108E-02    0.204E-03
DAV:   4    -0.356427556255E+02   -0.23884E-05   -0.85158E-07    80   0.992E-03    0.631E-04
DAV:   5    -0.356427562159E+02   -0.59045E-06   -0.22490E-07    48   0.467E-03    0.496E-04
DAV:   6    -0.356427568056E+02   -0.58972E-06   -0.53846E-08    48   0.203E-03
   3 F= -.35642757E+02 E0= -.35642757E+02  d E =-.225647E-04
damped:  g(F)=  0.000E+00 g(S)=  0.000E+00 dE (1.order)= 0.000E+00
 bond charge predicted
       N       E                     dE             d eps       ncg     rms          rms(c)
DAV:   1    -0.356427601916E+02   -0.39757E-05   -0.39613E-04   112   0.189E-01    0.990E-03
DAV:   2    -0.356427596599E+02    0.53176E-06   -0.97398E-06    80   0.302E-02    0.470E-03
DAV:   3    -0.356427598455E+02   -0.18563E-06   -0.26992E-06    80   0.163E-02    0.203E-03
DAV:   4    -0.356427603165E+02   -0.47095E-06   -0.12511E-06    80   0.105E-02    0.739E-04
DAV:   5    -0.356427605265E+02   -0.21000E-06   -0.25073E-07    56   0.475E-03    0.383E-04
DAV:   6    -0.356427606615E+02   -0.13502E-06   -0.63505E-08    64   0.207E-03
   4 F= -.35642761E+02 E0= -.35642761E+02  d E =-.385584E-05
damped:  g(F)=  0.000E+00 g(S)=  0.000E+00 dE (1.order)= 0.000E+00
 bond charge predicted
       N       E                     dE             d eps       ncg     rms          rms(c)
DAV:   1    -0.356427613865E+02   -0.86003E-06   -0.19504E-06    48   0.137E-02    0.577E-04
DAV:   2    -0.356427614530E+02   -0.66497E-07   -0.14442E-07    48   0.339E-03    0.320E-04
DAV:   3    -0.356427615137E+02   -0.60683E-07   -0.38132E-08    48   0.113E-03    0.206E-04
DAV:   4    -0.356427616263E+02   -0.11260E-06   -0.34846E-08    64   0.944E-04    0.619E-05
DAV:   5    -0.356427616570E+02   -0.30697E-07   -0.29554E-08    48   0.430E-04    0.544E-05
DAV:   6    -0.356427616965E+02   -0.39521E-07   -0.29228E-08    48   0.223E-04
   5 F= -.35642762E+02 E0= -.35642762E+02  d E =-.103501E-05
damped:  g(F)=  0.000E+00 g(S)=  0.000E+00 dE (1.order)= 0.000E+00
 bond charge predicted
       N       E                     dE             d eps       ncg     rms          rms(c)
DAV:   1    -0.356427626164E+02   -0.95941E-06   -0.70099E-06    48   0.260E-02    0.105E-03
DAV:   2    -0.356427626458E+02   -0.29421E-07   -0.47042E-07    48   0.648E-03    0.588E-04
DAV:   3    -0.356427626608E+02   -0.15052E-07   -0.83581E-08    48   0.214E-03    0.388E-04
DAV:   4    -0.356427627005E+02   -0.39665E-07   -0.67188E-08    56   0.188E-03    0.112E-04
DAV:   5    -0.356427627152E+02   -0.14698E-07   -0.46954E-08    48   0.879E-04    0.104E-04
DAV:   6    -0.356427627281E+02   -0.12886E-07   -0.41179E-08    48   0.390E-04
   6 F= -.35642763E+02 E0= -.35642763E+02  d E =-.103161E-05
damped:  g(F)=  0.000E+00 g(S)=  0.000E+00 dE (1.order)= 0.000E+00
 bond charge predicted
       N       E                     dE             d eps       ncg     rms          rms(c)
DAV:   1    -0.356427634295E+02   -0.71433E-06   -0.13014E-05    56   0.355E-02    0.135E-03
DAV:   2    -0.356427634579E+02   -0.28342E-07   -0.85467E-07    48   0.886E-03    0.783E-04
DAV:   3    -0.356427634563E+02    0.16157E-08   -0.13861E-07    48   0.293E-03    0.524E-04
DAV:   4    -0.356427634659E+02   -0.96732E-08   -0.10008E-07    56   0.251E-03    0.148E-04
DAV:   5    -0.356427634735E+02   -0.75463E-08   -0.63293E-08    48   0.117E-03    0.140E-04
DAV:   6    -0.356427634799E+02   -0.64233E-08   -0.51681E-08    48   0.521E-04
   7 F= -.35642763E+02 E0= -.35642763E+02  d E =-.751815E-06
damped:  g(F)=  0.000E+00 g(S)=  0.000E+00 dE (1.order)= 0.000E+00
 bond charge predicted
       N       E                     dE             d eps       ncg     rms          rms(c)
DAV:   1    -0.356427636743E+02   -0.20077E-06   -0.18100E-05    48   0.417E-02    0.144E-03
DAV:   2    -0.356427637168E+02   -0.42585E-07   -0.11567E-06    48   0.104E-02    0.876E-04
DAV:   3    -0.356427637109E+02    0.59940E-08   -0.18066E-07    48   0.341E-03    0.596E-04
DAV:   4    -0.356427637089E+02    0.19040E-08   -0.11619E-07    48   0.277E-03    0.160E-04
DAV:   5    -0.356427637136E+02   -0.46982E-08   -0.70590E-08    48   0.127E-03    0.156E-04
DAV:   6    -0.356427637174E+02   -0.37146E-08   -0.55567E-08    48   0.572E-04
   8 F= -.35642764E+02 E0= -.35642764E+02  d E =-.237446E-06
damped:  g(F)=  0.000E+00 g(S)=  0.000E+00 dE (1.order)= 0.000E+00
 bond charge predicted
       N       E                     dE             d eps       ncg     rms          rms(c)
DAV:   1    -0.356427634663E+02    0.24739E-06   -0.22866E-05    48   0.460E-02    0.140E-03
DAV:   2    -0.356427635410E+02   -0.74776E-07   -0.13961E-06    48   0.114E-02    0.895E-04
DAV:   3    -0.356427635419E+02   -0.87789E-09   -0.21301E-07    48   0.371E-03    0.614E-04
DAV:   4    -0.356427635425E+02   -0.54638E-09   -0.11558E-07    48   0.267E-03    0.149E-04
DAV:   5    -0.356427635476E+02   -0.51311E-08   -0.71064E-08    48   0.120E-03    0.151E-04
DAV:   6    -0.356427635512E+02   -0.36059E-08   -0.56770E-08    48   0.546E-04
   9 F= -.35642764E+02 E0= -.35642764E+02  d E =0.166164E-06
damped:  g(F)=  0.000E+00 g(S)=  0.000E+00 dE (1.order)= 0.000E+00
 bond charge predicted
       N       E                     dE             d eps       ncg     rms          rms(c)
DAV:   1    -0.356427631664E+02    0.38124E-06   -0.30434E-05    48   0.515E-02    0.146E-03
DAV:   2    -0.356427632913E+02   -0.12496E-06   -0.17438E-06    48   0.127E-02    0.922E-04
DAV:   3    -0.356427633061E+02   -0.14779E-07   -0.25689E-07    48   0.405E-03    0.580E-04
DAV:   4    -0.356427633123E+02   -0.62357E-08   -0.11078E-07    48   0.235E-03    0.128E-04
DAV:   5    -0.356427633186E+02   -0.62839E-08   -0.69967E-08    48   0.106E-03    0.133E-04
DAV:   6    -0.356427633225E+02   -0.38931E-08   -0.57791E-08    48   0.519E-04
  10 F= -.35642763E+02 E0= -.35642763E+02  d E =0.228687E-06
damped:  g(F)=  0.000E+00 g(S)=  0.000E+00 dE (1.order)= 0.000E+00
 bond charge predicted
       N       E                     dE             d eps       ncg     rms          rms(c)
DAV:   1    -0.356427631012E+02    0.21740E-06   -0.53329E-05    48   0.666E-02    0.191E-03
DAV:   2    -0.356427633415E+02   -0.24026E-06   -0.28758E-06    48   0.162E-02    0.114E-03
DAV:   3    -0.356427633835E+02   -0.42072E-07   -0.38863E-07    48   0.508E-03    0.592E-04
DAV:   4    -0.356427633921E+02   -0.85679E-08   -0.13117E-07    48   0.247E-03    0.116E-04
DAV:   5    -0.356427633999E+02   -0.77607E-08   -0.76714E-08    48   0.116E-03    0.111E-04
DAV:   6    -0.356427634037E+02   -0.38547E-08   -0.60821E-08    48   0.623E-04
  11 F= -.35642763E+02 E0= -.35642763E+02  d E =-.812129E-07
damped:  g(F)=  0.000E+00 g(S)=  0.000E+00 dE (1.order)= 0.000E+00
 bond charge predicted
       N       E                     dE             d eps       ncg     rms          rms(c)
DAV:   1    -0.356427634586E+02   -0.58693E-07   -0.97902E-05    48   0.903E-02    0.260E-03
DAV:   2    -0.356427639114E+02   -0.45286E-06   -0.52437E-06    48   0.221E-02    0.155E-03
DAV:   3    -0.356427639923E+02   -0.80870E-07   -0.67158E-07    48   0.690E-03    0.817E-04
DAV:   4    -0.356427640051E+02   -0.12777E-07   -0.19703E-07    48   0.333E-03    0.162E-04
DAV:   5    -0.356427640146E+02   -0.95700E-08   -0.95108E-08    48   0.155E-03    0.153E-04
DAV:   6    -0.356427640193E+02   -0.47032E-08   -0.66442E-08    48   0.841E-04
  12 F= -.35642764E+02 E0= -.35642764E+02  d E =-.615620E-06
damped:  g(F)=  0.000E+00 g(S)=  0.000E+00 dE (1.order)= 0.000E+00
 bond charge predicted
       N       E                     dE             d eps       ncg     rms          rms(c)
DAV:   1    -0.356427647936E+02   -0.77893E-06   -0.18564E-04    80   0.122E-01    0.376E-03
DAV:   2    -0.356427647887E+02    0.48819E-08   -0.17668E-06    48   0.125E-02    0.232E-03
DAV:   3    -0.356427648359E+02   -0.47252E-07   -0.37480E-07    48   0.542E-03    0.552E-04
DAV:   4    -0.356427648452E+02   -0.92441E-08   -0.13098E-07    48   0.236E-03    0.271E-04
DAV:   5    -0.356427648474E+02   -0.22326E-08   -0.69844E-08    48   0.107E-03    0.142E-04
DAV:   6    -0.356427648536E+02   -0.61955E-08   -0.61454E-08    48   0.725E-04
  13 F= -.35642765E+02 E0= -.35642765E+02  d E =-.834270E-06
damped:  g(F)=  0.000E+00 g(S)=  0.000E+00 dE (1.order)= 0.000E+00
 bond charge predicted
       N       E                     dE             d eps       ncg     rms          rms(c)
DAV:   1    -0.356427651328E+02   -0.28541E-06   -0.31262E-04    96   0.158E-01    0.490E-03
DAV:   2    -0.356427651122E+02    0.20642E-07   -0.28859E-06    64   0.161E-02    0.303E-03
DAV:   3    -0.356427651812E+02   -0.68962E-07   -0.58949E-07    48   0.702E-03    0.701E-04
DAV:   4    -0.356427651961E+02   -0.14978E-07   -0.18013E-07    48   0.303E-03    0.357E-04
DAV:   5    -0.356427652010E+02   -0.48967E-08   -0.78943E-08    48   0.137E-03    0.190E-04
DAV:   6    -0.356427652146E+02   -0.13554E-07   -0.66357E-08    48   0.954E-04
  14 F= -.35642765E+02 E0= -.35642765E+02  d E =-.360967E-06
damped:  g(F)=  0.000E+00 g(S)=  0.000E+00 dE (1.order)= 0.000E+00
 bond charge predicted
       N       E                     dE             d eps       ncg     rms          rms(c)
DAV:   1    -0.356427650754E+02    0.12561E-06   -0.49654E-04    96   0.198E-01    0.613E-03
DAV:   2    -0.356427650559E+02    0.19521E-07   -0.41169E-06    48   0.193E-02    0.377E-03
DAV:   3    -0.356427651811E+02   -0.12524E-06   -0.81143E-07    48   0.820E-03    0.598E-04
DAV:   4    -0.356427652008E+02   -0.19697E-07   -0.20939E-07    48   0.331E-03    0.348E-04
DAV:   5    -0.356427652129E+02   -0.12085E-07   -0.88505E-08    48   0.154E-03    0.176E-04
DAV:   6    -0.356427652356E+02   -0.22690E-07   -0.67665E-08    48   0.981E-04
  15 F= -.35642765E+02 E0= -.35642765E+02  d E =-.210256E-07
damped:  g(F)=  0.000E+00 g(S)=  0.000E+00 dE (1.order)= 0.000E+00
 bond charge predicted
       N       E                     dE             d eps       ncg     rms          rms(c)
DAV:   1    -0.356427658622E+02   -0.64930E-06   -0.78618E-04    96   0.249E-01    0.768E-03
DAV:   2    -0.356427658477E+02    0.14508E-07   -0.62242E-06    48   0.236E-02    0.471E-03
DAV:   3    -0.356427660380E+02   -0.19031E-06   -0.11694E-06    60   0.982E-03    0.590E-04
DAV:   4    -0.356427660693E+02   -0.31287E-07   -0.26955E-07    48   0.384E-03    0.327E-04
DAV:   5    -0.356427660943E+02   -0.24964E-07   -0.10648E-07    48   0.182E-03    0.121E-04
DAV:   6    -0.356427661248E+02   -0.30501E-07   -0.70485E-08    48   0.101E-03
  16 F= -.35642766E+02 E0= -.35642766E+02  d E =-.889164E-06
damped:  g(F)=  0.000E+00 g(S)=  0.000E+00 dE (1.order)= 0.000E+00
 bond charge predicted
       N       E                     dE             d eps       ncg     rms          rms(c)
DAV:   1    -0.356427672963E+02   -0.12021E-05   -0.12559E-03    96   0.315E-01    0.972E-03
DAV:   2    -0.356427672829E+02    0.13423E-07   -0.10420E-05    64   0.306E-02    0.599E-03
DAV:   3    -0.356427675363E+02   -0.25334E-06   -0.19324E-06    64   0.130E-02    0.959E-04
DAV:   4    -0.356427675941E+02   -0.57838E-07   -0.44971E-07    48   0.528E-03    0.538E-04
DAV:   5    -0.356427676275E+02   -0.33361E-07   -0.14245E-07    48   0.244E-03    0.285E-04
DAV:   6    -0.356427676804E+02   -0.52949E-07   -0.87228E-08    48   0.150E-03
  17 F= -.35642768E+02 E0= -.35642768E+02  d E =-.155564E-05
damped:  g(F)=  0.000E+00 g(S)=  0.000E+00 dE (1.order)= 0.000E+00
 bond charge predicted
       N       E                     dE             d eps       ncg     rms          rms(c)
DAV:   1    -0.356427680444E+02   -0.41691E-06   -0.19389E-03    96   0.391E-01    0.121E-02
DAV:   2    -0.356427680593E+02   -0.14932E-07   -0.15737E-05    64   0.376E-02    0.742E-03
DAV:   3    -0.356427684759E+02   -0.41662E-06   -0.28822E-06    64   0.158E-02    0.108E-03
DAV:   4    -0.356427685617E+02   -0.85769E-07   -0.63251E-07    48   0.634E-03    0.613E-04
DAV:   5    -0.356427686162E+02   -0.54471E-07   -0.19093E-07    48   0.296E-03    0.299E-04
DAV:   6    -0.356427686913E+02   -0.75110E-07   -0.10269E-07    48   0.174E-03
  18 F= -.35642769E+02 E0= -.35642769E+02  d E =-.101087E-05
damped:  g(F)=  0.000E+00 g(S)=  0.000E+00 dE (1.order)= 0.000E+00
 bond charge predicted
       N       E                     dE             d eps       ncg     rms          rms(c)
DAV:   1    -0.356427696456E+02   -0.10294E-05   -0.29197E-03    96   0.480E-01    0.148E-02
DAV:   2    -0.356427697352E+02   -0.89570E-07   -0.22960E-05    64   0.456E-02    0.907E-03
DAV:   3    -0.356427704571E+02   -0.72197E-06   -0.42134E-06    64   0.189E-02    0.117E-03
DAV:   4    -0.356427705731E+02   -0.11601E-06   -0.87319E-07    48   0.745E-03    0.659E-04
DAV:   5    -0.356427706538E+02   -0.80647E-07   -0.26113E-07    48   0.357E-03    0.237E-04
DAV:   6    -0.356427707400E+02   -0.86224E-07   -0.12499E-07    48   0.202E-03
  19 F= -.35642771E+02 E0= -.35642771E+02  d E =-.204873E-05
damped:  g(F)=  0.000E+00 g(S)=  0.000E+00 dE (1.order)= 0.000E+00
 bond charge predicted
       N       E                     dE             d eps       ncg     rms          rms(c)
DAV:   1    -0.356427710465E+02   -0.39271E-06   -0.43941E-03    96   0.589E-01    0.181E-02
DAV:   2    -0.356427711954E+02   -0.14892E-06   -0.35179E-05    64   0.566E-02    0.111E-02
DAV:   3    -0.356427722366E+02   -0.10412E-05   -0.65895E-06    72   0.239E-02    0.163E-03
DAV:   4    -0.356427724211E+02   -0.18451E-06   -0.13923E-06    48   0.961E-03    0.982E-04
DAV:   5    -0.356427725254E+02   -0.10424E-06   -0.37336E-07    48   0.456E-03    0.449E-04
DAV:   6    -0.356427726648E+02   -0.13946E-06   -0.18137E-07    48   0.282E-03
  20 F= -.35642773E+02 E0= -.35642773E+02  d E =-.192480E-05
damped:  g(F)=  0.000E+00 g(S)=  0.000E+00 dE (1.order)= 0.000E+00
 bond charge predicted
       N       E                     dE             d eps       ncg     rms          rms(c)
DAV:   1    -0.356427739580E+02   -0.14326E-05   -0.64363E-03    96   0.713E-01    0.218E-02
DAV:   2    -0.356427743406E+02   -0.38267E-06   -0.51201E-05    64   0.680E-02    0.134E-02
DAV:   3    -0.356427757885E+02   -0.14479E-05   -0.91202E-06    64   0.279E-02    0.180E-03
DAV:   4    -0.356427760692E+02   -0.28067E-06   -0.18609E-06    48   0.110E-02    0.969E-04
DAV:   5    -0.356427762696E+02   -0.20042E-06   -0.52131E-07    48   0.525E-03    0.368E-04
DAV:   6    -0.356427764688E+02   -0.19922E-06   -0.21624E-07    48   0.292E-03
  21 F= -.35642776E+02 E0= -.35642776E+02  d E =-.380401E-05
damped:  g(F)=  0.000E+00 g(S)=  0.000E+00 dE (1.order)= 0.000E+00
 bond charge predicted
       N       E                     dE             d eps       ncg     rms          rms(c)
DAV:   1    -0.356427767490E+02   -0.47944E-06   -0.93891E-03    96   0.863E-01    0.261E-02
DAV:   2    -0.356427775183E+02   -0.76925E-06   -0.76449E-05    64   0.832E-02    0.161E-02
DAV:   3    -0.356427795185E+02   -0.20002E-05   -0.13394E-05    64   0.340E-02    0.238E-03
DAV:   4    -0.356427799448E+02   -0.42633E-06   -0.27765E-06    48   0.136E-02    0.127E-03
DAV:   5    -0.356427802100E+02   -0.26516E-06   -0.74529E-07    48   0.639E-03    0.566E-04
DAV:   6    -0.356427804972E+02   -0.28725E-06   -0.30057E-07    48   0.360E-03
  22 F= -.35642780E+02 E0= -.35642780E+02  d E =-.402839E-05
damped:  g(F)=  0.000E+00 g(S)=  0.000E+00 dE (1.order)= 0.000E+00
 bond charge predicted
       N       E                     dE             d eps       ncg     rms          rms(c)
DAV:   1    -0.356427817319E+02   -0.15220E-05   -0.13124E-02    96   0.102E+00    0.308E-02
DAV:   2    -0.356427825347E+02   -0.80281E-06   -0.10784E-04    80   0.995E-02    0.190E-02
DAV:   3    -0.356427855191E+02   -0.29844E-05   -0.20174E-05    88   0.421E-02    0.318E-03
DAV:   4    -0.356427861246E+02   -0.60550E-06   -0.43106E-06    48   0.172E-02    0.189E-03
DAV:   5    -0.356427864070E+02   -0.28237E-06   -0.10546E-06    48   0.816E-03    0.867E-04
DAV:   6    -0.356427867661E+02   -0.35911E-06   -0.48785E-07    48   0.519E-03
  23 F= -.35642787E+02 E0= -.35642787E+02  d E =-.626888E-05
damped:  g(F)=  0.000E+00 g(S)=  0.000E+00 dE (1.order)= 0.000E+00
 bond charge predicted
       N       E                     dE             d eps       ncg     rms          rms(c)
DAV:   1    -0.356427847900E+02    0.16170E-05   -0.17926E-02    96   0.121E+00    0.358E-02
DAV:   2    -0.356427866899E+02   -0.19000E-05   -0.16128E-04    80   0.121E-01    0.222E-02
DAV:   3    -0.356427897231E+02   -0.30332E-05   -0.27483E-05    80   0.498E-02    0.479E-03
DAV:   4    -0.356427908027E+02   -0.10796E-05   -0.62540E-06    48   0.211E-02    0.226E-03
DAV:   5    -0.356427913076E+02   -0.50496E-06   -0.14655E-06    48   0.955E-03    0.116E-03
DAV:   6    -0.356427919329E+02   -0.62524E-06   -0.60759E-07    48   0.571E-03
  24 F= -.35642792E+02 E0= -.35642792E+02  d E =-.516677E-05
damped:  g(F)=  0.000E+00 g(S)=  0.000E+00 dE (1.order)= 0.000E+00
 bond charge predicted
       N       E                     dE             d eps       ncg     rms          rms(c)
DAV:   1    -0.356427790585E+02    0.12249E-04   -0.22637E-02    96   0.137E+00    0.412E-02
DAV:   2    -0.356427784519E+02    0.60662E-06   -0.22702E-04    64   0.145E-01    0.259E-02
DAV:   3    -0.356427814638E+02   -0.30119E-05   -0.46040E-05    96   0.660E-02    0.776E-03
DAV:   4    -0.356427835638E+02   -0.20999E-05   -0.12466E-05    64   0.304E-02    0.398E-03
DAV:   5    -0.356427839597E+02   -0.39598E-06   -0.23017E-06    48   0.139E-02    0.187E-03
DAV:   6    -0.356427846285E+02   -0.66880E-06   -0.12822E-06    64   0.938E-03
  25 F= -.35642785E+02 E0= -.35642785E+02  d E =0.730432E-05
damped:  g(F)=  0.000E+00 g(S)=  0.000E+00 dE (1.order)= 0.000E+00
 bond charge predicted
       N       E                     dE             d eps       ncg     rms          rms(c)
DAV:   1    -0.356428055219E+02   -0.21562E-04   -0.36218E-04    80   0.181E-01    0.964E-03
DAV:   2    -0.356428049290E+02    0.59290E-06   -0.84341E-06    64   0.283E-02    0.433E-03
DAV:   3    -0.356428050728E+02   -0.14382E-06   -0.21337E-06    76   0.148E-02    0.201E-03
DAV:   4    -0.356428055963E+02   -0.52348E-06   -0.11053E-06    60   0.978E-03    0.698E-04
DAV:   5    -0.356428059607E+02   -0.36436E-06   -0.24092E-07    56   0.449E-03    0.333E-04
DAV:   6    -0.356428062761E+02   -0.31544E-06   -0.75565E-08    60   0.197E-03
  26 F= -.35642806E+02 E0= -.35642806E+02  d E =-.216476E-04
damped:  g(F)=  0.000E+00 g(S)=  0.000E+00 dE (1.order)= 0.000E+00
 bond charge predicted
       N       E                     dE             d eps       ncg     rms          rms(c)
DAV:   1    -0.356428071097E+02   -0.11490E-05   -0.68163E-04   100   0.248E-01    0.132E-02
DAV:   2    -0.356428050854E+02    0.20243E-05   -0.15899E-05    72   0.392E-02    0.613E-03
DAV:   3    -0.356428047342E+02    0.35124E-06   -0.45999E-06    96   0.213E-02    0.268E-03
DAV:   4    -0.356428049741E+02   -0.23998E-06   -0.20757E-06    64   0.135E-02    0.942E-04
DAV:   5    -0.356428051021E+02   -0.12797E-06   -0.42724E-07    48   0.604E-03    0.460E-04
DAV:   6    -0.356428052026E+02   -0.10048E-06   -0.10505E-07    48   0.262E-03
  27 F= -.35642805E+02 E0= -.35642805E+02  d E =0.107352E-05
damped:  g(F)=  0.000E+00 g(S)=  0.000E+00 dE (1.order)= 0.000E+00
 bond charge predicted
       N       E                     dE             d eps       ncg     rms          rms(c)
DAV:   1    -0.356428068432E+02   -0.17411E-05   -0.50913E-06    48   0.221E-02    0.987E-04
DAV:   2    -0.356428069439E+02   -0.10070E-06   -0.35190E-07    48   0.543E-03    0.520E-04
DAV:   3    -0.356428070169E+02   -0.72964E-07   -0.76405E-08    48   0.179E-03    0.333E-04
DAV:   4    -0.356428071565E+02   -0.13965E-06   -0.65844E-08    68   0.155E-03    0.102E-04
DAV:   5    -0.356428071967E+02   -0.40209E-07   -0.50257E-08    48   0.714E-04    0.865E-05
DAV:   6    -0.356428072465E+02   -0.49766E-07   -0.47279E-08    48   0.352E-04
  28 F= -.35642807E+02 E0= -.35642807E+02  d E =-.204389E-05
damped:  g(F)=  0.000E+00 g(S)=  0.000E+00 dE (1.order)= 0.000E+00
 bond charge predicted
       N       E                     dE             d eps       ncg     rms          rms(c)
DAV:   1    -0.356428094646E+02   -0.22678E-05   -0.17745E-05    48   0.412E-02    0.175E-03
DAV:   2    -0.356428095796E+02   -0.11503E-06   -0.11539E-06    68   0.103E-02    0.961E-04
DAV:   3    -0.356428096139E+02   -0.34263E-07   -0.17305E-07    48   0.340E-03    0.627E-04
DAV:   4    -0.356428096807E+02   -0.66876E-07   -0.13230E-07    64   0.309E-03    0.190E-04
DAV:   5    -0.356428096974E+02   -0.16670E-07   -0.73307E-08    48   0.145E-03    0.164E-04
DAV:   6    -0.356428097122E+02   -0.14753E-07   -0.56088E-08    48   0.638E-04
  29 F= -.35642810E+02 E0= -.35642810E+02  d E =-.246567E-05
damped:  g(F)=  0.000E+00 g(S)=  0.000E+00 dE (1.order)= 0.000E+00
 bond charge predicted
       N       E                     dE             d eps       ncg     rms          rms(c)
DAV:   1    -0.356428112273E+02   -0.15299E-05   -0.30655E-05    48   0.544E-02    0.220E-03
DAV:   2    -0.356428113465E+02   -0.11919E-06   -0.19628E-06    84   0.137E-02    0.124E-03
DAV:   3    -0.356428113463E+02    0.25307E-09   -0.26985E-07    48   0.449E-03    0.816E-04
DAV:   4    -0.356428113515E+02   -0.52573E-08   -0.18527E-07    80   0.396E-03    0.239E-04
DAV:   5    -0.356428113552E+02   -0.37153E-08   -0.89381E-08    48   0.185E-03    0.215E-04
DAV:   6    -0.356428113592E+02   -0.39161E-08   -0.59781E-08    48   0.831E-04
  30 F= -.35642811E+02 E0= -.35642811E+02  d E =-.164701E-05
damped:  g(F)=  0.000E+00 g(S)=  0.000E+00 dE (1.order)= 0.000E+00
 bond charge predicted
       N       E                     dE             d eps       ncg     rms          rms(c)
DAV:   1    -0.356428115244E+02   -0.16915E-06   -0.36943E-05    48   0.597E-02    0.222E-03
DAV:   2    -0.356428116529E+02   -0.12855E-06   -0.23250E-06    56   0.150E-02    0.130E-03
DAV:   3    -0.356428116481E+02    0.48694E-08   -0.31446E-07    48   0.490E-03    0.873E-04
DAV:   4    -0.356428116447E+02    0.34240E-08   -0.19437E-07    48   0.409E-03    0.242E-04
DAV:   5    -0.356428116473E+02   -0.26739E-08   -0.92453E-08    48   0.190E-03    0.225E-04
DAV:   6    -0.356428116509E+02   -0.35302E-08   -0.59907E-08    48   0.875E-04
  31 F= -.35642812E+02 E0= -.35642812E+02  d E =-.291697E-06
damped:  g(F)=  0.000E+00 g(S)=  0.000E+00 dE (1.order)= 0.000E+00
 bond charge predicted
       N       E                     dE             d eps       ncg     rms          rms(c)
DAV:   1    -0.356428108336E+02    0.81369E-06   -0.36347E-05    48   0.586E-02    0.189E-03
DAV:   2    -0.356428109822E+02   -0.14856E-06   -0.22070E-06    48   0.146E-02    0.118E-03
DAV:   3    -0.356428109912E+02   -0.89954E-08   -0.30427E-07    48   0.473E-03    0.810E-04
DAV:   4    -0.356428109970E+02   -0.57689E-08   -0.16032E-07    48   0.350E-03    0.203E-04
DAV:   5    -0.356428110013E+02   -0.43208E-08   -0.82959E-08    48   0.160E-03    0.197E-04
DAV:   6    -0.356428110062E+02   -0.49156E-08   -0.58174E-08    48   0.756E-04
  32 F= -.35642811E+02 E0= -.35642811E+02  d E =0.644660E-06
damped:  g(F)=  0.000E+00 g(S)=  0.000E+00 dE (1.order)= 0.000E+00
 bond charge predicted
       N       E                     dE             d eps       ncg     rms          rms(c)
DAV:   1    -0.356428101943E+02    0.80702E-06   -0.36744E-05    48   0.569E-02    0.163E-03
DAV:   2    -0.356428103639E+02   -0.16962E-06   -0.20709E-06    48   0.140E-02    0.102E-03
DAV:   3    -0.356428103917E+02   -0.27770E-07   -0.29254E-07    48   0.446E-03    0.650E-04
DAV:   4    -0.356428104049E+02   -0.13207E-07   -0.12117E-07    48   0.254E-03    0.149E-04
DAV:   5    -0.356428104108E+02   -0.59174E-08   -0.71572E-08    48   0.115E-03    0.146E-04
DAV:   6    -0.356428104170E+02   -0.62353E-08   -0.57526E-08    48   0.582E-04
  33 F= -.35642810E+02 E0= -.35642810E+02  d E =0.589185E-06
damped:  g(F)=  0.000E+00 g(S)=  0.000E+00 dE (1.order)= 0.000E+00
 bond charge predicted
       N       E                     dE             d eps       ncg     rms          rms(c)
DAV:   1    -0.356428103736E+02    0.37136E-07   -0.59249E-05    48   0.703E-02    0.202E-03
DAV:   2    -0.356428106414E+02   -0.26777E-06   -0.31329E-06    48   0.171E-02    0.120E-03
DAV:   3    -0.356428106924E+02   -0.50978E-07   -0.41463E-07    48   0.531E-03    0.596E-04
DAV:   4    -0.356428107056E+02   -0.13204E-07   -0.13560E-07    48   0.252E-03    0.113E-04
DAV:   5    -0.356428107148E+02   -0.92082E-08   -0.77655E-08    48   0.118E-03    0.103E-04
DAV:   6    -0.356428107204E+02   -0.55923E-08   -0.61014E-08    48   0.646E-04
  34 F= -.35642811E+02 E0= -.35642811E+02  d E =-.303379E-06
damped:  g(F)=  0.000E+00 g(S)=  0.000E+00 dE (1.order)= 0.000E+00
 bond charge predicted
       N       E                     dE             d eps       ncg     rms          rms(c)
DAV:   1    -0.356428114000E+02   -0.68524E-06   -0.11731E-04    48   0.100E-01    0.285E-03
DAV:   2    -0.356428119211E+02   -0.52111E-06   -0.64291E-06    48   0.245E-02    0.176E-03
DAV:   3    -0.356428119915E+02   -0.70332E-07   -0.81539E-07    48   0.776E-03    0.104E-03
DAV:   4    -0.356428120030E+02   -0.11540E-07   -0.24872E-07    48   0.418E-03    0.224E-04
DAV:   5    -0.356428120174E+02   -0.14358E-07   -0.10917E-07    48   0.190E-03    0.227E-04
DAV:   6    -0.356428120235E+02   -0.61343E-08   -0.68853E-08    48   0.967E-04
  35 F= -.35642812E+02 E0= -.35642812E+02  d E =-.130312E-05
damped:  g(F)=  0.000E+00 g(S)=  0.000E+00 dE (1.order)= 0.000E+00
 bond charge predicted
       N       E                     dE             d eps       ncg     rms          rms(c)
DAV:   1    -0.356428133056E+02   -0.12882E-05   -0.24255E-04    80   0.141E-01    0.445E-03
DAV:   2    -0.356428132333E+02    0.72319E-07   -0.27002E-06    76   0.156E-02    0.275E-03
DAV:   3    -0.356428132275E+02    0.58371E-08   -0.53528E-07    48   0.692E-03    0.935E-04
DAV:   4    -0.356428132479E+02   -0.20474E-07   -0.21555E-07    48   0.355E-03    0.381E-04
DAV:   5    -0.356428132548E+02   -0.68790E-08   -0.81733E-08    48   0.158E-03    0.192E-04
DAV:   6    -0.356428132693E+02   -0.14450E-07   -0.67009E-08    48   0.997E-04
  36 F= -.35642813E+02 E0= -.35642813E+02  d E =-.124575E-05
damped:  g(F)=  0.000E+00 g(S)=  0.000E+00 dE (1.order)= 0.000E+00
 bond charge predicted
       N       E                     dE             d eps       ncg     rms          rms(c)
DAV:   1    -0.356428131597E+02    0.95132E-07   -0.43496E-04    96   0.188E-01    0.584E-03
DAV:   2    -0.356428130849E+02    0.74818E-07   -0.43012E-06    64   0.198E-02    0.362E-03
DAV:   3    -0.356428131060E+02   -0.21105E-07   -0.83104E-07    48   0.875E-03    0.103E-03
DAV:   4    -0.356428131372E+02   -0.31178E-07   -0.27654E-07    48   0.410E-03    0.461E-04
DAV:   5    -0.356428131488E+02   -0.11670E-07   -0.92139E-08    48   0.180E-03    0.254E-04
DAV:   6    -0.356428131753E+02   -0.26437E-07   -0.74037E-08    48   0.127E-03
  37 F= -.35642813E+02 E0= -.35642813E+02  d E =0.940082E-07
damped:  g(F)=  0.000E+00 g(S)=  0.000E+00 dE (1.order)= 0.000E+00
 bond charge predicted
       N       E                     dE             d eps       ncg     rms          rms(c)
DAV:   1    -0.356428124579E+02    0.69088E-06   -0.75772E-04    96   0.244E-01    0.755E-03
DAV:   2    -0.356428124336E+02    0.24347E-07   -0.61752E-06    48   0.235E-02    0.465E-03
DAV:   3    -0.356428125755E+02   -0.14194E-06   -0.11842E-06    48   0.101E-02    0.704E-04
DAV:   4    -0.356428126100E+02   -0.34507E-07   -0.28839E-07    48   0.405E-03    0.412E-04
DAV:   5    -0.356428126305E+02   -0.20421E-07   -0.10376E-07    48   0.184E-03    0.229E-04
DAV:   6    -0.356428126680E+02   -0.37498E-07   -0.74170E-08    48   0.119E-03
  38 F= -.35642813E+02 E0= -.35642813E+02  d E =0.507298E-06
damped:  g(F)=  0.000E+00 g(S)=  0.000E+00 dE (1.order)= 0.000E+00
 bond charge predicted
       N       E                     dE             d eps       ncg     rms          rms(c)
DAV:   1    -0.356428133217E+02   -0.69123E-06   -0.13811E-03    96   0.327E-01    0.102E-02
DAV:   2    -0.356428133578E+02   -0.36134E-07   -0.10703E-05    48   0.311E-02    0.627E-03
DAV:   3    -0.356428136826E+02   -0.32481E-06   -0.20233E-06    64   0.130E-02    0.788E-04
DAV:   4    -0.356428137322E+02   -0.49575E-07   -0.42679E-07    48   0.506E-03    0.440E-04
DAV:   5    -0.356428137630E+02   -0.30793E-07   -0.14189E-07    48   0.239E-03    0.176E-04
DAV:   6    -0.356428138037E+02   -0.40705E-07   -0.83562E-08    48   0.136E-03
  39 F= -.35642814E+02 E0= -.35642814E+02  d E =-.113575E-05
damped:  g(F)=  0.000E+00 g(S)=  0.000E+00 dE (1.order)= 0.000E+00
 bond charge predicted
       N       E                     dE             d eps       ncg     rms          rms(c)
DAV:   1    -0.356428138769E+02   -0.11389E-06   -0.24533E-03    96   0.437E-01    0.138E-02
DAV:   2    -0.356428139542E+02   -0.77276E-07   -0.19803E-05    64   0.425E-02    0.845E-03
DAV:   3    -0.356428144760E+02   -0.52179E-06   -0.37782E-06    80   0.182E-02    0.139E-03
DAV:   4    -0.356428145726E+02   -0.96662E-07   -0.82235E-07    48   0.740E-03    0.778E-04
DAV:   5    -0.356428146143E+02   -0.41645E-07   -0.21858E-07    48   0.341E-03    0.408E-04
DAV:   6    -0.356428146877E+02   -0.73448E-07   -0.12427E-07    48   0.225E-03
  40 F= -.35642815E+02 E0= -.35642815E+02  d E =-.884003E-06
damped:  g(F)=  0.000E+00 g(S)=  0.000E+00 dE (1.order)= 0.000E+00
 bond charge predicted
       N       E                     dE             d eps       ncg     rms          rms(c)
DAV:   1    -0.356428119779E+02    0.26364E-05   -0.40773E-03    96   0.562E-01    0.177E-02
DAV:   2    -0.356428121704E+02   -0.19250E-06   -0.31435E-05    64   0.533E-02    0.109E-02
DAV:   3    -0.356428130530E+02   -0.88258E-06   -0.59756E-06    64   0.226E-02    0.145E-03
DAV:   4    -0.356428132105E+02   -0.15750E-06   -0.12129E-06    48   0.897E-03    0.849E-04
DAV:   5    -0.356428132998E+02   -0.89287E-07   -0.32459E-07    48   0.425E-03    0.392E-04
DAV:   6    -0.356428134227E+02   -0.12291E-06   -0.15785E-07    48   0.258E-03
  41 F= -.35642813E+02 E0= -.35642813E+02  d E =0.126504E-05
damped:  g(F)=  0.000E+00 g(S)=  0.000E+00 dE (1.order)= 0.000E+00
 bond charge predicted
       N       E                     dE             d eps       ncg     rms          rms(c)
DAV:   1    -0.356428111781E+02    0.21217E-05   -0.66053E-03    96   0.714E-01    0.226E-02
DAV:   2    -0.356428116746E+02   -0.49654E-06   -0.50522E-05    64   0.672E-02    0.138E-02
DAV:   3    -0.356428130352E+02   -0.13606E-05   -0.92312E-06    64   0.279E-02    0.168E-03
DAV:   4    -0.356428133083E+02   -0.27312E-06   -0.18357E-06    48   0.110E-02    0.922E-04
DAV:   5    -0.356428134851E+02   -0.17677E-06   -0.49980E-07    48   0.520E-03    0.405E-04
DAV:   6    -0.356428136818E+02   -0.19670E-06   -0.21093E-07    48   0.294E-03
  42 F= -.35642814E+02 E0= -.35642814E+02  d E =-.259119E-06
damped:  g(F)=  0.000E+00 g(S)=  0.000E+00 dE (1.order)= 0.000E+00
 bond charge predicted
       N       E                     dE             d eps       ncg     rms          rms(c)
DAV:   1    -0.356428070875E+02    0.63976E-05   -0.10504E-02    96   0.901E-01    0.284E-02
DAV:   2    -0.356428080486E+02   -0.96114E-06   -0.81988E-05    80   0.858E-02    0.174E-02
DAV:   3    -0.356428100963E+02   -0.20477E-05   -0.14837E-05    80   0.357E-02    0.238E-03
DAV:   4    -0.356428105517E+02   -0.45539E-06   -0.30273E-06    48   0.143E-02    0.128E-03
DAV:   5    -0.356428108081E+02   -0.25643E-06   -0.78445E-07    48   0.669E-03    0.645E-04
DAV:   6    -0.356428111168E+02   -0.30871E-06   -0.32391E-07    48   0.389E-03
  43 F= -.35642811E+02 E0= -.35642811E+02  d E =0.256495E-05
damped:  g(F)=  0.000E+00 g(S)=  0.000E+00 dE (1.order)= 0.000E+00
 bond charge predicted
       N       E                     dE             d eps       ncg     rms          rms(c)
DAV:   1    -0.356428026575E+02    0.81506E-05   -0.16030E-02    96   0.111E+00    0.351E-02
DAV:   2    -0.356428041804E+02   -0.15229E-05   -0.12081E-04    80   0.104E-01    0.215E-02
DAV:   3    -0.356428076028E+02   -0.34224E-05   -0.22536E-05    64   0.434E-02    0.260E-03
DAV:   4    -0.356428082404E+02   -0.63764E-06   -0.44484E-06    48   0.172E-02    0.148E-03
DAV:   5    -0.356428086135E+02   -0.37304E-06   -0.11756E-06    48   0.831E-03    0.591E-04
DAV:   6    -0.356428089838E+02   -0.37034E-06   -0.47459E-07    48   0.479E-03
  44 F= -.35642809E+02 E0= -.35642809E+02  d E =0.213304E-05
damped:  g(F)=  0.000E+00 g(S)=  0.000E+00 dE (1.order)= 0.000E+00
 bond charge predicted
       N       E                     dE             d eps       ncg     rms          rms(c)
DAV:   1    -0.356427968537E+02    0.11760E-04   -0.24218E-02    96   0.137E+00    0.429E-02
DAV:   2    -0.356427992200E+02   -0.23664E-05   -0.18387E-04    80   0.129E-01    0.263E-02
DAV:   3    -0.356428042082E+02   -0.49882E-05   -0.34813E-05    80   0.542E-02    0.345E-03
DAV:   4    -0.356428052064E+02   -0.99821E-06   -0.69996E-06    48   0.217E-02    0.204E-03
DAV:   5    -0.356428057380E+02   -0.53156E-06   -0.17733E-06    48   0.105E-02    0.893E-04
DAV:   6    -0.356428063239E+02   -0.58589E-06   -0.75150E-07    48   0.634E-03
  45 F= -.35642806E+02 E0= -.35642806E+02  d E =0.265993E-05
damped:  g(F)=  0.000E+00 g(S)=  0.000E+00 dE (1.order)= 0.000E+00
 bond charge predicted
       N       E                     dE             d eps       ncg     rms          rms(c)
DAV:   1    -0.356427930870E+02    0.12651E-04   -0.35737E-02    96   0.166E+00    0.515E-02
DAV:   2    -0.356428026987E+02   -0.96117E-05   -0.33380E-04   112   0.160E-01    0.326E-02
DAV:   3    -0.356428050450E+02   -0.23463E-05   -0.19446E-05    80   0.469E-02    0.649E-03
DAV:   4    -0.356428063540E+02   -0.13090E-05   -0.56207E-06    48   0.204E-02    0.270E-03
DAV:   5    -0.356428069475E+02   -0.59344E-06   -0.77474E-07    48   0.840E-03    0.110E-03
DAV:   6    -0.356428076620E+02   -0.71457E-06   -0.26672E-07    48   0.414E-03
  46 F= -.35642808E+02 E0= -.35642808E+02  d E =-.133816E-05
damped:  g(F)=  0.000E+00 g(S)=  0.000E+00 dE (1.order)= 0.000E+00
 bond charge predicted
       N       E                     dE             d eps       ncg     rms          rms(c)
DAV:   1    -0.356427900686E+02    0.16879E-04   -0.49814E-02    96   0.198E+00    0.605E-02
DAV:   2    -0.356428015180E+02   -0.11449E-04   -0.46681E-04   104   0.193E-01    0.385E-02
DAV:   3    -0.356428051637E+02   -0.36458E-05   -0.33522E-05    96   0.605E-02    0.887E-03
DAV:   4    -0.356428072487E+02   -0.20850E-05   -0.91191E-06    64   0.272E-02    0.377E-03
DAV:   5    -0.356428078474E+02   -0.59868E-06   -0.14152E-06    48   0.125E-02    0.150E-03
DAV:   6    -0.356428087816E+02   -0.93421E-06   -0.66284E-07    48   0.671E-03
  47 F= -.35642809E+02 E0= -.35642809E+02  d E =-.111958E-05
damped:  g(F)=  0.000E+00 g(S)=  0.000E+00 dE (1.order)= 0.000E+00
 bond charge predicted
       N       E                     dE             d eps       ncg     rms          rms(c)
DAV:   1    -0.356427354865E+02    0.72361E-04   -0.66340E-02    96   0.233E+00    0.715E-02
DAV:   2    -0.356427534788E+02   -0.17992E-04   -0.80554E-04   108   0.253E-01    0.461E-02
DAV:   3    -0.356427474504E+02    0.60284E-05   -0.48354E-05    96   0.775E-02    0.183E-02
DAV:   4    -0.356427536579E+02   -0.62075E-05   -0.31606E-05    64   0.511E-02    0.564E-03
DAV:   5    -0.356427544297E+02   -0.77187E-06   -0.57047E-06    80   0.258E-02    0.246E-03
DAV:   6    -0.356427557344E+02   -0.13046E-05   -0.19148E-06    56   0.116E-02
  48 F= -.35642756E+02 E0= -.35642756E+02  d E =0.530472E-04
damped:  g(F)=  0.000E+00 g(S)=  0.000E+00 dE (1.order)= 0.000E+00
 bond charge predicted
       N       E                     dE             d eps       ncg     rms          rms(c)
DAV:   1    -0.356428323081E+02   -0.77878E-04   -0.14724E-03    96   0.364E-01    0.199E-02
DAV:   2    -0.356428289860E+02    0.33221E-05   -0.33685E-05    68   0.577E-02    0.917E-03
DAV:   3    -0.356428289042E+02    0.81830E-07   -0.98740E-06    96   0.318E-02    0.413E-03
DAV:   4    -0.356428301357E+02   -0.12315E-05   -0.45367E-06    64   0.201E-02    0.145E-03
DAV:   5    -0.356428309103E+02   -0.77462E-06   -0.91752E-07    84   0.904E-03    0.667E-04
DAV:   6    -0.356428314891E+02   -0.57872E-06   -0.17856E-07    48   0.395E-03
  49 F= -.35642831E+02 E0= -.35642831E+02  d E =-.757547E-04
damped:  g(F)=  0.000E+00 g(S)=  0.000E+00 dE (1.order)= 0.000E+00
 bond charge predicted
       N       E                     dE             d eps       ncg     rms          rms(c)
DAV:   1    -0.356428238105E+02    0.70998E-05   -0.25284E-03    96   0.477E-01    0.259E-02
DAV:   2    -0.356428164827E+02    0.73278E-05   -0.58340E-05    64   0.754E-02    0.120E-02
DAV:   3    -0.356428151045E+02    0.13782E-05   -0.17207E-05    96   0.415E-02    0.527E-03
DAV:   4    -0.356428158048E+02   -0.70025E-06   -0.76456E-06    64   0.262E-02    0.186E-03
DAV:   5    -0.356428160888E+02   -0.28406E-06   -0.14898E-06    76   0.116E-02    0.887E-04
DAV:   6    -0.356428162853E+02   -0.19641E-06   -0.26421E-07    48   0.502E-03
  50 F= -.35642816E+02 E0= -.35642816E+02  d E =0.152038E-04
damped:  g(F)=  0.000E+00 g(S)=  0.000E+00 dE (1.order)= 0.000E+00
 bond charge predicted
       N       E                     dE             d eps       ncg     rms          rms(c)
DAV:   1    -0.356428246475E+02   -0.85587E-05   -0.29394E-05    52   0.530E-02    0.253E-03
DAV:   2    -0.356428249084E+02   -0.26093E-06   -0.17949E-06    48   0.129E-02    0.125E-03
DAV:   3    -0.356428250580E+02   -0.14953E-06   -0.21830E-07    48   0.431E-03    0.792E-04
DAV:   4    -0.356428253708E+02   -0.31284E-06   -0.16157E-07    64   0.385E-03    0.252E-04
DAV:   5    -0.356428254694E+02   -0.98647E-07   -0.63356E-08    48   0.180E-03    0.204E-04
DAV:   6    -0.356428255810E+02   -0.11155E-06   -0.39630E-08    48   0.824E-04
  51 F= -.35642826E+02 E0= -.35642826E+02  d E =-.929574E-05
damped:  g(F)=  0.000E+00 g(S)=  0.000E+00 dE (1.order)= 0.000E+00
 bond charge predicted
       N       E                     dE             d eps       ncg     rms          rms(c)
DAV:   1    -0.356428366270E+02   -0.11158E-04   -0.99711E-05    48   0.975E-02    0.450E-03
DAV:   2    -0.356428369469E+02   -0.31985E-06   -0.61723E-06    80   0.242E-02    0.233E-03
DAV:   3    -0.356428369402E+02    0.66873E-08   -0.70088E-07    48   0.800E-03    0.150E-03
DAV:   4    -0.356428370353E+02   -0.95097E-07   -0.52772E-07    88   0.755E-03    0.471E-04
DAV:   5    -0.356428370792E+02   -0.43886E-07   -0.16540E-07    48   0.359E-03    0.372E-04
DAV:   6    -0.356428371161E+02   -0.36945E-07   -0.65663E-08    48   0.152E-03
  52 F= -.35642837E+02 E0= -.35642837E+02  d E =-.115351E-04
damped:  g(F)=  0.000E+00 g(S)=  0.000E+00 dE (1.order)= 0.000E+00
 bond charge predicted
       N       E                     dE             d eps       ncg     rms          rms(c)
DAV:   1    -0.356428436508E+02   -0.65716E-05   -0.16235E-04    64   0.125E-01    0.563E-03
DAV:   2    -0.356428440032E+02   -0.35242E-06   -0.10186E-05    64   0.311E-02    0.296E-03
DAV:   3    -0.356428438805E+02    0.12272E-06   -0.11565E-06    80   0.103E-02    0.191E-03
DAV:   4    -0.356428438204E+02    0.60101E-07   -0.85933E-07    64   0.977E-03    0.608E-04
DAV:   5    -0.356428438371E+02   -0.16695E-07   -0.25827E-07    48   0.465E-03    0.502E-04
DAV:   6    -0.356428438466E+02   -0.95522E-08   -0.86973E-08    48   0.197E-03
  53 F= -.35642844E+02 E0= -.35642844E+02  d E =-.673049E-05
damped:  g(F)=  0.000E+00 g(S)=  0.000E+00 dE (1.order)= 0.000E+00
 bond charge predicted
       N       E                     dE             d eps       ncg     rms          rms(c)
DAV:   1    -0.356428424371E+02    0.14000E-05   -0.16378E-04    56   0.126E-01    0.544E-03
DAV:   2    -0.356428428035E+02   -0.36644E-06   -0.10428E-05    64   0.315E-02    0.294E-03
DAV:   3    -0.356428426825E+02    0.12107E-06   -0.12082E-06    48   0.105E-02    0.191E-03
DAV:   4    -0.356428426068E+02    0.75615E-07   -0.84074E-07    72   0.973E-03    0.592E-04
DAV:   5    -0.356428426228E+02   -0.15917E-07   -0.26046E-07    48   0.461E-03    0.522E-04
DAV:   6    -0.356428426306E+02   -0.78887E-08   -0.85564E-08    48   0.197E-03
  54 F= -.35642843E+02 E0= -.35642843E+02  d E =0.121597E-05
damped:  g(F)=  0.000E+00 g(S)=  0.000E+00 dE (1.order)= 0.000E+00
 bond charge predicted
       N       E                     dE             d eps       ncg     rms          rms(c)
DAV:   1    -0.356428367909E+02    0.58319E-05   -0.10842E-04    48   0.103E-01    0.403E-03
DAV:   2    -0.356428370925E+02   -0.30163E-06   -0.68885E-06    48   0.258E-02    0.228E-03
DAV:   3    -0.356428370436E+02    0.48953E-07   -0.83892E-07    48   0.857E-03    0.151E-03
DAV:   4    -0.356428370147E+02    0.28887E-07   -0.50842E-07    48   0.747E-03    0.434E-04
DAV:   5    -0.356428370330E+02   -0.18325E-07   -0.17996E-07    48   0.350E-03    0.413E-04
DAV:   6    -0.356428370452E+02   -0.12190E-07   -0.71719E-08    48   0.154E-03
  55 F= -.35642837E+02 E0= -.35642837E+02  d E =0.558546E-05
damped:  g(F)=  0.000E+00 g(S)=  0.000E+00 dE (1.order)= 0.000E+00
 bond charge predicted
       N       E                     dE             d eps       ncg     rms          rms(c)
DAV:   1    -0.356428331052E+02    0.39278E-05   -0.58096E-05    48   0.734E-02    0.221E-03
DAV:   2    -0.356428333415E+02   -0.23635E-06   -0.34618E-06    48   0.182E-02    0.140E-03
DAV:   3    -0.356428333640E+02   -0.22421E-07   -0.45828E-07    48   0.593E-03    0.963E-04
DAV:   4    -0.356428333906E+02   -0.26642E-07   -0.20387E-07    48   0.421E-03    0.224E-04
DAV:   5    -0.356428334098E+02   -0.19249E-07   -0.95784E-08    48   0.190E-03    0.238E-04
DAV:   6    -0.356428334219E+02   -0.12079E-07   -0.59381E-08    48   0.858E-04
  56 F= -.35642833E+02 E0= -.35642833E+02  d E =0.362326E-05
damped:  g(F)=  0.000E+00 g(S)=  0.000E+00 dE (1.order)= 0.000E+00
 bond charge predicted
       N       E                     dE             d eps       ncg     rms          rms(c)
DAV:   1    -0.356428353055E+02   -0.18957E-05   -0.71598E-05    48   0.781E-02    0.224E-03
DAV:   2    -0.356428356527E+02   -0.34715E-06   -0.37918E-06    48   0.189E-02    0.134E-03
DAV:   3    -0.356428357336E+02   -0.80985E-07   -0.49452E-07    48   0.591E-03    0.750E-04
DAV:   4    -0.356428357741E+02   -0.40415E-07   -0.15829E-07    64   0.290E-03    0.177E-04
DAV:   5    -0.356428357912E+02   -0.17151E-07   -0.82534E-08    48   0.134E-03    0.154E-04
DAV:   6    -0.356428358083E+02   -0.17073E-07   -0.62263E-08    48   0.721E-04
  57 F= -.35642836E+02 E0= -.35642836E+02  d E =-.238635E-05
damped:  g(F)=  0.000E+00 g(S)=  0.000E+00 dE (1.order)= 0.000E+00
 bond charge predicted
       N       E                     dE             d eps       ncg     rms          rms(c)
DAV:   1    -0.356428421963E+02   -0.64051E-05   -0.18010E-04    48   0.129E-01    0.396E-03
DAV:   2    -0.356428429772E+02   -0.78088E-06   -0.10443E-05    88   0.320E-02    0.254E-03
DAV:   3    -0.356428430312E+02   -0.54087E-07   -0.12676E-06    56   0.103E-02    0.173E-03
DAV:   4    -0.356428430512E+02   -0.19991E-07   -0.52610E-07    80   0.710E-03    0.434E-04
DAV:   5    -0.356428430621E+02   -0.10825E-07   -0.18147E-07    48   0.320E-03    0.410E-04
DAV:   6    -0.356428430697E+02   -0.76111E-08   -0.81503E-08    48   0.155E-03
  58 F= -.35642843E+02 E0= -.35642843E+02  d E =-.726140E-05
damped:  g(F)=  0.000E+00 g(S)=  0.000E+00 dE (1.order)= 0.000E+00
 bond charge predicted
       N       E                     dE             d eps       ncg     rms          rms(c)
DAV:   1    -0.356428475692E+02   -0.45071E-05   -0.38260E-04    96   0.185E-01    0.707E-03
DAV:   2    -0.356428472515E+02    0.31765E-06   -0.69372E-06    64   0.246E-02    0.398E-03
DAV:   3    -0.356428471520E+02    0.99523E-07   -0.14720E-06    76   0.119E-02    0.180E-03
DAV:   4    -0.356428472025E+02   -0.50456E-07   -0.71403E-07    48   0.748E-03    0.667E-04
DAV:   5    -0.356428472081E+02   -0.56859E-08   -0.16446E-07    48   0.347E-03    0.339E-04
DAV:   6    -0.356428472274E+02   -0.19235E-07   -0.87691E-08    48   0.177E-03
  59 F= -.35642847E+02 E0= -.35642847E+02  d E =-.415770E-05
damped:  g(F)=  0.000E+00 g(S)=  0.000E+00 dE (1.order)= 0.000E+00
 bond charge predicted
       N       E                     dE             d eps       ncg     rms          rms(c)
DAV:   1    -0.356428436700E+02    0.35381E-05   -0.51115E-04    96   0.211E-01    0.724E-03
DAV:   2    -0.356428434730E+02    0.19706E-06   -0.74541E-06    64   0.258E-02    0.432E-03
DAV:   3    -0.356428434228E+02    0.50158E-07   -0.15009E-06    48   0.120E-02    0.186E-03
DAV:   4    -0.356428434941E+02   -0.71303E-07   -0.64671E-07    48   0.703E-03    0.687E-04
DAV:   5    -0.356428435072E+02   -0.13074E-07   -0.14867E-07    48   0.326E-03    0.308E-04
DAV:   6    -0.356428435406E+02   -0.33433E-07   -0.83417E-08    48   0.169E-03
  60 F= -.35642844E+02 E0= -.35642844E+02  d E =0.368675E-05
damped:  g(F)=  0.000E+00 g(S)=  0.000E+00 dE (1.order)= 0.000E+00
 bond charge predicted
       N       E                     dE             d eps       ncg     rms          rms(c)
DAV:   1    -0.356428420533E+02    0.14539E-05   -0.61897E-04    96   0.222E-01    0.678E-03
DAV:   2    -0.356428420748E+02   -0.21550E-07   -0.51096E-06    48   0.215E-02    0.418E-03
DAV:   3    -0.356428422399E+02   -0.16514E-06   -0.99736E-07    48   0.924E-03    0.719E-04
DAV:   4    -0.356428422798E+02   -0.39853E-07   -0.24353E-07    48   0.377E-03    0.410E-04
DAV:   5    -0.356428423120E+02   -0.32219E-07   -0.89667E-08    48   0.175E-03    0.191E-04
DAV:   6    -0.356428423621E+02   -0.50107E-07   -0.66127E-08    48   0.111E-03
  61 F= -.35642842E+02 E0= -.35642842E+02  d E =0.117851E-05
damped:  g(F)=  0.000E+00 g(S)=  0.000E+00 dE (1.order)= 0.000E+00
 bond charge predicted
       N       E                     dE             d eps       ncg     rms          rms(c)
DAV:   1    -0.356428498022E+02   -0.74901E-05   -0.10964E-03    96   0.300E-01    0.931E-03
DAV:   2    -0.356428497892E+02    0.12937E-07   -0.11661E-05    72   0.325E-02    0.573E-03
DAV:   3    -0.356428498638E+02   -0.74558E-07   -0.20143E-06    80   0.138E-02    0.193E-03
DAV:   4    -0.356428499709E+02   -0.10716E-06   -0.64690E-07    68   0.687E-03    0.713E-04
DAV:   5    -0.356428500073E+02   -0.36385E-07   -0.15664E-07    48   0.302E-03    0.344E-04
DAV:   6    -0.356428500592E+02   -0.51887E-07   -0.94999E-08    48   0.182E-03
  62 F= -.35642850E+02 E0= -.35642850E+02  d E =-.769709E-05
damped:  g(F)=  0.000E+00 g(S)=  0.000E+00 dE (1.order)= 0.000E+00
 bond charge predicted
       N       E                     dE             d eps       ncg     rms          rms(c)
DAV:   1    -0.356428511877E+02   -0.11804E-05   -0.19351E-03    96   0.403E-01    0.129E-02
DAV:   2    -0.356428509438E+02    0.24397E-06   -0.23462E-05    64   0.460E-02    0.783E-03
DAV:   3    -0.356428508637E+02    0.80073E-07   -0.40839E-06    96   0.199E-02    0.313E-03
DAV:   4    -0.356428510537E+02   -0.19005E-06   -0.15158E-06    48   0.110E-02    0.109E-03
DAV:   5    -0.356428510962E+02   -0.42422E-07   -0.30387E-07    48   0.491E-03    0.515E-04
DAV:   6    -0.356428511674E+02   -0.71294E-07   -0.14795E-07    48   0.277E-03
  63 F= -.35642851E+02 E0= -.35642851E+02  d E =-.110823E-05
damped:  g(F)=  0.000E+00 g(S)=  0.000E+00 dE (1.order)= 0.000E+00
 bond charge predicted
       N       E                     dE             d eps       ncg     rms          rms(c)
DAV:   1    -0.356428499322E+02    0.11640E-05   -0.26799E-03    96   0.461E-01    0.140E-02
DAV:   2    -0.356428501282E+02   -0.19604E-06   -0.22153E-05    48   0.445E-02    0.865E-03
DAV:   3    -0.356428506538E+02   -0.52555E-06   -0.38502E-06    64   0.184E-02    0.139E-03
DAV:   4    -0.356428507852E+02   -0.13147E-06   -0.82942E-07    48   0.743E-03    0.696E-04
DAV:   5    -0.356428508676E+02   -0.82369E-07   -0.23353E-07    48   0.343E-03    0.344E-04
DAV:   6    -0.356428509802E+02   -0.11261E-06   -0.11621E-07    48   0.198E-03
  64 F= -.35642851E+02 E0= -.35642851E+02  d E =0.187248E-06
damped:  g(F)=  0.000E+00 g(S)=  0.000E+00 dE (1.order)= 0.000E+00
 bond charge predicted
       N       E                     dE             d eps       ncg     rms          rms(c)
DAV:   1    -0.356428599832E+02   -0.91156E-05   -0.44467E-03    96   0.599E-01    0.185E-02
DAV:   2    -0.356428601580E+02   -0.17484E-06   -0.40630E-05    64   0.611E-02    0.115E-02
DAV:   3    -0.356428608512E+02   -0.69322E-06   -0.80421E-06    96   0.274E-02    0.287E-03
DAV:   4    -0.356428611492E+02   -0.29793E-06   -0.20254E-06    64   0.121E-02    0.150E-03
DAV:   5    -0.356428612128E+02   -0.63623E-07   -0.41530E-07    48   0.551E-03    0.768E-04
DAV:   6    -0.356428613448E+02   -0.13200E-06   -0.25877E-07    48   0.397E-03
  65 F= -.35642861E+02 E0= -.35642861E+02  d E =-.103646E-04
damped:  g(F)=  0.000E+00 g(S)=  0.000E+00 dE (1.order)= 0.000E+00
 bond charge predicted
       N       E                     dE             d eps       ncg     rms          rms(c)
DAV:   1    -0.356428590156E+02    0.21972E-05   -0.70994E-03    96   0.752E-01    0.232E-02
DAV:   2    -0.356428593118E+02   -0.29614E-06   -0.60065E-05    68   0.742E-02    0.143E-02
DAV:   3    -0.356428605372E+02   -0.12254E-05   -0.12002E-05    96   0.331E-02    0.285E-03
DAV:   4    -0.356428608997E+02   -0.36252E-06   -0.27193E-06    48   0.140E-02    0.168E-03
DAV:   5    -0.356428610212E+02   -0.12154E-06   -0.58201E-07    48   0.642E-03    0.894E-04
DAV:   6    -0.356428612613E+02   -0.24003E-06   -0.34793E-07    64   0.470E-03
  66 F= -.35642861E+02 E0= -.35642861E+02  d E =0.835150E-07
damped:  g(F)=  0.000E+00 g(S)=  0.000E+00 dE (1.order)= 0.000E+00
 bond charge predicted
       N       E                     dE             d eps       ncg     rms          rms(c)
DAV:   1    -0.356428701356E+02   -0.91144E-05   -0.11424E-02    96   0.953E-01    0.292E-02
DAV:   2    -0.356428715303E+02   -0.13947E-05   -0.10073E-04    64   0.951E-02    0.180E-02
DAV:   3    -0.356428733220E+02   -0.17917E-05   -0.17098E-05    80   0.394E-02    0.381E-03
DAV:   4    -0.356428739845E+02   -0.66251E-06   -0.38669E-06    52   0.167E-02    0.165E-03
DAV:   5    -0.356428742914E+02   -0.30690E-06   -0.87918E-07    48   0.749E-03    0.833E-04
DAV:   6    -0.356428746660E+02   -0.37459E-06   -0.36977E-07    48   0.446E-03
  67 F= -.35642875E+02 E0= -.35642875E+02  d E =-.134047E-04
damped:  g(F)=  0.000E+00 g(S)=  0.000E+00 dE (1.order)= 0.000E+00
 bond charge predicted
       N       E                     dE             d eps       ncg     rms          rms(c)
DAV:   1    -0.356428732255E+02    0.10659E-05   -0.17494E-02    96   0.117E+00    0.358E-02
DAV:   2    -0.356428754006E+02   -0.21751E-05   -0.14334E-04    92   0.113E-01    0.220E-02
DAV:   3    -0.356428787582E+02   -0.33576E-05   -0.24656E-05    80   0.464E-02    0.341E-03
DAV:   4    -0.356428795601E+02   -0.80188E-06   -0.50679E-06    48   0.187E-02    0.169E-03
DAV:   5    -0.356428800072E+02   -0.44713E-06   -0.12790E-06    48   0.869E-03    0.789E-04
DAV:   6    -0.356428804873E+02   -0.48004E-06   -0.49601E-07    48   0.492E-03
  68 F= -.35642880E+02 E0= -.35642880E+02  d E =-.582131E-05
damped:  g(F)=  0.000E+00 g(S)=  0.000E+00 dE (1.order)= 0.000E+00
 bond charge predicted
       N       E                     dE             d eps       ncg     rms          rms(c)
DAV:   1    -0.356428785404E+02    0.14669E-05   -0.26264E-02    96   0.145E+00    0.445E-02
DAV:   2    -0.356428839460E+02   -0.54057E-05   -0.26995E-04    96   0.147E-01    0.285E-02
DAV:   3    -0.356428849449E+02   -0.99889E-06   -0.21078E-05    96   0.486E-02    0.808E-03
DAV:   4    -0.356428865310E+02   -0.15861E-05   -0.66710E-06    64   0.235E-02    0.324E-03
DAV:   5    -0.356428867475E+02   -0.21649E-06   -0.10542E-06    56   0.110E-02    0.134E-03
DAV:   6    -0.356428872441E+02   -0.49664E-06   -0.54842E-07    56   0.610E-03
  69 F= -.35642887E+02 E0= -.35642887E+02  d E =-.675685E-05
damped:  g(F)=  0.000E+00 g(S)=  0.000E+00 dE (1.order)= 0.000E+00
 bond charge predicted
       N       E                     dE             d eps       ncg     rms          rms(c)
DAV:   1    -0.356428778313E+02    0.89162E-05   -0.36775E-02    96   0.173E+00    0.529E-02
DAV:   2    -0.356428874823E+02   -0.96510E-05   -0.42844E-04    96   0.183E-01    0.342E-02
DAV:   3    -0.356428857503E+02    0.17320E-05   -0.26219E-05    96   0.569E-02    0.124E-02
DAV:   4    -0.356428891109E+02   -0.33605E-05   -0.14800E-05    64   0.347E-02    0.403E-03
DAV:   5    -0.356428896267E+02   -0.51580E-06   -0.25911E-06    64   0.174E-02    0.166E-03
DAV:   6    -0.356428903916E+02   -0.76494E-06   -0.85991E-07    48   0.762E-03
  70 F= -.35642890E+02 E0= -.35642890E+02  d E =-.314748E-05
damped:  g(F)=  0.000E+00 g(S)=  0.000E+00 dE (1.order)= 0.000E+00
 bond charge predicted
       N       E                     dE             d eps       ncg     rms          rms(c)
DAV:   1    -0.356428524681E+02    0.37159E-04   -0.47776E-02    96   0.200E+00    0.626E-02
DAV:   2    -0.356428577313E+02   -0.52633E-05   -0.61344E-04    96   0.222E-01    0.405E-02
DAV:   3    -0.356428529446E+02    0.47867E-05   -0.52275E-05    96   0.773E-02    0.162E-02
DAV:   4    -0.356428586145E+02   -0.56699E-05   -0.24775E-05    96   0.465E-02    0.560E-03
DAV:   5    -0.356428589345E+02   -0.31997E-06   -0.45204E-06    64   0.230E-02    0.216E-03
DAV:   6    -0.356428599227E+02   -0.98819E-06   -0.16614E-06    48   0.106E-02
  71 F= -.35642860E+02 E0= -.35642860E+02  d E =0.304689E-04
damped:  g(F)=  0.000E+00 g(S)=  0.000E+00 dE (1.order)= 0.000E+00
 bond charge predicted
       N       E                     dE             d eps       ncg     rms          rms(c)
DAV:   1    -0.356429294520E+02   -0.70517E-04   -0.15448E-03    96   0.373E-01    0.203E-02
DAV:   2    -0.356429254608E+02    0.39912E-05   -0.35205E-05    64   0.590E-02    0.931E-03
DAV:   3    -0.356429250252E+02    0.43562E-06   -0.10282E-05    96   0.324E-02    0.415E-03
DAV:   4    -0.356429260619E+02   -0.10367E-05   -0.47032E-06    64   0.205E-02    0.144E-03
DAV:   5    -0.356429267264E+02   -0.66450E-06   -0.94523E-07    72   0.922E-03    0.669E-04
DAV:   6    -0.356429271993E+02   -0.47295E-06   -0.18277E-07    48   0.400E-03
  72 F= -.35642927E+02 E0= -.35642927E+02  d E =-.672766E-04
damped:  g(F)=  0.000E+00 g(S)=  0.000E+00 dE (1.order)= 0.000E+00
 bond charge predicted
       N       E                     dE             d eps       ncg     rms          rms(c)
DAV:   1    -0.356429102674E+02    0.16459E-04   -0.24137E-03    96   0.467E-01    0.250E-02
DAV:   2    -0.356429030093E+02    0.72581E-05   -0.55823E-05    68   0.737E-02    0.115E-02
DAV:   3    -0.356429015389E+02    0.14705E-05   -0.16168E-05    96   0.402E-02    0.500E-03
DAV:   4    -0.356429020599E+02   -0.52104E-06   -0.72951E-06    72   0.256E-02    0.174E-03
DAV:   5    -0.356429022872E+02   -0.22728E-06   -0.14097E-06    80   0.114E-02    0.864E-04
DAV:   6    -0.356429024498E+02   -0.16265E-06   -0.26422E-07    48   0.493E-03
  73 F= -.35642902E+02 E0= -.35642902E+02  d E =0.247495E-04
damped:  g(F)=  0.000E+00 g(S)=  0.000E+00 dE (1.order)= 0.000E+00
 bond charge predicted
       N       E                     dE             d eps       ncg     rms          rms(c)
DAV:   1    -0.356429129566E+02   -0.10669E-04   -0.40404E-05    56   0.620E-02    0.296E-03
DAV:   2    -0.356429132672E+02   -0.31057E-06   -0.24564E-06    48   0.151E-02    0.148E-03
DAV:   3    -0.356429133993E+02   -0.13218E-06   -0.29247E-07    48   0.502E-03    0.941E-04
DAV:   4    -0.356429136666E+02   -0.26722E-06   -0.21790E-07    72   0.453E-03    0.297E-04
DAV:   5    -0.356429137492E+02   -0.82674E-07   -0.82246E-08    48   0.212E-03    0.233E-04
DAV:   6    -0.356429138451E+02   -0.95832E-07   -0.48680E-08    48   0.956E-04
  74 F= -.35642914E+02 E0= -.35642914E+02  d E =-.113952E-04
damped:  g(F)=  0.000E+00 g(S)=  0.000E+00 dE (1.order)= 0.000E+00
 reached required accuracy - stopping structural energy minimisation
