unknown system                          
           1
    30.000000    0.000000    0.000000
     0.000000   30.000000    0.000000
     0.000000    0.000000   30.000000
   H    C    N 
   3   2   1
Direct configuration=     1
   0.48611254  0.46278546  0.52700340
   0.45832399  0.50399677  0.49403477
   0.49347569  0.52068274  0.53923780
   0.48910929  0.49621603  0.51231791
   0.55704739  0.49865151  0.45869151
   0.52611498  0.49766452  0.48302373
Direct configuration=     2
   0.48611254  0.46278475  0.52700305
   0.45832411  0.50399689  0.49403547
   0.49347629  0.52068176  0.53923853
   0.48910890  0.49621558  0.51231870
   0.55704357  0.49865204  0.45869386
   0.52611903  0.49766466  0.48302055
Direct configuration=     3
   0.48611259  0.46278322  0.52700225
   0.45832438  0.50399718  0.49403705
   0.49347765  0.52067960  0.53924013
   0.48910853  0.49621460  0.51232006
   0.55703793  0.49865325  0.45869687
   0.52612466  0.49766486  0.48301611
Direct configuration=     4
   0.48611262  0.46278301  0.52700213
   0.45832441  0.50399724  0.49403728
   0.49347785  0.52067929  0.53924036
   0.48910864  0.49621447  0.51232012
   0.55703814  0.49865342  0.45869650
   0.52612425  0.49766484  0.48301643
Direct configuration=     5
   0.48611269  0.46278254  0.52700184
   0.45832447  0.50399737  0.49403782
   0.49347831  0.52067858  0.53924090
   0.48910889  0.49621419  0.51232027
   0.55703848  0.49865378  0.45869577
   0.52612350  0.49766480  0.48301700
Direct configuration=     6
   0.48611284  0.46278177  0.52700135
   0.45832454  0.50399763  0.49403877
   0.49347910  0.52067734  0.53924183
   0.48910925  0.49621371  0.51232057
   0.55703884  0.49865434  0.45869472
   0.52612252  0.49766473  0.48301772
Direct configuration=     7
   0.48611308  0.46278061  0.52700059
   0.45832461  0.50399804  0.49404024
   0.49348028  0.52067545  0.53924327
   0.48910975  0.49621299  0.51232106
   0.55703904  0.49865510  0.45869343
   0.52612150  0.49766463  0.48301845
Direct configuration=     8
   0.48611344  0.46277901  0.52699950
   0.45832467  0.50399865  0.49404235
   0.49348191  0.52067276  0.53924534
   0.48911036  0.49621199  0.51232181
   0.55703893  0.49865608  0.45869199
   0.52612059  0.49766449  0.48301907
Direct configuration=     9
   0.48611395  0.46277686  0.52699799
   0.45832471  0.50399949  0.49404519
   0.49348404  0.52066908  0.53924814
   0.48911111  0.49621064  0.51232287
   0.55703838  0.49865733  0.45869047
   0.52611995  0.49766432  0.48301947
Direct configuration=    10
   0.48611469  0.46277386  0.52699585
   0.45832474  0.50400070  0.49404921
   0.49348702  0.52066389  0.53925212
   0.48911207  0.49620875  0.51232440
   0.55703715  0.49865899  0.45868876
   0.52611965  0.49766409  0.48301955
Direct configuration=    11
   0.48611572  0.46276975  0.52699292
   0.45832475  0.50400237  0.49405470
   0.49349102  0.52065680  0.53925756
   0.48911328  0.49620621  0.51232651
   0.55703505  0.49866119  0.45868686
   0.52611982  0.49766381  0.48301923
Direct configuration=    12
   0.48611709  0.46276425  0.52698902
   0.45832478  0.50400459  0.49406201
   0.49349631  0.52064736  0.53926483
   0.48911484  0.49620286  0.51232930
   0.55703196  0.49866407  0.45868465
   0.52612045  0.49766346  0.48301850
Direct configuration=    13
   0.48611889  0.46275698  0.52698395
   0.45832484  0.50400749  0.49407157
   0.49350322  0.52063504  0.53927436
   0.48911688  0.49619854  0.51233284
   0.55702794  0.49866779  0.45868180
   0.52612123  0.49766303  0.48301756
Direct configuration=    14
   0.48612119  0.46274749  0.52697746
   0.45832500  0.50401121  0.49408387
   0.49351213  0.52061922  0.53928666
   0.48911959  0.49619306  0.51233720
   0.55702330  0.49867255  0.45867776
   0.52612154  0.49766250  0.48301684
Direct configuration=    15
   0.48612408  0.46273527  0.52696930
   0.45832531  0.50401592  0.49409945
   0.49352348  0.52059924  0.53930230
   0.48912322  0.49618609  0.51234244
   0.55701833  0.49867865  0.45867197
   0.52612070  0.49766188  0.48301685
Direct configuration=    16
   0.48612763  0.46271965  0.52695913
   0.45832587  0.50402182  0.49411892
   0.49353776  0.52057429  0.53932196
   0.48912800  0.49617729  0.51234881
   0.55701282  0.49868638  0.45866417
   0.52611858  0.49766122  0.48301758
Direct configuration=    17
   0.48613189  0.46269987  0.52694662
   0.45832681  0.50402910  0.49414300
   0.49355561  0.52054343  0.53934639
   0.48913393  0.49616630  0.51235687
   0.55700559  0.49869606  0.45865471
   0.52611614  0.49766064  0.48301812
Direct configuration=    18
   0.48613688  0.46267510  0.52693139
   0.45832833  0.50403796  0.49417240
   0.49357766  0.52050568  0.53937636
   0.48914102  0.49615273  0.51236718
   0.55699499  0.49870799  0.45864443
   0.52611484  0.49766033  0.48301716
Direct configuration=    19
   0.48614257  0.46264438  0.52691301
   0.45833068  0.50404860  0.49420785
   0.49360467  0.52045992  0.53941268
   0.48914977  0.49613606  0.51238019
   0.55698105  0.49872263  0.45863272
   0.52611388  0.49766049  0.48301504
Direct configuration=    20
   0.48614898  0.46260693  0.52689108
   0.45833443  0.50406113  0.49424996
   0.49363751  0.52040526  0.53945608
   0.48916078  0.49611558  0.51239605
   0.55696600  0.49874058  0.45861695
   0.52610962  0.49766129  0.48301452
Direct configuration=    21
   0.48615594  0.46256190  0.52686520
   0.45834018  0.50407561  0.49429939
   0.49367700  0.52034072  0.53950728
   0.48917392  0.49609026  0.51241569
   0.55694854  0.49876261  0.45859738
   0.52610296  0.49766316  0.48301466
Direct configuration=    22
   0.48616319  0.46250862  0.52683542
   0.45834860  0.50409167  0.49435631
   0.49372359  0.52026584  0.53956645
   0.48918837  0.49606004  0.51243997
   0.55692243  0.49878934  0.45857805
   0.52610026  0.49766650  0.48301054
Direct configuration=    23
   0.48617047  0.46244736  0.52680199
   0.45836010  0.50410883  0.49441957
   0.49377708  0.52018143  0.53963260
   0.48920675  0.49602475  0.51246728
   0.55689981  0.49882213  0.45854925
   0.52608630  0.49767086  0.48301443
Direct configuration=    24
   0.48617728  0.46238027  0.52676648
   0.45837367  0.50412636  0.49448743
   0.49383511  0.52009024  0.53970379
   0.48922462  0.49598539  0.51249876
   0.55685755  0.49885963  0.45853104
   0.52609066  0.49767675  0.48300379
Direct configuration=    25
   0.48617728  0.46237985  0.52676636
   0.45837391  0.50412623  0.49448752
   0.49383541  0.52008984  0.53970392
   0.48922547  0.49598530  0.51249834
   0.55686188  0.49886048  0.45852716
   0.52608513  0.49767649  0.48300834
Direct configuration=    26
   0.48617736  0.46237873  0.52676593
   0.45837434  0.50412609  0.49448819
   0.49383628  0.52008846  0.53970463
   0.48922681  0.49598487  0.51249807
   0.55686745  0.49886223  0.45852154
   0.52607758  0.49767610  0.48301461
Direct configuration=    27
   0.48617739  0.46237852  0.52676581
   0.45837436  0.50412613  0.49448843
   0.49383646  0.52008812  0.53970488
   0.48922678  0.49598474  0.51249826
   0.55686678  0.49886241  0.45852186
   0.52607824  0.49767611  0.48301410
Direct configuration=    28
   0.48617749  0.46237801  0.52676550
   0.45837439  0.50412625  0.49448906
   0.49383692  0.52008727  0.53970550
   0.48922677  0.49598442  0.51249867
   0.55686550  0.49886280  0.45852235
   0.52607944  0.49767611  0.48301316
Direct configuration=    29
   0.48617769  0.46237711  0.52676490
   0.45837441  0.50412651  0.49449021
   0.49383776  0.52008571  0.53970664
   0.48922684  0.49598384  0.51249935
   0.55686378  0.49886344  0.45852282
   0.52608095  0.49767608  0.48301199
Direct configuration=    30
   0.48617802  0.46237578  0.52676400
   0.45837443  0.50412692  0.49449195
   0.49383901  0.52008338  0.53970836
   0.48922705  0.49598298  0.51250025
   0.55686185  0.49886436  0.45852306
   0.52608246  0.49767601  0.48301082
Direct configuration=    31
   0.48617848  0.46237399  0.52676275
   0.45837446  0.50412751  0.49449430
   0.49384069  0.52008023  0.53971069
   0.48922744  0.49598184  0.51250135
   0.55685998  0.49886556  0.45852287
   0.52608367  0.49767588  0.48300991
Direct configuration=    32
   0.48617908  0.46237171  0.52676113
   0.45837449  0.50412828  0.49449730
   0.49384282  0.52007620  0.53971368
   0.48922805  0.49598040  0.51250263
   0.55685835  0.49886707  0.45852209
   0.52608433  0.49767569  0.48300944
Direct configuration=    33
   0.48617992  0.46236855  0.52675885
   0.45837453  0.50412939  0.49450143
   0.49384574  0.52007062  0.53971782
   0.48922903  0.49597842  0.51250426
   0.55685694  0.49886911  0.45852048
   0.52608431  0.49767540  0.48300954
Direct configuration=    34
   0.48618111  0.46236419  0.52675564
   0.45837459  0.50413095  0.49450712
   0.49384973  0.52006290  0.53972357
   0.48923047  0.49597571  0.51250634
   0.55685576  0.49887184  0.45851782
   0.52608346  0.49767499  0.48301036
Direct configuration=    35
   0.48618274  0.46235814  0.52675114
   0.45837466  0.50413318  0.49451496
   0.49385517  0.52005223  0.53973152
   0.48923250  0.49597195  0.51250910
   0.55685454  0.49887552  0.45851408
   0.52608194  0.49767445  0.48301179
Direct configuration=    36
   0.48618500  0.46234973  0.52674480
   0.45837478  0.50413631  0.49452573
   0.49386254  0.52003744  0.53974256
   0.48923523  0.49596673  0.51251284
   0.55685265  0.49888046  0.45850948
   0.52608028  0.49767380  0.48301347
Direct configuration=    37
   0.48618805  0.46233801  0.52673587
   0.45837499  0.50414071  0.49454047
   0.49387245  0.52001696  0.53975783
   0.48923876  0.49595954  0.51251795
   0.55684919  0.49888711  0.45850452
   0.52607939  0.49767305  0.48301483
Direct configuration=    38
   0.48619216  0.46232167  0.52672329
   0.45837538  0.50414684  0.49456050
   0.49388569  0.51998861  0.53977887
   0.48924327  0.49594968  0.51252490
   0.55684335  0.49889608  0.45849967
   0.52608003  0.49767227  0.48301548
Direct configuration=    39
   0.48619751  0.46229947  0.52670635
   0.45837612  0.50415505  0.49458707
   0.49390315  0.51995070  0.53980704
   0.48924906  0.49593659  0.51253404
   0.55683490  0.49890791  0.45849452
   0.52608200  0.49767150  0.48301558
Direct configuration=    40
   0.48620427  0.46226985  0.52668423
   0.45837744  0.50416572  0.49462155
   0.49392589  0.51990130  0.53984388
   0.48925670  0.49591968  0.51254554
   0.55682491  0.49892328  0.45848765
   0.52608341  0.49767081  0.48301656
Direct configuration=    41
   0.48621253  0.46223110  0.52665611
   0.45837973  0.50417922  0.49466531
   0.49395508  0.51983842  0.53989101
   0.48926691  0.49589815  0.51255971
   0.55681471  0.49894302  0.45847725
   0.52608192  0.49767037  0.48302018
Direct configuration=    42
   0.48622223  0.46218121  0.52662101
   0.45838344  0.50419599  0.49471990
   0.49399212  0.51975979  0.53995031
   0.48928010  0.49587090  0.51257740
   0.55680269  0.49896783  0.45846388
   0.52607848  0.49767071  0.48302547
Direct configuration=    43
   0.48623306  0.46211828  0.52657798
   0.45838919  0.50421635  0.49478667
   0.49403847  0.51966322  0.54002345
   0.48929604  0.49583657  0.51260041
   0.55678422  0.49899830  0.45845064
   0.52607774  0.49767275  0.48302829
Direct configuration=    44
   0.48624451  0.46204036  0.52652590
   0.45839794  0.50424037  0.49486662
   0.49409586  0.51954647  0.54011174
   0.48931557  0.49579356  0.51263030
   0.55676071  0.49903568  0.45843588
   0.52607676  0.49767732  0.48303034
Direct configuration=    45
   0.48625565  0.46194639  0.52646423
   0.45841113  0.50426771  0.49496000
   0.49416574  0.51940867  0.54021548
   0.48934033  0.49573996  0.51266742
   0.55673895  0.49908142  0.45841371
   0.52606602  0.49768523  0.48303866
Direct configuration=    46
   0.48626479  0.46183589  0.52639380
   0.45843043  0.50429705  0.49506637
   0.49424841  0.51925062  0.54033347
   0.48936755  0.49567517  0.51271463
   0.55669995  0.49913602  0.45839870
   0.52606659  0.49769849  0.48303590
Direct configuration=    47
   0.48627149  0.46171262  0.52631814
   0.45845691  0.50432596  0.49518068
   0.49434149  0.51907937  0.54045944
   0.48940108  0.49560404  0.51276325
   0.55668248  0.49920039  0.45836115
   0.52603297  0.49771387  0.48305978
Direct configuration=    48
   0.48627097  0.46171193  0.52631812
   0.45845731  0.50432564  0.49518104
   0.49434199  0.51907873  0.54045973
   0.48939979  0.49560365  0.51276469
   0.55667275  0.49920082  0.45836855
   0.52604401  0.49771456  0.48305101
Direct configuration=    49
   0.48626999  0.46171031  0.52631785
   0.45845823  0.50432503  0.49518196
   0.49434331  0.51907706  0.54046051
   0.48939838  0.49560275  0.51276683
   0.55665948  0.49920222  0.45837816
   0.52605841  0.49771556  0.48303968
Direct configuration=    50
   0.48626994  0.46171009  0.52631774
   0.45845835  0.50432500  0.49518210
   0.49434354  0.51907678  0.54046066
   0.48939869  0.49560263  0.51276674
   0.55666069  0.49920253  0.45837703
   0.52605678  0.49771551  0.48304104
Direct configuration=    51
   0.48626986  0.46170957  0.52631745
   0.45845857  0.50432497  0.49518249
   0.49434405  0.51907607  0.54046107
   0.48939929  0.49560231  0.51276663
   0.55666285  0.49920317  0.45837495
   0.52605380  0.49771540  0.48304353
Direct configuration=    52
   0.48626979  0.46170862  0.52631688
   0.45845890  0.50432500  0.49518332
   0.49434497  0.51907468  0.54046192
   0.48940014  0.49560172  0.51276663
   0.55666547  0.49920419  0.45837224
   0.52605002  0.49771526  0.48304671
Direct configuration=    53
   0.48626976  0.46170707  0.52631587
   0.45845930  0.50432517  0.49518480
   0.49434642  0.51907228  0.54046345
   0.48940117  0.49560074  0.51276692
   0.55666777  0.49920564  0.45836943
   0.52604632  0.49771512  0.48304990
Direct configuration=    54
   0.48626982  0.46170487  0.52631435
   0.45845977  0.50432553  0.49518703
   0.49434841  0.51906873  0.54046578
   0.48940226  0.49559932  0.51276763
   0.55666908  0.49920747  0.45836711
   0.52604357  0.49771502  0.48305241
Direct configuration=    55
   0.48626993  0.46170210  0.52631239
   0.45846028  0.50432605  0.49518992
   0.49435085  0.51906419  0.54046881
   0.48940331  0.49559752  0.51276875
   0.55666901  0.49920962  0.45836564
   0.52604227  0.49771497  0.48305384
Direct configuration=    56
   0.48627013  0.46169841  0.52630974
   0.45846089  0.50432682  0.49519385
   0.49435405  0.51905806  0.54047293
   0.48940437  0.49559510  0.51277048
   0.55666722  0.49921232  0.45836512
   0.52604268  0.49771501  0.48305402
Direct configuration=    57
   0.48627044  0.46169352  0.52630620
   0.45846163  0.50432790  0.49519906
   0.49435818  0.51904994  0.54047845
   0.48940548  0.49559193  0.51277292
   0.55666347  0.49921573  0.45836567
   0.52604503  0.49771513  0.48305281
Direct configuration=    58
   0.48627089  0.46168704  0.52630147
   0.45846257  0.50432939  0.49520597
   0.49436355  0.51903917  0.54048583
   0.48940682  0.49558779  0.51277619
   0.55665804  0.49922013  0.45836691
   0.52604883  0.49771531  0.48305066
Direct configuration=    59
   0.48627157  0.46167840  0.52629515
   0.45846380  0.50433145  0.49521510
   0.49437056  0.51902491  0.54049566
   0.48940873  0.49558238  0.51278027
   0.55665225  0.49922590  0.45836760
   0.52605237  0.49771546  0.48304902
Direct configuration=    60
   0.48627255  0.46166714  0.52628693
   0.45846541  0.50433416  0.49522681
   0.49437954  0.51900651  0.54050841
   0.48941166  0.49557551  0.51278501
   0.55664789  0.49923347  0.45836614
   0.52605332  0.49771547  0.48304987
Direct configuration=    61
   0.48627391  0.46165266  0.52627636
   0.45846753  0.50433774  0.49524167
   0.49439088  0.51898306  0.54052477
   0.48941586  0.49556671  0.51279044
   0.55664589  0.49924327  0.45836166
   0.52605043  0.49771531  0.48305428
Direct configuration=    62
   0.48627573  0.46163385  0.52626270
   0.45847027  0.50434247  0.49526071
   0.49440529  0.51895291  0.54054596
   0.48942132  0.49555536  0.51279711
   0.55664459  0.49925588  0.45835524
   0.52604549  0.49771512  0.48306098
Direct configuration=    63
   0.48627804  0.46160953  0.52624521
   0.45847376  0.50434864  0.49528495
   0.49442340  0.51891431  0.54057325
   0.48942749  0.49554080  0.51280603
   0.55663932  0.49927186  0.45835049
   0.52604398  0.49771522  0.48306567
Direct configuration=    64
   0.48628092  0.46157831  0.52622294
   0.45847812  0.50435659  0.49531553
   0.49444591  0.51886519  0.54060803
   0.48943427  0.49552229  0.51281799
   0.55662761  0.49929196  0.45834939
   0.52604873  0.49771582  0.48306622
Direct configuration=    65
   0.48628451  0.46153797  0.52619410
   0.45848369  0.50436697  0.49535408
   0.49447405  0.51880208  0.54065254
   0.48944323  0.49549851  0.51283321
   0.55661481  0.49931786  0.45834769
   0.52605313  0.49771684  0.48306834
Direct configuration=    66
   0.48628875  0.46148658  0.52615694
   0.45849101  0.50438025  0.49540163
   0.49450846  0.51872201  0.54070854
   0.48945621  0.49546836  0.51285104
   0.55660833  0.49935121  0.45834034
   0.52604844  0.49771815  0.48307976
Direct configuration=    67
   0.48629338  0.46142203  0.52611070
   0.45850065  0.50439680  0.49546049
   0.49455101  0.51862227  0.54077833
   0.48947198  0.49543000  0.51287392
   0.55659832  0.49939275  0.45833376
   0.52604543  0.49772090  0.48309118
Direct configuration=    68
   0.48629739  0.46134321  0.52605520
   0.45851358  0.50441618  0.49553089
   0.49460182  0.51850209  0.54086225
   0.48948851  0.49538304  0.51290343
   0.55657585  0.49944290  0.45833612
   0.52605542  0.49772637  0.48309327
Direct configuration=    69
   0.48630032  0.46125074  0.52599170
   0.45853105  0.50443721  0.49561132
   0.49466122  0.51836373  0.54095837
   0.48951023  0.49532878  0.51293474
   0.55657213  0.49950333  0.45832152
   0.52604034  0.49773298  0.48311651
Direct configuration=    70
   0.48630052  0.46114795  0.52592319
   0.45855194  0.50445836  0.49569939
   0.49472711  0.51821149  0.54106360
   0.48952866  0.49526833  0.51297425
   0.55653454  0.49956999  0.45833245
   0.52606333  0.49774434  0.48310926
Direct configuration=    71
   0.48630019  0.46114741  0.52592284
   0.45855234  0.50445814  0.49569951
   0.49472781  0.51821067  0.54106388
   0.48953071  0.49526781  0.51297333
   0.55654361  0.49957142  0.45832483
   0.52605189  0.49774394  0.48311859
Direct configuration=    72
   0.48629934  0.46114602  0.52592204
   0.45855315  0.50445767  0.49570007
   0.49472933  0.51820853  0.54106479
   0.48953365  0.49526651  0.51297259
   0.55655469  0.49957417  0.45831529
   0.52603755  0.49774372  0.48313035
Direct configuration=    73
   0.48629923  0.46114582  0.52592194
   0.45855322  0.50445763  0.49570022
   0.49472948  0.51820821  0.54106498
   0.48953347  0.49526633  0.51297290
   0.55655305  0.49957432  0.45831657
   0.52603944  0.49774389  0.48312884
Direct configuration=    74
   0.48629923  0.46114582  0.52592194
   0.45855322  0.50445763  0.49570022
   0.49472948  0.51820821  0.54106498
   0.48953347  0.49526633  0.51297290
   0.55655305  0.49957432  0.45831657
   0.52603944  0.49774389  0.48312884
