  22  22   0   0
  0.1227273E+04  0.3000000E-08  0.3000000E-08  0.3000000E-08  0.0000000E+00
  1.000000000000000E-004
  CAR 
 unknown system                          
      2.20234995    -28.28547600  301     -4.50417780      1.00000000
    -28.285  0.0000E+00  0.0000E+00
    -28.184  0.0000E+00  0.0000E+00
    -28.082  0.0000E+00  0.0000E+00
    -27.981  0.0000E+00  0.0000E+00
    -27.879  0.0000E+00  0.0000E+00
    -27.777  0.0000E+00  0.0000E+00
    -27.676  0.0000E+00  0.0000E+00
    -27.574  0.0000E+00  0.0000E+00
    -27.472  0.0000E+00  0.0000E+00
    -27.371  0.5426E-15  0.5514E-16
    -27.269  0.1142E-12  0.1166E-13
    -27.168  0.1447E-10  0.1482E-11
    -27.066  0.1104E-08  0.1137E-09
    -26.964  0.5085E-07  0.5282E-08
    -26.863  0.1415E-05  0.1490E-06
    -26.761  0.2382E-04  0.2569E-05
    -26.659  0.2431E-03  0.2727E-04
    -26.558  0.1507E-02  0.1804E-03
    -26.456  0.5681E-02  0.7578E-03
    -26.355  0.1305E-01  0.2084E-02
    -26.253  0.1826E-01  0.3940E-02
    -26.151  0.1559E-01  0.5524E-02
    -26.050  0.8115E-02  0.6349E-02
    -25.948  0.2593E-02  0.6612E-02
    -25.846  0.7134E-03  0.6685E-02
    -25.745  0.1440E-02  0.6831E-02
    -25.643  0.5357E-02  0.7375E-02
    -25.542  0.1263E-01  0.8659E-02
    -25.440  0.1816E-01  0.1050E-01
    -25.338  0.1593E-01  0.1212E-01
    -25.237  0.8515E-02  0.1299E-01
    -25.135  0.2774E-02  0.1327E-01
    -25.033  0.5501E-03  0.1333E-01
    -24.932  0.6628E-04  0.1333E-01
    -24.830  0.4845E-05  0.1333E-01
    -24.729  0.2145E-06  0.1333E-01
    -24.627  0.5743E-08  0.1333E-01
    -24.525  0.9286E-10  0.1333E-01
    -24.424  0.9585E-11  0.1333E-01
    -24.322  0.7008E-09  0.1333E-01
    -24.220  0.3412E-07  0.1333E-01
    -24.119  0.1004E-05  0.1333E-01
    -24.017  0.1786E-04  0.1334E-01
    -23.916  0.1927E-03  0.1335E-01
    -23.814  0.1262E-02  0.1348E-01
    -23.712  0.5027E-02  0.1399E-01
    -23.611  0.1219E-01  0.1523E-01
    -23.509  0.1803E-01  0.1707E-01
    -23.407  0.1626E-01  0.1872E-01
    -23.306  0.8937E-02  0.1963E-01
    -23.204  0.2994E-02  0.1993E-01
    -23.103  0.6157E-03  0.1999E-01
    -23.001  0.1475E-03  0.2001E-01
    -22.899  0.5919E-03  0.2007E-01
    -22.798  0.2907E-02  0.2036E-01
    -22.696  0.8772E-02  0.2125E-01
    -22.594  0.1613E-01  0.2289E-01
    -22.493  0.1808E-01  0.2473E-01
    -22.391  0.1236E-01  0.2599E-01
    -22.290  0.5152E-02  0.2651E-01
    -22.188  0.1308E-02  0.2664E-01
    -22.086  0.2018E-03  0.2666E-01
    -21.985  0.1892E-04  0.2667E-01
    -21.883  0.1075E-05  0.2667E-01
    -21.781  0.3694E-07  0.2667E-01
    -21.680  0.7672E-09  0.2667E-01
    -21.578  0.9610E-11  0.2667E-01
    -21.477  0.7250E-13  0.2667E-01
    -21.375  0.3350E-15  0.2667E-01
    -21.273  0.0000E+00  0.2667E-01
    -21.172  0.0000E+00  0.2667E-01
    -21.070  0.0000E+00  0.2667E-01
    -20.968  0.0000E+00  0.2667E-01
    -20.867  0.0000E+00  0.2667E-01
    -20.765  0.7647E-16  0.2667E-01
    -20.664  0.1930E-13  0.2667E-01
    -20.562  0.2911E-11  0.2667E-01
    -20.460  0.2643E-09  0.2667E-01
    -20.359  0.1447E-07  0.2667E-01
    -20.257  0.4785E-06  0.2667E-01
    -20.155  0.9568E-05  0.2667E-01
    -20.054  0.1159E-03  0.2668E-01
    -19.952  0.8525E-03  0.2677E-01
    -19.851  0.3811E-02  0.2715E-01
    -19.749  0.1037E-01  0.2821E-01
    -19.647  0.1721E-01  0.2996E-01
    -19.546  0.1740E-01  0.3172E-01
    -19.444  0.1073E-01  0.3282E-01
    -19.342  0.4034E-02  0.3323E-01
    -19.241  0.9232E-03  0.3332E-01
    -19.139  0.1285E-03  0.3333E-01
    -19.038  0.1085E-04  0.3333E-01
    -18.936  0.6777E-06  0.3333E-01
    -18.834  0.3022E-05  0.3333E-01
    -18.733  0.4463E-04  0.3334E-01
    -18.631  0.4020E-03  0.3338E-01
    -18.529  0.2200E-02  0.3360E-01
    -18.428  0.7328E-02  0.3435E-01
    -18.326  0.1487E-01  0.3586E-01
    -18.224  0.1839E-01  0.3773E-01
    -18.123  0.1387E-01  0.3914E-01
    -18.021  0.6377E-02  0.3978E-01
    -17.920  0.1788E-02  0.3997E-01
    -17.818  0.3372E-03  0.4000E-01
    -17.716  0.3465E-03  0.4004E-01
    -17.615  0.1835E-02  0.4022E-01
    -17.513  0.6489E-02  0.4088E-01
    -17.411  0.1399E-01  0.4230E-01
    -17.310  0.1840E-01  0.4417E-01
    -17.208  0.1475E-01  0.4567E-01
    -17.107  0.7208E-02  0.4640E-01
    -17.005  0.2146E-02  0.4662E-01
    -16.903  0.3888E-03  0.4666E-01
    -16.802  0.4281E-04  0.4667E-01
    -16.700  0.3282E-05  0.4667E-01
    -16.598  0.8771E-05  0.4667E-01
    -16.497  0.1068E-03  0.4668E-01
    -16.395  0.7997E-03  0.4676E-01
    -16.294  0.3641E-02  0.4713E-01
    -16.192  0.1009E-01  0.4816E-01
    -16.090  0.1704E-01  0.4989E-01
    -15.989  0.1755E-01  0.5167E-01
    -15.887  0.1102E-01  0.5279E-01
    -15.785  0.4217E-02  0.5322E-01
    -15.684  0.9826E-03  0.5332E-01
    -15.582  0.1393E-03  0.5333E-01
    -15.481  0.1346E-04  0.5333E-01
    -15.379  0.2540E-04  0.5334E-01
    -15.277  0.2510E-03  0.5336E-01
    -15.176  0.1544E-02  0.5352E-01
    -15.074  0.5776E-02  0.5411E-01
    -14.972  0.1316E-01  0.5544E-01
    -14.871  0.1829E-01  0.5730E-01
    -14.769  0.1549E-01  0.5888E-01
    -14.668  0.8001E-02  0.5969E-01
    -14.566  0.2518E-02  0.5994E-01
    -14.464  0.4839E-03  0.5999E-01
    -14.363  0.8456E-04  0.6000E-01
    -14.261  0.2844E-03  0.6003E-01
    -14.159  0.1680E-02  0.6020E-01
    -14.058  0.6117E-02  0.6082E-01
    -13.956  0.1357E-01  0.6220E-01
    -13.855  0.1835E-01  0.6407E-01
    -13.753  0.1514E-01  0.6561E-01
    -13.651  0.7616E-02  0.6638E-01
    -13.550  0.2397E-02  0.6662E-01
    -13.448  0.9772E-03  0.6672E-01
    -13.346  0.2795E-02  0.6701E-01
    -13.245  0.8464E-02  0.6787E-01
    -13.143  0.1588E-01  0.6948E-01
    -13.042  0.1818E-01  0.7133E-01
    -12.940  0.1275E-01  0.7262E-01
    -12.838  0.5902E-02  0.7322E-01
    -12.737  0.4003E-02  0.7363E-01
    -12.635  0.8398E-02  0.7448E-01
    -12.533  0.1567E-01  0.7608E-01
    -12.432  0.1825E-01  0.7793E-01
    -12.330  0.1298E-01  0.7925E-01
    -12.229  0.5629E-02  0.7982E-01
    -12.127  0.1501E-02  0.7997E-01
    -12.025  0.4066E-03  0.8002E-01
    -11.924  0.1163E-02  0.8013E-01
    -11.822  0.4752E-02  0.8062E-01
    -11.720  0.1236E-01  0.8187E-01
    -11.619  0.2108E-01  0.8402E-01
    -11.517  0.2602E-01  0.8666E-01
    -11.416  0.2628E-01  0.8933E-01
    -11.314  0.2272E-01  0.9164E-01
    -11.212  0.1834E-01  0.9350E-01
    -11.111  0.1815E-01  0.9535E-01
    -11.009  0.1979E-01  0.9736E-01
    -10.907  0.1743E-01  0.9913E-01
    -10.806  0.1480E-01  0.1006E+00
    -10.704  0.1862E-01  0.1025E+00
    -10.603  0.2597E-01  0.1052E+00
    -10.501  0.2954E-01  0.1082E+00
    -10.399  0.2692E-01  0.1109E+00
    -10.298  0.2278E-01  0.1132E+00
    -10.196  0.2680E-01  0.1159E+00
    -10.094  0.4083E-01  0.1201E+00
     -9.993  0.5061E-01  0.1252E+00
     -9.891  0.4323E-01  0.1296E+00
     -9.790  0.2473E-01  0.1321E+00
     -9.688  0.1002E-01  0.1332E+00
     -9.586  0.5899E-02  0.1338E+00
     -9.485  0.1089E-01  0.1349E+00
     -9.383  0.1984E-01  0.1369E+00
     -9.281  0.2730E-01  0.1397E+00
     -9.180  0.3291E-01  0.1430E+00
     -9.078  0.3728E-01  0.1468E+00
     -8.977  0.3704E-01  0.1506E+00
     -8.875  0.3245E-01  0.1539E+00
     -8.773  0.2689E-01  0.1566E+00
     -8.672  0.1970E-01  0.1586E+00
     -8.570  0.1228E-01  0.1598E+00
     -8.468  0.1072E-01  0.1609E+00
     -8.367  0.1555E-01  0.1625E+00
     -8.265  0.1848E-01  0.1644E+00
     -8.164  0.1392E-01  0.1658E+00
     -8.062  0.6415E-02  0.1664E+00
     -7.960  0.1802E-02  0.1666E+00
     -7.859  0.3078E-03  0.1667E+00
     -7.757  0.3195E-04  0.1667E+00
     -7.655  0.2011E-05  0.1667E+00
     -7.554  0.7662E-07  0.1667E+00
     -7.452  0.2131E-08  0.1667E+00
     -7.351  0.1935E-07  0.1667E+00
     -7.249  0.6145E-06  0.1667E+00
     -7.147  0.1182E-04  0.1667E+00
     -7.046  0.1378E-03  0.1667E+00
     -6.944  0.9752E-03  0.1668E+00
     -6.842  0.4205E-02  0.1672E+00
     -6.741  0.1112E-01  0.1683E+00
     -6.639  0.1852E-01  0.1702E+00
     -6.537  0.2130E-01  0.1724E+00
     -6.436  0.2118E-01  0.1745E+00
     -6.334  0.2123E-01  0.1767E+00
     -6.233  0.1785E-01  0.1785E+00
     -6.131  0.1040E-01  0.1796E+00
     -6.029  0.5130E-02  0.1801E+00
     -5.928  0.6497E-02  0.1807E+00
     -5.826  0.1351E-01  0.1821E+00
     -5.724  0.2037E-01  0.1842E+00
     -5.623  0.2273E-01  0.1865E+00
     -5.521  0.2280E-01  0.1888E+00
     -5.420  0.2099E-01  0.1909E+00
     -5.318  0.1459E-01  0.1924E+00
     -5.216  0.6634E-02  0.1931E+00
     -5.115  0.1874E-02  0.1933E+00
     -5.013  0.3235E-03  0.1933E+00
     -4.911  0.3398E-04  0.1933E+00
     -4.810  0.2164E-05  0.1933E+00
     -4.708  0.8348E-07  0.1933E+00
     -4.607  0.1946E-08  0.1933E+00
     -4.505  0.2736E-10  0.1933E+00
     -4.403  0.2318E-12  0.1933E+00
     -4.302  0.1187E-14  0.1933E+00
     -4.200  0.0000E+00  0.1933E+00
     -4.098  0.0000E+00  0.1933E+00
     -3.997  0.0000E+00  0.1933E+00
     -3.895  0.0000E+00  0.1933E+00
     -3.794  0.0000E+00  0.1933E+00
     -3.692  0.0000E+00  0.1933E+00
     -3.590  0.0000E+00  0.1933E+00
     -3.489  0.0000E+00  0.1933E+00
     -3.387  0.0000E+00  0.1933E+00
     -3.285  0.0000E+00  0.1933E+00
     -3.184  0.0000E+00  0.1933E+00
     -3.082  0.0000E+00  0.1933E+00
     -2.981  0.0000E+00  0.1933E+00
     -2.879  0.0000E+00  0.1933E+00
     -2.777  0.0000E+00  0.1933E+00
     -2.676  0.0000E+00  0.1933E+00
     -2.574  0.0000E+00  0.1933E+00
     -2.472  0.0000E+00  0.1933E+00
     -2.371  0.0000E+00  0.1933E+00
     -2.269  0.8740E-16  0.1933E+00
     -2.168  0.2182E-13  0.1933E+00
     -2.066  0.3286E-11  0.1933E+00
     -1.964  0.2991E-09  0.1933E+00
     -1.863  0.1650E-07  0.1933E+00
     -1.761  0.5534E-06  0.1933E+00
     -1.659  0.1133E-04  0.1933E+00
     -1.558  0.1424E-03  0.1933E+00
     -1.456  0.1104E-02  0.1935E+00
     -1.355  0.5313E-02  0.1940E+00
     -1.253  0.1595E-01  0.1956E+00
     -1.151  0.3001E-01  0.1987E+00
     -1.050  0.3551E-01  0.2023E+00
     -0.948  0.2645E-01  0.2050E+00
     -0.846  0.1251E-01  0.2062E+00
     -0.745  0.4630E-02  0.2067E+00
     -0.643  0.5067E-02  0.2072E+00
     -0.542  0.1230E-01  0.2085E+00
     -0.440  0.2319E-01  0.2108E+00
     -0.338  0.3466E-01  0.2144E+00
     -0.237  0.4759E-01  0.2192E+00
     -0.135  0.6317E-01  0.2256E+00
     -0.033  0.8285E-01  0.2340E+00
      0.068  0.1062E+00  0.2448E+00
      0.170  0.1160E+00  0.2566E+00
      0.271  0.9281E-01  0.2660E+00
      0.373  0.4995E-01  0.2711E+00
      0.475  0.1739E-01  0.2729E+00
      0.576  0.3842E-02  0.2733E+00
      0.678  0.5326E-03  0.2733E+00
      0.780  0.4596E-04  0.2733E+00
      0.881  0.2452E-05  0.2733E+00
      0.983  0.8047E-07  0.2733E+00
      1.084  0.1616E-08  0.2733E+00
      1.186  0.1979E-10  0.2733E+00
      1.288  0.1472E-12  0.2733E+00
      1.389  0.6591E-15  0.2733E+00
      1.491  0.0000E+00  0.2733E+00
      1.593  0.0000E+00  0.2733E+00
      1.694  0.0000E+00  0.2733E+00
      1.796  0.0000E+00  0.2733E+00
      1.897  0.0000E+00  0.2733E+00
      1.999  0.0000E+00  0.2733E+00
      2.101  0.0000E+00  0.2733E+00
      2.202  0.0000E+00  0.2733E+00
