   22   22  300    1
  0.1227273E+04  0.3000000E-08  0.3000000E-08  0.3000000E-08  0.0000000E+00
  1.000000000000000E-004
  CAR 
 unknown system                          
     58      4     41
 
  0.2500000E+00  0.2500000E+00  0.2500000E+00  0.2500000E+00
    1      -26.285476   1.000000
    2      -25.466929   1.000000
    3      -23.530323   1.000000
    4      -22.570915   1.000000
    5      -19.644923   1.000000
    6      -18.282439   1.000000
    7      -17.355282   1.000000
    8      -16.084311   1.000000
    9      -14.904916   1.000000
   10      -13.894158   1.000000
   11      -13.115460   1.000000
   12      -12.501803   1.000000
   13      -11.633446   1.000000
   14      -11.400235   1.000000
   15      -11.045333   1.000000
   16      -10.649113   1.000000
   17      -10.453828   1.000000
   18      -10.103920   1.000000
   19      -10.034567   1.000000
   20       -9.951692   1.000000
   21       -9.376252   1.000000
   22       -9.145680   1.000000
   23       -9.017226   1.000000
   24       -8.785126   1.000000
   25       -8.322497   1.000000
   26       -6.644675   1.000000
   27       -6.340735   1.000000
   28       -5.756674   1.000000
   29       -5.474494   1.000000
   30       -1.150958   0.000000
   31       -1.077883   0.000000
   32       -0.446783   0.000000
   33       -0.237763   0.000000
   34       -0.163683   0.000000
   35       -0.054739   0.000000
   36        0.045753   0.000000
   37        0.102516   0.000000
   38        0.134734   0.000000
   39        0.141017   0.000000
   40        0.169751   0.000000
   41        0.202350   0.000000
 
 -0.2500000E+00  0.2500000E+00  0.2500000E+00  0.2500000E+00
    1      -26.285475   1.000000
    2      -25.466927   1.000000
    3      -23.530324   1.000000
    4      -22.570915   1.000000
    5      -19.644924   1.000000
    6      -18.282438   1.000000
    7      -17.355281   1.000000
    8      -16.084313   1.000000
    9      -14.904919   1.000000
   10      -13.894164   1.000000
   11      -13.115448   1.000000
   12      -12.501796   1.000000
   13      -11.633451   1.000000
   14      -11.400229   1.000000
   15      -11.045327   1.000000
   16      -10.649107   1.000000
   17      -10.453816   1.000000
   18      -10.103919   1.000000
   19      -10.034572   1.000000
   20       -9.951685   1.000000
   21       -9.376252   1.000000
   22       -9.145676   1.000000
   23       -9.017230   1.000000
   24       -8.785126   1.000000
   25       -8.322512   1.000000
   26       -6.644654   1.000000
   27       -6.340739   1.000000
   28       -5.756679   1.000000
   29       -5.474485   1.000000
   30       -1.150961   0.000000
   31       -1.077884   0.000000
   32       -0.446786   0.000000
   33       -0.237761   0.000000
   34       -0.163579   0.000000
   35       -0.055218   0.000000
   36        0.046540   0.000000
   37        0.101106   0.000000
   38        0.128189   0.000000
   39        0.144963   0.000000
   40        0.187242   0.000000
   41        0.200522   0.000000
 
  0.2500000E+00 -0.2500000E+00  0.2500000E+00  0.2500000E+00
    1      -26.285476   1.000000
    2      -25.466926   1.000000
    3      -23.530323   1.000000
    4      -22.570915   1.000000
    5      -19.644922   1.000000
    6      -18.282439   1.000000
    7      -17.355278   1.000000
    8      -16.084316   1.000000
    9      -14.904922   1.000000
   10      -13.894169   1.000000
   11      -13.115455   1.000000
   12      -12.501793   1.000000
   13      -11.633444   1.000000
   14      -11.400241   1.000000
   15      -11.045338   1.000000
   16      -10.649114   1.000000
   17      -10.453820   1.000000
   18      -10.103918   1.000000
   19      -10.034559   1.000000
   20       -9.951691   1.000000
   21       -9.376257   1.000000
   22       -9.145680   1.000000
   23       -9.017219   1.000000
   24       -8.785122   1.000000
   25       -8.322504   1.000000
   26       -6.644661   1.000000
   27       -6.340739   1.000000
   28       -5.756675   1.000000
   29       -5.474494   1.000000
   30       -1.150965   0.000000
   31       -1.077884   0.000000
   32       -0.446783   0.000000
   33       -0.237784   0.000000
   34       -0.163614   0.000000
   35       -0.053914   0.000000
   36        0.038324   0.000000
   37        0.114228   0.000000
   38        0.126270   0.000000
   39        0.145869   0.000000
   40        0.190682   0.000000
   41        0.197199   0.000000
 
 -0.2500000E+00 -0.2500000E+00  0.2500000E+00  0.2500000E+00
    1      -26.285476   1.000000
    2      -25.466924   1.000000
    3      -23.530325   1.000000
    4      -22.570915   1.000000
    5      -19.644922   1.000000
    6      -18.282439   1.000000
    7      -17.355278   1.000000
    8      -16.084316   1.000000
    9      -14.904919   1.000000
   10      -13.894162   1.000000
   11      -13.115460   1.000000
   12      -12.501801   1.000000
   13      -11.633455   1.000000
   14      -11.400232   1.000000
   15      -11.045334   1.000000
   16      -10.649108   1.000000
   17      -10.453823   1.000000
   18      -10.103926   1.000000
   19      -10.034569   1.000000
   20       -9.951688   1.000000
   21       -9.376252   1.000000
   22       -9.145667   1.000000
   23       -9.017220   1.000000
   24       -8.785121   1.000000
   25       -8.322501   1.000000
   26       -6.644662   1.000000
   27       -6.340744   1.000000
   28       -5.756682   1.000000
   29       -5.474493   1.000000
   30       -1.150954   0.000000
   31       -1.077884   0.000000
   32       -0.446787   0.000000
   33       -0.237793   0.000000
   34       -0.163611   0.000000
   35       -0.053978   0.000000
   36        0.038943   0.000000
   37        0.119619   0.000000
   38        0.128562   0.000000
   39        0.139320   0.000000
   40        0.172998   0.000000
   41        0.195833   0.000000
