 vasp.5.4.1 24Jun15 (build Jan 13 2020 12:58:22) complex                        
  
 executed on           IFC91_ompi date 2020.02.03  09:56:59
 running on   15 total cores
 each image running on    1 cores
 distrk:  each k-point on    1 cores,    1 groups
 distr:  one band on NCORES_PER_BAND=   1 cores,    1 groups


--------------------------------------------------------------------------------------------------------


 INCAR:
 POTCAR:    PAW_PBE H 15Jun2001                   
 POTCAR:    PAW_PBE C 08Apr2002                   
 POTCAR:    PAW_PBE N 08Apr2002                   
 POTCAR:    PAW_PBE O 08Apr2002                   
 POTCAR:    PAW_PBE H 15Jun2001                   
   VRHFIN =H: ultrasoft test                                                    
   LEXCH  = PE                                                                  
   EATOM  =    12.4884 eV,    0.9179 Ry                                         
                                                                                
   TITEL  = PAW_PBE H 15Jun2001                                                 
   LULTRA =        F    use ultrasoft PP ?                                      
   IUNSCR =        0    unscreen: 0-lin 1-nonlin 2-no                           
   RPACOR =    0.000    partial core radius                                     
   POMASS =    1.000; ZVAL   =    1.000    mass and valenz                      
   RCORE  =    1.100    outmost cutoff radius                                   
   RWIGS  =    0.700; RWIGS  =    0.370    wigner-seitz radius (au A)           
   ENMAX  =  250.000; ENMIN  =  200.000 eV                                      
   RCLOC  =    0.701    cutoff for local pot                                    
   LCOR   =        T    correct aug charges                                     
   LPAW   =        T    paw PP                                                  
   EAUG   =  400.000                                                            
   RMAX   =    1.123    core radius for proj-oper                               
   RAUG   =    1.200    factor for augmentation sphere                          
   RDEP   =    1.112    radius for radial grids                                 
   RDEPT  =    0.926    core radius for aug-charge                              
                                                                                
   Atomic configuration                                                         
    2 entries                                                                   
     n  l   j            E        occ.                                          
     1  0  0.50        -6.4927   1.0000                                         
     2  1  0.50        -3.4015   0.0000                                         
   Description                                                                  
     l       E           TYP  RCUT    TYP  RCUT                                 
     0     -6.4927494     23  1.100                                             
     0      6.8029130     23  1.100                                             
     1     -4.0817478     23  1.100                                             
  local pseudopotential read in
  atomic valenz-charges read in
  non local Contribution for L=           0  read in
    real space projection operators read in
  non local Contribution for L=           0  read in
    real space projection operators read in
  non local Contribution for L=           1  read in
    real space projection operators read in
    PAW grid and wavefunctions read in
 
   number of l-projection  operators is LMAX  =           3
   number of lm-projection operators is LMMAX =           5
 
 POTCAR:    PAW_PBE C 08Apr2002                   
   VRHFIN =C: s2p2                                                              
   LEXCH  = PE                                                                  
   EATOM  =   147.1560 eV,   10.8157 Ry                                         
                                                                                
   TITEL  = PAW_PBE C 08Apr2002                                                 
   LULTRA =        F    use ultrasoft PP ?                                      
   IUNSCR =        1    unscreen: 0-lin 1-nonlin 2-no                           
   RPACOR =    1.200    partial core radius                                     
   POMASS =   12.011; ZVAL   =    4.000    mass and valenz                      
   RCORE  =    1.500    outmost cutoff radius                                   
   RWIGS  =    1.630; RWIGS  =    0.863    wigner-seitz radius (au A)           
   ENMAX  =  400.000; ENMIN  =  300.000 eV                                      
   ICORE  =        2    local potential                                         
   LCOR   =        T    correct aug charges                                     
   LPAW   =        T    paw PP                                                  
   EAUG   =  644.873                                                            
   DEXC   =    0.000                                                            
   RMAX   =    1.529    core radius for proj-oper                               
   RAUG   =    1.300    factor for augmentation sphere                          
   RDEP   =    1.501    radius for radial grids                                 
   RDEPT  =    1.300    core radius for aug-charge                              
                                                                                
   Atomic configuration                                                         
    4 entries                                                                   
     n  l   j            E        occ.                                          
     1  0  0.50      -273.3789   2.0000                                         
     2  0  0.50       -13.7508   2.0000                                         
     2  1  0.50        -5.2854   2.0000                                         
     3  2  1.50        -5.4423   0.0000                                         
   Description                                                                  
     l       E           TYP  RCUT    TYP  RCUT                                 
     0    -13.7508458     23  1.200                                             
     0     -8.2022199     23  1.200                                             
     1     -5.2854383     23  1.500                                             
     1     34.0145650     23  1.500                                             
     2     -5.4423304      7  1.500                                             
  local pseudopotential read in
  partial core-charges read in
  partial kinetic energy density read in
  atomic valenz-charges read in
  non local Contribution for L=           0  read in
    real space projection operators read in
  non local Contribution for L=           0  read in
    real space projection operators read in
  non local Contribution for L=           1  read in
    real space projection operators read in
  non local Contribution for L=           1  read in
    real space projection operators read in
    PAW grid and wavefunctions read in
 
   number of l-projection  operators is LMAX  =           4
   number of lm-projection operators is LMMAX =           8
 
 POTCAR:    PAW_PBE N 08Apr2002                   
   VRHFIN =N: s2p3                                                              
   LEXCH  = PE                                                                  
   EATOM  =   264.5486 eV,   19.4438 Ry                                         
                                                                                
   TITEL  = PAW_PBE N 08Apr2002                                                 
   LULTRA =        F    use ultrasoft PP ?                                      
   IUNSCR =        1    unscreen: 0-lin 1-nonlin 2-no                           
   RPACOR =    1.200    partial core radius                                     
   POMASS =   14.001; ZVAL   =    5.000    mass and valenz                      
   RCORE  =    1.500    outmost cutoff radius                                   
   RWIGS  =    1.400; RWIGS  =    0.741    wigner-seitz radius (au A)           
   ENMAX  =  400.000; ENMIN  =  300.000 eV                                      
   ICORE  =        2    local potential                                         
   LCOR   =        T    correct aug charges                                     
   LPAW   =        T    paw PP                                                  
   EAUG   =  627.112                                                            
   DEXC   =    0.000                                                            
   RMAX   =    1.529    core radius for proj-oper                               
   RAUG   =    1.300    factor for augmentation sphere                          
   RDEP   =    1.514    radius for radial grids                                 
   RDEPT  =    1.338    core radius for aug-charge                              
                                                                                
   Atomic configuration                                                         
    4 entries                                                                   
     n  l   j            E        occ.                                          
     1  0  0.50      -384.7179   2.0000                                         
     2  0  0.50       -18.5828   2.0000                                         
     2  1  0.50        -7.0898   3.0000                                         
     3  2  1.50        -6.8029   0.0000                                         
   Description                                                                  
     l       E           TYP  RCUT    TYP  RCUT                                 
     0    -18.5828119     23  1.200                                             
     0    -13.5018863     23  1.200                                             
     1     -7.0897853     23  1.500                                             
     1      9.5240782     23  1.500                                             
     2     -6.8029130      7  1.500                                             
  local pseudopotential read in
  partial core-charges read in
  partial kinetic energy density read in
  atomic valenz-charges read in
  non local Contribution for L=           0  read in
    real space projection operators read in
  non local Contribution for L=           0  read in
    real space projection operators read in
  non local Contribution for L=           1  read in
    real space projection operators read in
  non local Contribution for L=           1  read in
    real space projection operators read in
    PAW grid and wavefunctions read in
 
   number of l-projection  operators is LMAX  =           4
   number of lm-projection operators is LMMAX =           8
 
 POTCAR:    PAW_PBE O 08Apr2002                   
   VRHFIN =O: s2p4                                                              
   LEXCH  = PE                                                                  
   EATOM  =   432.3788 eV,   31.7789 Ry                                         
                                                                                
   TITEL  = PAW_PBE O 08Apr2002                                                 
   LULTRA =        F    use ultrasoft PP ?                                      
   IUNSCR =        1    unscreen: 0-lin 1-nonlin 2-no                           
   RPACOR =    1.200    partial core radius                                     
   POMASS =   16.000; ZVAL   =    6.000    mass and valenz                      
   RCORE  =    1.520    outmost cutoff radius                                   
   RWIGS  =    1.550; RWIGS  =    0.820    wigner-seitz radius (au A)           
   ENMAX  =  400.000; ENMIN  =  300.000 eV                                      
   ICORE  =        2    local potential                                         
   LCOR   =        T    correct aug charges                                     
   LPAW   =        T    paw PP                                                  
   EAUG   =  605.392                                                            
   DEXC   =    0.000                                                            
   RMAX   =    1.553    core radius for proj-oper                               
   RAUG   =    1.300    factor for augmentation sphere                          
   RDEP   =    1.550    radius for radial grids                                 
   RDEPT  =    1.329    core radius for aug-charge                              
                                                                                
   Atomic configuration                                                         
    4 entries                                                                   
     n  l   j            E        occ.                                          
     1  0  0.50      -514.6923   2.0000                                         
     2  0  0.50       -23.9615   2.0000                                         
     2  1  0.50        -9.0305   4.0000                                         
     3  2  1.50        -9.5241   0.0000                                         
   Description                                                                  
     l       E           TYP  RCUT    TYP  RCUT                                 
     0    -23.9615318     23  1.200                                             
     0     -9.5240782     23  1.200                                             
     1     -9.0304911     23  1.520                                             
     1      8.1634956     23  1.520                                             
     2     -9.5240782      7  1.500                                             
  local pseudopotential read in
  partial core-charges read in
  partial kinetic energy density read in
  kinetic energy density of atom read in
  atomic valenz-charges read in
  non local Contribution for L=           0  read in
    real space projection operators read in
  non local Contribution for L=           0  read in
    real space projection operators read in
  non local Contribution for L=           1  read in
    real space projection operators read in
  non local Contribution for L=           1  read in
    real space projection operators read in
    PAW grid and wavefunctions read in
 
   number of l-projection  operators is LMAX  =           4
   number of lm-projection operators is LMMAX =           8
 
 Optimization of the real space projectors (new method)

 maximal supplied QI-value         = 34.20
 optimisation between [QCUT,QGAM] = [  9.92, 20.18] = [ 27.55,114.04] Ry 
 Optimized for a Real-space Cutoff    1.26 Angstroem

   l    n(q)    QCUT    max X(q) W(low)/X(q) W(high)/X(q)  e(spline) 
   0      8     9.919    19.460    0.50E-03    0.23E-03    0.29E-06
   0      8     9.919    12.209    0.48E-03    0.23E-03    0.28E-06
   1      7     9.919     4.655    0.17E-03    0.75E-03    0.30E-06
 Optimization of the real space projectors (new method)

 maximal supplied QI-value         = 25.13
 optimisation between [QCUT,QGAM] = [ 10.05, 20.36] = [ 28.30,116.06] Ry 
 Optimized for a Real-space Cutoff    1.30 Angstroem

   l    n(q)    QCUT    max X(q) W(low)/X(q) W(high)/X(q)  e(spline) 
   0      8    10.053   115.676    0.49E-03    0.72E-03    0.18E-06
   0      8    10.053    87.132    0.49E-03    0.71E-03    0.18E-06
   1      7    10.053     4.429    0.32E-03    0.31E-03    0.18E-06
   1      7    10.053     2.733    0.23E-03    0.19E-03    0.20E-06
 Optimization of the real space projectors (new method)

 maximal supplied QI-value         = 25.13
 optimisation between [QCUT,QGAM] = [ 10.05, 20.36] = [ 28.30,116.06] Ry 
 Optimized for a Real-space Cutoff    1.65 Angstroem

   l    n(q)    QCUT    max X(q) W(low)/X(q) W(high)/X(q)  e(spline) 
   0     10    10.053    79.467    0.76E-04    0.72E-04    0.56E-06
   0     10    10.053    66.151    0.76E-04    0.72E-04    0.55E-06
   1     10    10.053     8.350    0.25E-03    0.92E-03    0.41E-05
   1     10    10.053     5.531    0.27E-03    0.10E-02    0.45E-05
 Optimization of the real space projectors (new method)

 maximal supplied QI-value         = 24.76
 optimisation between [QCUT,QGAM] = [ 10.15, 20.30] = [ 28.85,115.39] Ry 
 Optimized for a Real-space Cutoff    1.38 Angstroem

   l    n(q)    QCUT    max X(q) W(low)/X(q) W(high)/X(q)  e(spline) 
   0      8    10.150    20.381    0.22E-03    0.32E-03    0.29E-06
   0      8    10.150    15.268    0.23E-03    0.35E-03    0.30E-06
   1      8    10.150     5.964    0.46E-03    0.53E-03    0.21E-06
   1      8    10.150     5.382    0.38E-03    0.45E-03    0.19E-06
  PAW_PBE H 15Jun2001                   :
 energy of atom  1       EATOM=  -12.4884
 kinetic energy error for atom=    0.0098 (will be added to EATOM!!)
  PAW_PBE C 08Apr2002                   :
 energy of atom  2       EATOM= -147.1560
 kinetic energy error for atom=    0.0288 (will be added to EATOM!!)
  PAW_PBE N 08Apr2002                   :
 energy of atom  3       EATOM= -264.5486
 kinetic energy error for atom=    0.0736 (will be added to EATOM!!)
  PAW_PBE O 08Apr2002                   :
 energy of atom  4       EATOM= -432.3788
 kinetic energy error for atom=    0.1156 (will be added to EATOM!!)
 
 
 POSCAR: H12 C6 N2 O2                            
  positions in direct lattice
  velocities in cartesian coordinates
 exchange correlation table for  LEXCH =        8
   RHO(1)=    0.500       N(1)  =     2000
   RHO(2)=  100.500       N(2)  =     4000

 VTST: version 3.2, (02/03/18)

 CHAIN: initializing optimizer
 
 OPT: Using FIRE optimizer
 OPT: FIRE, Init
 OPT: FIRE, MAXMOVE       0.20000
 OPT: FIRE, TIMESTEP      0.10000
 OPT: FIRE, FTIMEMAX      1.00000
 OPT: FIRE, FTIMEINC      1.10000
 OPT: FIRE, FTIMEDEC      0.50000
 OPT: FIRE, FALPHADEC     0.99000
 OPT: FIRE, FALPHA        0.10000
 OPT: FIRE, FNMIN         5
 
 CHAIN: Read ICHAIN            0
 CHAIN: Running the NEB
 NEB:          SPRING     -5.000000
 NEB:          LCLIMB      T
 NEB:     LTANGENTOLD      F
 NEB:           LDNEB      F
 NEB:        LDNEBORG      F
 NEB:        LNEBCELL      F
 NEB:          EFIRST      0.000000
 NEB:           ELAST      0.000000
 
 POSCAR: H12 C6 N2 O2                            
  positions in direct lattice
  No initial velocities read in
 
 POSCAR: H12 C6 N2 O2                            
  positions in direct lattice
  No initial velocities read in
 


--------------------------------------------------------------------------------------------------------


 ion  position               nearest neighbor table
   1  0.374  0.534  0.497-  13 1.10
   2  0.381  0.478  0.480-  13 1.10
   3  0.377  0.491  0.538-  13 1.10
   4  0.449  0.447  0.525-  19 1.02
   5  0.522  0.445  0.543-  15 1.10
   6  0.556  0.420  0.473-  16 1.10
   7  0.514  0.449  0.441-  16 1.10
   8  0.499  0.403  0.476-  16 1.10
   9  0.511  0.551  0.498-  20 1.04
  10  0.599  0.577  0.528-  18 1.10
  11  0.602  0.566  0.470-  18 1.10
  12  0.564  0.607  0.490-  18 1.10
  13  0.390  0.503  0.506-   1 1.10   3 1.10   2 1.10  14 1.53
  14  0.440  0.511  0.507-  21 1.24  19 1.36  13 1.53
  15  0.514  0.464  0.513-   5 1.10  19 1.49  16 1.54  17 1.55
  16  0.521  0.432  0.473-   6 1.10   7 1.10   8 1.10  15 1.54
  17  0.552  0.499  0.511-  22 1.24  20 1.34  15 1.55
  18  0.579  0.574  0.497-  12 1.10  10 1.10  11 1.10  20 1.45
  19  0.466  0.475  0.517-   4 1.02  14 1.36  15 1.49
  20  0.544  0.542  0.502-   9 1.04  17 1.34  18 1.45
  21  0.454  0.549  0.498-  14 1.24
  22  0.590  0.483  0.518-  17 1.24
 
  LATTYP: Found a simple cubic cell.
 ALAT       =    30.0000000000
  
  Lattice vectors:
  
 A1 = (  30.0000000000,   0.0000000000,   0.0000000000)
 A2 = (   0.0000000000,  30.0000000000,   0.0000000000)
 A3 = (   0.0000000000,   0.0000000000,  30.0000000000)


Analysis of symmetry for initial positions (statically):
=====================================================================
 Subroutine PRICEL returns:
 Original cell was already a primitive cell.
 

 Routine SETGRP: Setting up the symmetry group for a 
 simple cubic supercell.


 Subroutine GETGRP returns: Found  1 space group operations
 (whereof  1 operations were pure point group operations)
 out of a pool of 48 trial point group operations.


The static configuration has the point symmetry C_1 .


Analysis of symmetry for dynamics (positions and initial velocities):
=====================================================================
 Subroutine PRICEL returns:
 Original cell was already a primitive cell.
 

 Routine SETGRP: Setting up the symmetry group for a 
 simple cubic supercell.


 Subroutine GETGRP returns: Found  1 space group operations
 (whereof  1 operations were pure point group operations)
 out of a pool of 48 trial point group operations.


The dynamic configuration has the point symmetry C_1 .
 
 
 KPOINTS: Mo2C                                    

Automatic generation of k-mesh.
Space group operators:
 irot       det(A)        alpha          n_x          n_y          n_z        tau_x        tau_y        tau_z
    1     1.000000     0.000000     1.000000     0.000000     0.000000     0.000000     0.000000     0.000000
 
 Subroutine IBZKPT returns following result:
 ===========================================
 
 Found      4 irreducible k-points:
 
 Following reciprocal coordinates:
            Coordinates               Weight
  0.250000  0.250000  0.250000      2.000000
 -0.250000  0.250000  0.250000      2.000000
  0.250000 -0.250000  0.250000      2.000000
 -0.250000 -0.250000  0.250000      2.000000
 
 Following cartesian coordinates:
            Coordinates               Weight
  0.008333  0.008333  0.008333      2.000000
 -0.008333  0.008333  0.008333      2.000000
  0.008333 -0.008333  0.008333      2.000000
 -0.008333 -0.008333  0.008333      2.000000
 


--------------------------------------------------------------------------------------------------------




 Dimension of arrays:
   k-points           NKPTS =      4   k-points in BZ     NKDIM =      4   number of bands    NBANDS=     41
   number of dos      NEDOS =    301   number of ions     NIONS =     22
   non local maximal  LDIM  =      4   non local SUM 2l+1 LMDIM =      8
   total plane-waves  NPLWV = ******
   max r-space proj   IRMAX =   2395   max aug-charges    IRDMAX=   1821
   dimension x,y,z NGX =   150 NGY =  150 NGZ =  150
   dimension x,y,z NGXF=   300 NGYF=  300 NGZF=  300
   support grid    NGXF=   300 NGYF=  300 NGZF=  300
   ions per type =              12   6   2   2
 NGX,Y,Z   is equivalent  to a cutoff of   8.31,  8.31,  8.31 a.u.
 NGXF,Y,Z  is equivalent  to a cutoff of  16.62, 16.62, 16.62 a.u.


 I would recommend the setting:
   dimension x,y,z NGX =   147 NGY =  147 NGZ =  147
 SYSTEM =  unknown system                          
 POSCAR =  H12 C6 N2 O2                            

 Startparameter for this run:
   NWRITE =      2    write-flag & timer
   PREC   = normal    normal or accurate (medium, high low for compatibility)
   ISTART =      0    job   : 0-new  1-cont  2-samecut
   ICHARG =      2    charge: 1-file 2-atom 10-const
   ISPIN  =      1    spin polarized calculation?
   LNONCOLLINEAR =      F non collinear calculations
   LSORBIT =      F    spin-orbit coupling
   INIWAV =      1    electr: 0-lowe 1-rand  2-diag
   LASPH  =      F    aspherical Exc in radial PAW
   METAGGA=      F    non-selfconsistent MetaGGA calc.

 Electronic Relaxation 1
   ENCUT  =  400.0 eV  29.40 Ry    5.42 a.u.  48.92 48.92 48.92*2*pi/ulx,y,z
   ENINI  =  400.0     initial cutoff
   ENAUG  =  644.9 eV  augmentation charge cutoff
   NELM   =    500;   NELMIN=  6; NELMDL= -5     # of ELM steps 
   EDIFF  = 0.1E-03   stopping-criterion for ELM
   LREAL  =      T    real-space projection
   NLSPLINE    = F    spline interpolate recip. space projectors
   LCOMPAT=      F    compatible to vasp.4.4
   GGA_COMPAT  = T    GGA compatible to vasp.4.4-vasp.4.6
   LMAXPAW     = -100 max onsite density
   LMAXMIX     =    2 max onsite mixed and CHGCAR
   VOSKOWN=      0    Vosko Wilk Nusair interpolation
   ROPT   =   -0.00050  -0.00050  -0.00050  -0.00050
 Ionic relaxation
   EDIFFG = -.1E+00   stopping-criterion for IOM
   NSW    =    300    number of steps for IOM
   NBLOCK =      1;   KBLOCK =    300    inner block; outer block 
   IBRION =      3    ionic relax: 0-MD 1-quasi-New 2-CG
   NFREE  =      0    steps in history (QN), initial steepest desc. (CG)
   ISIF   =      2    stress and relaxation
   IWAVPR =     11    prediction:  0-non 1-charg 2-wave 3-comb
   ISYM   =      2    0-nonsym 1-usesym 2-fastsym
   LCORR  =      T    Harris-Foulkes like correction to forces

   POTIM  = 0.0000    time-step for ionic-motion
   TEIN   =    0.0    initial temperature
   TEBEG  =    0.0;   TEEND  =   0.0 temperature during run
   SMASS  =   2.00    Nose mass-parameter (am)
   estimated Nose-frequenzy (Omega)   =  0.24E+10 period in steps =  0.00 mass=   0.137E-25a.u.
   SCALEE = 1.0000    scale energy and forces
   NPACO  =    256;   APACO  = 16.0  distance and # of slots for P.C.
   PSTRESS=    0.0 pullay stress

  Mass of Ions in am
   POMASS =   1.00 12.01 14.00 16.00
  Ionic Valenz
   ZVAL   =   1.00  4.00  5.00  6.00
  Atomic Wigner-Seitz radii
   RWIGS  =  -1.00 -1.00 -1.00 -1.00
  virtual crystal weights 
   VCA    =   1.00  1.00  1.00  1.00
   NELECT =      58.0000    total number of electrons
   NUPDOWN=      -1.0000    fix difference up-down

 DOS related values:
   EMIN   =  10.00;   EMAX   =-10.00  energy-range for DOS
   EFERMI =   0.00
   ISMEAR =     0;   SIGMA  =   0.20  broadening in eV -4-tet -1-fermi 0-gaus

 Electronic relaxation 2 (details)
   IALGO  =     38    algorithm
   LDIAG  =      T    sub-space diagonalisation (order eigenvalues)
   LSUBROT=      F    optimize rotation matrix (better conditioning)
   TURBO    =      0    0=normal 1=particle mesh
   IRESTART =      0    0=no restart 2=restart with 2 vectors
   NREBOOT  =      0    no. of reboots
   NMIN     =      0    reboot dimension
   EREF     =   0.00    reference energy to select bands
   IMIX   =      4    mixing-type and parameters
     AMIX     =   0.40;   BMIX     =  1.00
     AMIX_MAG =   1.60;   BMIX_MAG =  1.00
     AMIN     =   0.10
     WC   =   100.;   INIMIX=   1;  MIXPRE=   1;  MAXMIX= -45

 Intra band minimization:
   WEIMIN = 0.0010     energy-eigenvalue tresh-hold
   EBREAK =  0.61E-06  absolut break condition
   DEPER  =   0.30     relativ break condition  

   TIME   =   0.40     timestep for ELM

  volume/ion in A,a.u.               =    1227.27      8282.05
  Fermi-wavevector in a.u.,A,eV,Ry     =   0.211234  0.399174  0.607087  0.044620
  Thomas-Fermi vector in A             =   0.980021
 
 Write flags
   LWAVE  =      F    write WAVECAR
   LCHARG =      F    write CHGCAR
   LVTOT  =      F    write LOCPOT, total local potential
   LVHAR  =      F    write LOCPOT, Hartree potential only
   LELF   =      F    write electronic localiz. function (ELF)
   LORBIT =      0    0 simple, 1 ext, 2 COOP (PROOUT)


 Dipole corrections
   LMONO  =      F    monopole corrections only (constant potential shift)
   LDIPOL =      F    correct potential (dipole corrections)
   IDIPOL =      0    1-x, 2-y, 3-z, 4-all directions 
   EPSILON=  1.0000000 bulk dielectric constant

 Exchange correlation treatment:
   GGA     =    PE    GGA type
   LEXCH   =     8    internal setting for exchange type
   VOSKOWN=      0    Vosko Wilk Nusair interpolation
   LHFCALC =     F    Hartree Fock is set to
   LHFONE  =     F    Hartree Fock one center treatment
   AEXX    =    0.0000 exact exchange contribution

 Linear response parameters
   LEPSILON=     F    determine dielectric tensor
   LRPA    =     F    only Hartree local field effects (RPA)
   LNABLA  =     F    use nabla operator in PAW spheres
   LVEL    =     F    velocity operator in full k-point grid
   LINTERFAST=   F  fast interpolation
   KINTER  =     0    interpolate to denser k-point grid
   CSHIFT  =0.1000    complex shift for real part using Kramers Kronig
   OMEGAMAX=  -1.0    maximum frequency
   DEG_THRESHOLD= 0.2000000E-02 threshold for treating states as degnerate
   RTIME   =    0.100 relaxation time in fs

 Orbital magnetization related:
   ORBITALMAG=     F  switch on orbital magnetization
   LCHIMAG   =     F  perturbation theory with respect to B field
   DQ        =  0.001000  dq finite difference perturbation B field



--------------------------------------------------------------------------------------------------------


 quickmin algorithm: (dynamic with friction)
 charge density and potential will be updated during run
 non-spin polarized calculation
 Variant of blocked Davidson
 Davidson routine will perform the subspace rotation
 perform sub-space diagonalisation
    after iterative eigenvector-optimisation
 modified Broyden-mixing scheme, WC =      100.0
 initial mixing is a Kerker type mixing with AMIX =  0.4000 and BMIX =      1.0000
 Hartree-type preconditioning will be used
 using additional bands           12
 real space projection scheme for non local part
 use partial core corrections
 calculate Harris-corrections to forces 
   (improved forces if not selfconsistent)
 use gradient corrections 
 use of overlap-Matrix (Vanderbilt PP)
 Gauss-broadening in eV      SIGMA  =   0.20


--------------------------------------------------------------------------------------------------------


  energy-cutoff  :      400.00
  volume of cell :    27000.00
      direct lattice vectors                 reciprocal lattice vectors
    30.000000000  0.000000000  0.000000000     0.033333333  0.000000000  0.000000000
     0.000000000 30.000000000  0.000000000     0.000000000  0.033333333  0.000000000
     0.000000000  0.000000000 30.000000000     0.000000000  0.000000000  0.033333333

  length of vectors
    30.000000000 30.000000000 30.000000000     0.033333333  0.033333333  0.033333333


 
 k-points in units of 2pi/SCALE and weight: Mo2C                                    
   0.00833333  0.00833333  0.00833333       0.250
  -0.00833333  0.00833333  0.00833333       0.250
   0.00833333 -0.00833333  0.00833333       0.250
  -0.00833333 -0.00833333  0.00833333       0.250
 
 k-points in reciprocal lattice and weights: Mo2C                                    
   0.25000000  0.25000000  0.25000000       0.250
  -0.25000000  0.25000000  0.25000000       0.250
   0.25000000 -0.25000000  0.25000000       0.250
  -0.25000000 -0.25000000  0.25000000       0.250
 
 position of ions in fractional coordinates (direct lattice) 
   0.37390348  0.53407766  0.49712853
   0.38134284  0.47766060  0.48019792
   0.37692133  0.49080819  0.53780745
   0.44854688  0.44725886  0.52453956
   0.52193729  0.44464828  0.54320129
   0.55598530  0.42023110  0.47276332
   0.51414940  0.44865058  0.44113469
   0.49921008  0.40270288  0.47595667
   0.51066462  0.55133930  0.49760861
   0.59922094  0.57704977  0.52806430
   0.60222260  0.56623900  0.46988429
   0.56385610  0.60691353  0.49019405
   0.39019130  0.50255634  0.50571837
   0.44033329  0.51116952  0.50679893
   0.51432916  0.46372022  0.51278171
   0.52124617  0.43192783  0.47302680
   0.55230290  0.49890324  0.51146878
   0.57919399  0.57446086  0.49736491
   0.46622099  0.47526350  0.51681149
   0.54362514  0.54180926  0.50185203
   0.45438148  0.54919977  0.49797853
   0.59021332  0.48341068  0.51771689
 
 position of ions in cartesian coordinates  (Angst):
  11.21710450 16.02232990 14.91385603
  11.44028521 14.32981788 14.40593773
  11.30764005 14.72424579 16.13422336
  13.45640625 13.41776583 15.73618685
  15.65811863 13.33944849 16.29603882
  16.67955914 12.60693286 14.18289971
  15.42448189 13.45951742 13.23404083
  14.97630244 12.08108639 14.27869995
  15.31993846 16.54017893 14.92825818
  17.97662833 17.31149323 15.84192911
  18.06667793 16.98716990 14.09652880
  16.91568286 18.20740590 14.70582160
  11.70573891 15.07669012 15.17155121
  13.20999874 15.33508566 15.20396793
  15.42987491 13.91160647 15.38345119
  15.63738509 12.95783505 14.19080397
  16.56908689 14.96709723 15.34406346
  17.37581956 17.23382573 14.92094734
  13.98662982 14.25790501 15.50434476
  16.30875431 16.25427784 15.05556097
  13.63144432 16.47599314 14.93935589
  17.70639964 14.50232028 15.53150680
 


--------------------------------------------------------------------------------------------------------


 k-point  1 :   0.2500 0.2500 0.2500  plane waves:  490454
 k-point  2 :  -0.2500 0.2500 0.2500  plane waves:  490454
 k-point  3 :   0.2500-0.2500 0.2500  plane waves:  490454
 k-point  4 :  -0.2500-0.2500 0.2500  plane waves:  490454

 maximum and minimum number of plane-waves per node :    490454   490454

 maximum number of plane-waves:    490454
 maximum index in each direction: 
   IXMAX=   49   IYMAX=   49   IZMAX=   48
   IXMIN=  -49   IYMIN=  -49   IZMIN=  -49

 WARNING: aliasing errors must be expected set NGX to 198 to avoid them
 WARNING: aliasing errors must be expected set NGY to 198 to avoid them
 WARNING: aliasing errors must be expected set NGZ to 196 to avoid them
 aliasing errors are usually negligible using standard VASP settings
 and one can safely disregard these warnings

 serial   3D FFT for wavefunctions
 parallel 3D FFT for charge:
    minimum data exchange during FFTs selected (reduces bandwidth)


 total amount of memory used by VASP on root node  4333711. kBytes
========================================================================

   base      :      30000. kBytes
   nonlr-proj:       2406. kBytes
   fftplans  :     924480. kBytes
   grid      :    2089440. kBytes
   one-center:         67. kBytes
   wavefun   :    1287318. kBytes
 
     INWAV:  cpu time    0.0000: real time    0.0004
 Broyden mixing: mesh for mixing (old mesh)
   NGX = 97   NGY = 97   NGZ = 97
  (NGX  =300   NGY  =300   NGZ  =300)
  gives a total of 912673 points

 initial charge density was supplied:
 charge density of overlapping atoms calculated
 number of electron      58.0000000 magnetization 
 keeping initial charge density in first step


--------------------------------------------------------------------------------------------------------


 Maximum index for non-local projection operator         2281
 Maximum index for augmentation-charges         1572 (set IRDMAX)


--------------------------------------------------------------------------------------------------------


 First call to EWALD:  gamma=   0.059
 Maximum number of real-space cells 3x 3x 3
 Maximum number of reciprocal cells 3x 3x 3

 FEWALD executed in parallel
    FEWALD:  cpu time    0.0050: real time    0.0049


----------------------------------------- Iteration    1(   1)  ---------------------------------------


    POTLOK:  cpu time   25.2522: real time   25.2331
    SETDIJ:  cpu time    0.0310: real time    0.0304
     EDDAV:  cpu time  303.8028: real time  303.5555
       DOS:  cpu time    0.0010: real time    0.0009
    --------------------------------------------
      LOOP:  cpu time  329.0910: real time  328.8248

 eigenvalue-minimisations  :   392
 total energy-change (2. order) : 0.6081944E+03  (-0.7962318E+03)
 number of electron      58.0000000 magnetization 
 augmentation part       58.0000000 magnetization 

 Free energy of the ion-electron system (eV)
  ---------------------------------------------------
  alpha Z        PSCENC =         0.51957394
  Ewald energy   TEWEN  =      6026.79438217
  -Hartree energ DENC   =     -7771.25031082
  -exchange      EXHF   =         0.00000000
  -V(xc)+E(xc)   XCENC  =       201.92759858
  PAW double counting   =      1779.70502452    -1789.20730229
  entropy T*S    EENTRO =        -0.78562451
  eigenvalues    EBANDS =      -265.49225810
  atomic energy  EATOM  =      2425.98333211
  Solvation  Ediel_sol  =         0.00000000
  ---------------------------------------------------
  free energy    TOTEN  =       608.19441559 eV

  energy without entropy =      608.98004010  energy(sigma->0) =      608.58722784


--------------------------------------------------------------------------------------------------------




----------------------------------------- Iteration    1(   2)  ---------------------------------------


     EDDAV:  cpu time  421.3959: real time  421.0530
       DOS:  cpu time    0.0000: real time    0.0007
    --------------------------------------------
      LOOP:  cpu time  421.3979: real time  421.0565

 eigenvalue-minimisations  :   579
 total energy-change (2. order) :-0.3354526E+03  (-0.3253389E+03)
 number of electron      58.0000000 magnetization 
 augmentation part       58.0000000 magnetization 

 Free energy of the ion-electron system (eV)
  ---------------------------------------------------
  alpha Z        PSCENC =         0.51957394
  Ewald energy   TEWEN  =      6026.79438217
  -Hartree energ DENC   =     -7771.25031082
  -exchange      EXHF   =         0.00000000
  -V(xc)+E(xc)   XCENC  =       201.92759858
  PAW double counting   =      1779.70502452    -1789.20730229
  entropy T*S    EENTRO =        -0.44937218
  eigenvalues    EBANDS =      -601.28107954
  atomic energy  EATOM  =      2425.98333211
  Solvation  Ediel_sol  =         0.00000000
  ---------------------------------------------------
  free energy    TOTEN  =       272.74184647 eV

  energy without entropy =      273.19121865  energy(sigma->0) =      272.96653256


--------------------------------------------------------------------------------------------------------




----------------------------------------- Iteration    1(   3)  ---------------------------------------


     EDDAV:  cpu time  370.9096: real time  370.6078
       DOS:  cpu time    0.0000: real time    0.0006
    --------------------------------------------
      LOOP:  cpu time  370.9116: real time  370.6120

 eigenvalue-minimisations  :   496
 total energy-change (2. order) :-0.3194718E+03  (-0.3104288E+03)
 number of electron      58.0000000 magnetization 
 augmentation part       58.0000000 magnetization 

 Free energy of the ion-electron system (eV)
  ---------------------------------------------------
  alpha Z        PSCENC =         0.51957394
  Ewald energy   TEWEN  =      6026.79438217
  -Hartree energ DENC   =     -7771.25031082
  -exchange      EXHF   =         0.00000000
  -V(xc)+E(xc)   XCENC  =       201.92759858
  PAW double counting   =      1779.70502452    -1789.20730229
  entropy T*S    EENTRO =        -0.00181328
  eigenvalues    EBANDS =      -921.20043453
  atomic energy  EATOM  =      2425.98333211
  Solvation  Ediel_sol  =         0.00000000
  ---------------------------------------------------
  free energy    TOTEN  =       -46.72994962 eV

  energy without entropy =      -46.72813633  energy(sigma->0) =      -46.72904297


--------------------------------------------------------------------------------------------------------




----------------------------------------- Iteration    1(   4)  ---------------------------------------


     EDDAV:  cpu time  306.2684: real time  306.0196
       DOS:  cpu time    0.0000: real time    0.0005
    --------------------------------------------
      LOOP:  cpu time  306.2714: real time  306.0236

 eigenvalue-minimisations  :   398
 total energy-change (2. order) :-0.8982541E+02  (-0.8967111E+02)
 number of electron      58.0000000 magnetization 
 augmentation part       58.0000000 magnetization 

 Free energy of the ion-electron system (eV)
  ---------------------------------------------------
  alpha Z        PSCENC =         0.51957394
  Ewald energy   TEWEN  =      6026.79438217
  -Hartree energ DENC   =     -7771.25031082
  -exchange      EXHF   =         0.00000000
  -V(xc)+E(xc)   XCENC  =       201.92759858
  PAW double counting   =      1779.70502452    -1789.20730229
  entropy T*S    EENTRO =         0.00000000
  eigenvalues    EBANDS =     -1011.02765549
  atomic energy  EATOM  =      2425.98333211
  Solvation  Ediel_sol  =         0.00000000
  ---------------------------------------------------
  free energy    TOTEN  =      -136.55535729 eV

  energy without entropy =     -136.55535729  energy(sigma->0) =     -136.55535729


--------------------------------------------------------------------------------------------------------




----------------------------------------- Iteration    1(   5)  ---------------------------------------


     EDDAV:  cpu time  338.3056: real time  338.0303
       DOS:  cpu time    0.0010: real time    0.0005
    CHARGE:  cpu time   19.8710: real time   19.8554
    MIXING:  cpu time    0.7449: real time    0.7440
    --------------------------------------------
      LOOP:  cpu time  358.9234: real time  358.6332

 eigenvalue-minimisations  :   447
 total energy-change (2. order) :-0.4977583E+01  (-0.4964258E+01)
 number of electron      58.0000037 magnetization 
 augmentation part        2.9652652 magnetization 

 Broyden mixing:
  rms(total) = 0.19468E+01    rms(broyden)= 0.19445E+01
  rms(prec ) = 0.20218E+01
  weight for this iteration     100.00

 Free energy of the ion-electron system (eV)
  ---------------------------------------------------
  alpha Z        PSCENC =         0.51957394
  Ewald energy   TEWEN  =      6026.79438217
  -Hartree energ DENC   =     -7771.25031082
  -exchange      EXHF   =         0.00000000
  -V(xc)+E(xc)   XCENC  =       201.92759858
  PAW double counting   =      1779.70502452    -1789.20730229
  entropy T*S    EENTRO =         0.00000000
  eigenvalues    EBANDS =     -1016.00523854
  atomic energy  EATOM  =      2425.98333211
  Solvation  Ediel_sol  =         0.00000000
  ---------------------------------------------------
  free energy    TOTEN  =      -141.53294034 eV

  energy without entropy =     -141.53294034  energy(sigma->0) =     -141.53294034


--------------------------------------------------------------------------------------------------------




----------------------------------------- Iteration    1(   6)  ---------------------------------------


    POTLOK:  cpu time   22.8075: real time   22.7892
    SETDIJ:  cpu time    0.0300: real time    0.0297
     EDDAV:  cpu time  295.6900: real time  295.4466
       DOS:  cpu time    0.0000: real time    0.0005
    CHARGE:  cpu time   17.0414: real time   17.0272
    MIXING:  cpu time    0.6299: real time    0.6297
    --------------------------------------------
      LOOP:  cpu time  336.1999: real time  335.9273

 eigenvalue-minimisations  :   415
 total energy-change (2. order) : 0.1006472E+02  (-0.2389667E+01)
 number of electron      58.0000040 magnetization 
 augmentation part        2.6273167 magnetization 

 Broyden mixing:
  rms(total) = 0.99036E+00    rms(broyden)= 0.98991E+00
  rms(prec ) = 0.10184E+01
  weight for this iteration     100.00

 eigenvalues of (default mixing * dielectric matrix)
  average eigenvalue GAMMA=   1.2795
  1.2795

 Free energy of the ion-electron system (eV)
  ---------------------------------------------------
  alpha Z        PSCENC =         0.51957394
  Ewald energy   TEWEN  =      6026.79438217
  -Hartree energ DENC   =     -7885.40262046
  -exchange      EXHF   =         0.00000000
  -V(xc)+E(xc)   XCENC  =       207.98186766
  PAW double counting   =      2766.65678979    -2777.50968729
  entropy T*S    EENTRO =         0.00000000
  eigenvalues    EBANDS =      -896.49186057
  atomic energy  EATOM  =      2425.98333211
  Solvation  Ediel_sol  =         0.00000000
  ---------------------------------------------------
  free energy    TOTEN  =      -131.46822265 eV

  energy without entropy =     -131.46822265  energy(sigma->0) =     -131.46822265


--------------------------------------------------------------------------------------------------------




----------------------------------------- Iteration    1(   7)  ---------------------------------------


    POTLOK:  cpu time   19.4250: real time   19.4108
    SETDIJ:  cpu time    0.0290: real time    0.0289
     EDDAV:  cpu time  320.9092: real time  320.6483
       DOS:  cpu time    0.0000: real time    0.0005
    CHARGE:  cpu time   20.1769: real time   20.1603
    MIXING:  cpu time    0.7319: real time    0.7320
    --------------------------------------------
      LOOP:  cpu time  361.2751: real time  360.9844

 eigenvalue-minimisations  :   432
 total energy-change (2. order) : 0.1734388E+01  (-0.4504076E+00)
 number of electron      58.0000039 magnetization 
 augmentation part        2.6121400 magnetization 

 Broyden mixing:
  rms(total) = 0.51203E+00    rms(broyden)= 0.51191E+00
  rms(prec ) = 0.52469E+00
  weight for this iteration     100.00

 eigenvalues of (default mixing * dielectric matrix)
  average eigenvalue GAMMA=   1.5775
  1.1172  2.0378

 Free energy of the ion-electron system (eV)
  ---------------------------------------------------
  alpha Z        PSCENC =         0.51957394
  Ewald energy   TEWEN  =      6026.79438217
  -Hartree energ DENC   =     -7947.11333569
  -exchange      EXHF   =         0.00000000
  -V(xc)+E(xc)   XCENC  =       211.02103377
  PAW double counting   =      3725.59742803    -3736.71971196
  entropy T*S    EENTRO =         0.00000000
  eigenvalues    EBANDS =      -835.81653733
  atomic energy  EATOM  =      2425.98333211
  Solvation  Ediel_sol  =         0.00000000
  ---------------------------------------------------
  free energy    TOTEN  =      -129.73383496 eV

  energy without entropy =     -129.73383496  energy(sigma->0) =     -129.73383496


--------------------------------------------------------------------------------------------------------




----------------------------------------- Iteration    1(   8)  ---------------------------------------


    POTLOK:  cpu time   24.3403: real time   24.3207
    SETDIJ:  cpu time    0.0290: real time    0.0294
     EDDAV:  cpu time  322.5650: real time  322.3007
       DOS:  cpu time    0.0000: real time    0.0005
    CHARGE:  cpu time   20.6849: real time   20.6685
    MIXING:  cpu time    0.7719: real time    0.7712
    --------------------------------------------
      LOOP:  cpu time  368.3940: real time  368.0949

 eigenvalue-minimisations  :   440
 total energy-change (2. order) : 0.4926250E+00  (-0.8629490E-01)
 number of electron      58.0000039 magnetization 
 augmentation part        2.5870817 magnetization 

 Broyden mixing:
  rms(total) = 0.14820E+00    rms(broyden)= 0.14813E+00
  rms(prec ) = 0.15601E+00
  weight for this iteration     100.00

 eigenvalues of (default mixing * dielectric matrix)
  average eigenvalue GAMMA=   1.5406
  2.3798  0.9652  1.2767

 Free energy of the ion-electron system (eV)
  ---------------------------------------------------
  alpha Z        PSCENC =         0.51957394
  Ewald energy   TEWEN  =      6026.79438217
  -Hartree energ DENC   =     -7987.58873748
  -exchange      EXHF   =         0.00000000
  -V(xc)+E(xc)   XCENC  =       213.13203248
  PAW double counting   =      4540.88282879    -4552.17998411
  entropy T*S    EENTRO =         0.00000000
  eigenvalues    EBANDS =      -796.78463784
  atomic energy  EATOM  =      2425.98333211
  Solvation  Ediel_sol  =         0.00000000
  ---------------------------------------------------
  free energy    TOTEN  =      -129.24120995 eV

  energy without entropy =     -129.24120995  energy(sigma->0) =     -129.24120995


--------------------------------------------------------------------------------------------------------




----------------------------------------- Iteration    1(   9)  ---------------------------------------


    POTLOK:  cpu time   21.9367: real time   21.9186
    SETDIJ:  cpu time    0.0280: real time    0.0284
     EDDAV:  cpu time  312.1885: real time  311.9331
       DOS:  cpu time    0.0000: real time    0.0005
    CHARGE:  cpu time   19.4990: real time   19.4836
    MIXING:  cpu time    0.8399: real time    0.8394
    --------------------------------------------
      LOOP:  cpu time  354.4941: real time  354.2068

 eigenvalue-minimisations  :   432
 total energy-change (2. order) : 0.6636677E-01  (-0.9821009E-02)
 number of electron      58.0000039 magnetization 
 augmentation part        2.5774999 magnetization 

 Broyden mixing:
  rms(total) = 0.57014E-01    rms(broyden)= 0.56985E-01
  rms(prec ) = 0.65589E-01
  weight for this iteration     100.00

 eigenvalues of (default mixing * dielectric matrix)
  average eigenvalue GAMMA=   1.5236
  2.1945  1.0555  1.0555  1.7887

 Free energy of the ion-electron system (eV)
  ---------------------------------------------------
  alpha Z        PSCENC =         0.51957394
  Ewald energy   TEWEN  =      6026.79438217
  -Hartree energ DENC   =     -8000.97550529
  -exchange      EXHF   =         0.00000000
  -V(xc)+E(xc)   XCENC  =       213.67912970
  PAW double counting   =      4762.69566349    -4773.96804758
  entropy T*S    EENTRO =         0.00000000
  eigenvalues    EBANDS =      -783.90337173
  atomic energy  EATOM  =      2425.98333211
  Solvation  Ediel_sol  =         0.00000000
  ---------------------------------------------------
  free energy    TOTEN  =      -129.17484318 eV

  energy without entropy =     -129.17484318  energy(sigma->0) =     -129.17484318


--------------------------------------------------------------------------------------------------------




----------------------------------------- Iteration    1(  10)  ---------------------------------------


    POTLOK:  cpu time   22.7675: real time   22.7496
    SETDIJ:  cpu time    0.0290: real time    0.0289
     EDDAV:  cpu time  312.1915: real time  311.9365
       DOS:  cpu time    0.0010: real time    0.0005
    CHARGE:  cpu time   18.7811: real time   18.7663
    MIXING:  cpu time    0.8459: real time    0.8453
    --------------------------------------------
      LOOP:  cpu time  354.6171: real time  354.3997

 eigenvalue-minimisations  :   423
 total energy-change (2. order) : 0.1252629E-01  (-0.2374030E-02)
 number of electron      58.0000039 magnetization 
 augmentation part        2.5838986 magnetization 

 Broyden mixing:
  rms(total) = 0.25419E-01    rms(broyden)= 0.25394E-01
  rms(prec ) = 0.35515E-01
  weight for this iteration     100.00

 eigenvalues of (default mixing * dielectric matrix)
  average eigenvalue GAMMA=   1.4951
  2.1766  2.1766  0.9803  0.9803  1.1617

 Free energy of the ion-electron system (eV)
  ---------------------------------------------------
  alpha Z        PSCENC =         0.51957394
  Ewald energy   TEWEN  =      6026.79438217
  -Hartree energ DENC   =     -8006.10006816
  -exchange      EXHF   =         0.00000000
  -V(xc)+E(xc)   XCENC  =       213.69745778
  PAW double counting   =      4757.61472899    -4768.83555599
  entropy T*S    EENTRO =         0.00000000
  eigenvalues    EBANDS =      -778.83616773
  atomic energy  EATOM  =      2425.98333211
  Solvation  Ediel_sol  =         0.00000000
  ---------------------------------------------------
  free energy    TOTEN  =      -129.16231690 eV

  energy without entropy =     -129.16231690  energy(sigma->0) =     -129.16231690


--------------------------------------------------------------------------------------------------------




----------------------------------------- Iteration    1(  11)  ---------------------------------------


    POTLOK:  cpu time   22.1626: real time   22.1449
    SETDIJ:  cpu time    0.0290: real time    0.0288
     EDDAV:  cpu time  322.9019: real time  322.6393
       DOS:  cpu time    0.0000: real time    0.0005
    CHARGE:  cpu time   19.2021: real time   19.1865
    MIXING:  cpu time    0.9699: real time    0.9692
    --------------------------------------------
      LOOP:  cpu time  365.2675: real time  364.9731

 eigenvalue-minimisations  :   448
 total energy-change (2. order) : 0.5810600E-02  (-0.7968063E-03)
 number of electron      58.0000039 magnetization 
 augmentation part        2.5795787 magnetization 

 Broyden mixing:
  rms(total) = 0.15925E-01    rms(broyden)= 0.15916E-01
  rms(prec ) = 0.24682E-01
  weight for this iteration     100.00

 eigenvalues of (default mixing * dielectric matrix)
  average eigenvalue GAMMA=   1.5512
  2.4792  2.4792  0.9430  0.9430  1.2315  1.2315

 Free energy of the ion-electron system (eV)
  ---------------------------------------------------
  alpha Z        PSCENC =         0.51957394
  Ewald energy   TEWEN  =      6026.79438217
  -Hartree energ DENC   =     -8012.02954014
  -exchange      EXHF   =         0.00000000
  -V(xc)+E(xc)   XCENC  =       213.80549968
  PAW double counting   =      4760.29062679    -4771.51126349
  entropy T*S    EENTRO =         0.00000000
  eigenvalues    EBANDS =      -773.00911736
  atomic energy  EATOM  =      2425.98333211
  Solvation  Ediel_sol  =         0.00000000
  ---------------------------------------------------
  free energy    TOTEN  =      -129.15650629 eV

  energy without entropy =     -129.15650629  energy(sigma->0) =     -129.15650629


--------------------------------------------------------------------------------------------------------




----------------------------------------- Iteration    1(  12)  ---------------------------------------


    POTLOK:  cpu time   21.6267: real time   21.6093
    SETDIJ:  cpu time    0.0290: real time    0.0291
     EDDAV:  cpu time  309.7649: real time  309.5123
       DOS:  cpu time    0.0000: real time    0.0005
    CHARGE:  cpu time   18.3022: real time   18.2881
    MIXING:  cpu time    0.9799: real time    0.9785
    --------------------------------------------
      LOOP:  cpu time  350.7057: real time  350.4225

 eigenvalue-minimisations  :   415
 total energy-change (2. order) :-0.4755317E-03  (-0.5679931E-03)
 number of electron      58.0000039 magnetization 
 augmentation part        2.5789102 magnetization 

 Broyden mixing:
  rms(total) = 0.97960E-02    rms(broyden)= 0.97913E-02
  rms(prec ) = 0.15901E-01
  weight for this iteration     100.00

 eigenvalues of (default mixing * dielectric matrix)
  average eigenvalue GAMMA=   1.6144
  2.7496  2.7496  1.3444  1.2622  1.2622  0.9663  0.9663

 Free energy of the ion-electron system (eV)
  ---------------------------------------------------
  alpha Z        PSCENC =         0.51957394
  Ewald energy   TEWEN  =      6026.79438217
  -Hartree energ DENC   =     -8018.62256203
  -exchange      EXHF   =         0.00000000
  -V(xc)+E(xc)   XCENC  =       213.89068857
  PAW double counting   =      4755.40306557    -4766.61454794
  entropy T*S    EENTRO =         0.00000000
  eigenvalues    EBANDS =      -766.51091422
  atomic energy  EATOM  =      2425.98333211
  Solvation  Ediel_sol  =         0.00000000
  ---------------------------------------------------
  free energy    TOTEN  =      -129.15698183 eV

  energy without entropy =     -129.15698183  energy(sigma->0) =     -129.15698183


--------------------------------------------------------------------------------------------------------




----------------------------------------- Iteration    1(  13)  ---------------------------------------


    POTLOK:  cpu time   22.4146: real time   22.3956
    SETDIJ:  cpu time    0.0290: real time    0.0296
     EDDAV:  cpu time  320.0813: real time  319.8192
       DOS:  cpu time    0.0000: real time    0.0005
    CHARGE:  cpu time   19.3271: real time   19.3110
    MIXING:  cpu time    1.0768: real time    1.0761
    --------------------------------------------
      LOOP:  cpu time  362.9298: real time  362.6359

 eigenvalue-minimisations  :   456
 total energy-change (2. order) :-0.6549941E-02  (-0.4363748E-03)
 number of electron      58.0000039 magnetization 
 augmentation part        2.5779493 magnetization 

 Broyden mixing:
  rms(total) = 0.56994E-02    rms(broyden)= 0.56933E-02
  rms(prec ) = 0.93252E-02
  weight for this iteration     100.00

 eigenvalues of (default mixing * dielectric matrix)
  average eigenvalue GAMMA=   1.7256
  4.1841  2.4814  1.5943  1.4889  1.0415  1.0415  0.9867  0.9867

 Free energy of the ion-electron system (eV)
  ---------------------------------------------------
  alpha Z        PSCENC =         0.51957394
  Ewald energy   TEWEN  =      6026.79438217
  -Hartree energ DENC   =     -8024.26521240
  -exchange      EXHF   =         0.00000000
  -V(xc)+E(xc)   XCENC  =       213.95351810
  PAW double counting   =      4748.59382544    -4759.80392458
  entropy T*S    EENTRO =         0.00000000
  eigenvalues    EBANDS =      -760.93902656
  atomic energy  EATOM  =      2425.98333211
  Solvation  Ediel_sol  =         0.00000000
  ---------------------------------------------------
  free energy    TOTEN  =      -129.16353177 eV

  energy without entropy =     -129.16353177  energy(sigma->0) =     -129.16353177


--------------------------------------------------------------------------------------------------------




----------------------------------------- Iteration    1(  14)  ---------------------------------------


    POTLOK:  cpu time   24.0034: real time   23.9837
    SETDIJ:  cpu time    0.0290: real time    0.0296
     EDDAV:  cpu time  316.8798: real time  316.6202
       DOS:  cpu time    0.0000: real time    0.0005
    CHARGE:  cpu time   18.9381: real time   18.9225
    MIXING:  cpu time    1.0158: real time    1.0151
    --------------------------------------------
      LOOP:  cpu time  360.8671: real time  360.5765

 eigenvalue-minimisations  :   432
 total energy-change (2. order) :-0.6636298E-02  (-0.1838130E-03)
 number of electron      58.0000039 magnetization 
 augmentation part        2.5770304 magnetization 

 Broyden mixing:
  rms(total) = 0.37733E-02    rms(broyden)= 0.37694E-02
  rms(prec ) = 0.57604E-02
  weight for this iteration     100.00

 eigenvalues of (default mixing * dielectric matrix)
  average eigenvalue GAMMA=   1.8390
  5.0681  2.4104  2.2703  1.2868  1.2868  1.2300  1.0503  0.9740  0.9740

 Free energy of the ion-electron system (eV)
  ---------------------------------------------------
  alpha Z        PSCENC =         0.51957394
  Ewald energy   TEWEN  =      6026.79438217
  -Hartree energ DENC   =     -8027.70498499
  -exchange      EXHF   =         0.00000000
  -V(xc)+E(xc)   XCENC  =       213.97855301
  PAW double counting   =      4744.07504032    -4755.28284399
  entropy T*S    EENTRO =         0.00000000
  eigenvalues    EBANDS =      -757.53322063
  atomic energy  EATOM  =      2425.98333211
  Solvation  Ediel_sol  =         0.00000000
  ---------------------------------------------------
  free energy    TOTEN  =      -129.17016807 eV

  energy without entropy =     -129.17016807  energy(sigma->0) =     -129.17016807


--------------------------------------------------------------------------------------------------------




----------------------------------------- Iteration    1(  15)  ---------------------------------------


    POTLOK:  cpu time   21.0958: real time   21.0789
    SETDIJ:  cpu time    0.0280: real time    0.0287
     EDDAV:  cpu time  273.0155: real time  272.7917
       DOS:  cpu time    0.0000: real time    0.0005
    CHARGE:  cpu time   19.5450: real time   19.5290
    MIXING:  cpu time    1.3578: real time    1.3572
    --------------------------------------------
      LOOP:  cpu time  315.0451: real time  314.7903

 eigenvalue-minimisations  :   380
 total energy-change (2. order) :-0.8219249E-02  (-0.8690654E-04)
 number of electron      58.0000039 magnetization 
 augmentation part        2.5770128 magnetization 

 Broyden mixing:
  rms(total) = 0.22497E-02    rms(broyden)= 0.22481E-02
  rms(prec ) = 0.33578E-02
  weight for this iteration     100.00

 eigenvalues of (default mixing * dielectric matrix)
  average eigenvalue GAMMA=   1.9283
  5.7248  2.9070  2.3652  1.6868  1.4662  0.9695  1.0621  1.0621  1.0198  1.0198

 Free energy of the ion-electron system (eV)
  ---------------------------------------------------
  alpha Z        PSCENC =         0.51957394
  Ewald energy   TEWEN  =      6026.79438217
  -Hartree energ DENC   =     -8029.36899046
  -exchange      EXHF   =         0.00000000
  -V(xc)+E(xc)   XCENC  =       213.97590634
  PAW double counting   =      4743.54910068    -4754.75529680
  entropy T*S    EENTRO =         0.00000000
  eigenvalues    EBANDS =      -755.87639530
  atomic energy  EATOM  =      2425.98333211
  Solvation  Ediel_sol  =         0.00000000
  ---------------------------------------------------
  free energy    TOTEN  =      -129.17838731 eV

  energy without entropy =     -129.17838731  energy(sigma->0) =     -129.17838731


--------------------------------------------------------------------------------------------------------




----------------------------------------- Iteration    1(  16)  ---------------------------------------


    POTLOK:  cpu time   21.7417: real time   21.7245
    SETDIJ:  cpu time    0.0290: real time    0.0285
     EDDAV:  cpu time  269.2891: real time  269.0700
       DOS:  cpu time    0.0000: real time    0.0005
    CHARGE:  cpu time   19.0581: real time   19.0434
    MIXING:  cpu time    1.3368: real time    1.3351
    --------------------------------------------
      LOOP:  cpu time  311.4567: real time  311.2068

 eigenvalue-minimisations  :   350
 total energy-change (2. order) :-0.5519628E-02  (-0.4237781E-04)
 number of electron      58.0000039 magnetization 
 augmentation part        2.5769611 magnetization 

 Broyden mixing:
  rms(total) = 0.13048E-02    rms(broyden)= 0.13044E-02
  rms(prec ) = 0.19549E-02
  weight for this iteration     100.00

 eigenvalues of (default mixing * dielectric matrix)
  average eigenvalue GAMMA=   2.0305
  6.7022  3.2747  2.2160  2.2160  1.4249  1.4249  0.9791  1.0207  1.0207  1.0280
  1.0280

 Free energy of the ion-electron system (eV)
  ---------------------------------------------------
  alpha Z        PSCENC =         0.51957394
  Ewald energy   TEWEN  =      6026.79438217
  -Hartree energ DENC   =     -8029.99886230
  -exchange      EXHF   =         0.00000000
  -V(xc)+E(xc)   XCENC  =       213.96765037
  PAW double counting   =      4743.52837861    -4754.73447347
  entropy T*S    EENTRO =         0.00000000
  eigenvalues    EBANDS =      -755.24388837
  atomic energy  EATOM  =      2425.98333211
  Solvation  Ediel_sol  =         0.00000000
  ---------------------------------------------------
  free energy    TOTEN  =      -129.18390694 eV

  energy without entropy =     -129.18390694  energy(sigma->0) =     -129.18390694


--------------------------------------------------------------------------------------------------------




----------------------------------------- Iteration    1(  17)  ---------------------------------------


    POTLOK:  cpu time   22.2656: real time   22.2481
    SETDIJ:  cpu time    0.0280: real time    0.0284
     EDDAV:  cpu time  238.4258: real time  238.2310
       DOS:  cpu time    0.0000: real time    0.0005
    CHARGE:  cpu time   20.9288: real time   20.9111
    MIXING:  cpu time    1.6797: real time    1.6788
    --------------------------------------------
      LOOP:  cpu time  283.3309: real time  283.1031

 eigenvalue-minimisations  :   324
 total energy-change (2. order) :-0.3172111E-02  (-0.1862824E-04)
 number of electron      58.0000039 magnetization 
 augmentation part        2.5769127 magnetization 

 Broyden mixing:
  rms(total) = 0.73515E-03    rms(broyden)= 0.73483E-03
  rms(prec ) = 0.10924E-02
  weight for this iteration     100.00

 eigenvalues of (default mixing * dielectric matrix)
  average eigenvalue GAMMA=   2.0785
  7.2338  3.7961  2.3398  2.3398  1.5235  1.5235  1.0750  1.0750  1.0241  1.0241
  0.9939  0.9939

 Free energy of the ion-electron system (eV)
  ---------------------------------------------------
  alpha Z        PSCENC =         0.51957394
  Ewald energy   TEWEN  =      6026.79438217
  -Hartree energ DENC   =     -8030.34943112
  -exchange      EXHF   =         0.00000000
  -V(xc)+E(xc)   XCENC  =       213.96230909
  PAW double counting   =      4743.51543313    -4754.72124131
  entropy T*S    EENTRO =         0.00000000
  eigenvalues    EBANDS =      -754.89143707
  atomic energy  EATOM  =      2425.98333211
  Solvation  Ediel_sol  =         0.00000000
  ---------------------------------------------------
  free energy    TOTEN  =      -129.18707905 eV

  energy without entropy =     -129.18707905  energy(sigma->0) =     -129.18707905


--------------------------------------------------------------------------------------------------------




----------------------------------------- Iteration    1(  18)  ---------------------------------------


    POTLOK:  cpu time   22.1526: real time   22.1346
    SETDIJ:  cpu time    0.0290: real time    0.0288
     EDDAV:  cpu time  270.4989: real time  270.2789
       DOS:  cpu time    0.0000: real time    0.0005
    CHARGE:  cpu time   20.2389: real time   20.2220
    MIXING:  cpu time    1.5678: real time    1.5675
    --------------------------------------------
      LOOP:  cpu time  314.4892: real time  314.2360

 eigenvalue-minimisations  :   358
 total energy-change (2. order) :-0.1458092E-02  (-0.1059741E-04)
 number of electron      58.0000039 magnetization 
 augmentation part        2.5768753 magnetization 

 Broyden mixing:
  rms(total) = 0.50662E-03    rms(broyden)= 0.50639E-03
  rms(prec ) = 0.70495E-03
  weight for this iteration     100.00

 eigenvalues of (default mixing * dielectric matrix)
  average eigenvalue GAMMA=   2.1280
  7.6842  4.3084  2.4044  2.4044  1.7860  1.5082  1.5082  1.0581  1.0581  1.0053
  1.0053  0.9664  0.9664

 Free energy of the ion-electron system (eV)
  ---------------------------------------------------
  alpha Z        PSCENC =         0.51957394
  Ewald energy   TEWEN  =      6026.79438217
  -Hartree energ DENC   =     -8030.47948600
  -exchange      EXHF   =         0.00000000
  -V(xc)+E(xc)   XCENC  =       213.96054224
  PAW double counting   =      4743.87691193    -4755.08275924
  entropy T*S    EENTRO =         0.00000000
  eigenvalues    EBANDS =      -754.76103430
  atomic energy  EATOM  =      2425.98333211
  Solvation  Ediel_sol  =         0.00000000
  ---------------------------------------------------
  free energy    TOTEN  =      -129.18853715 eV

  energy without entropy =     -129.18853715  energy(sigma->0) =     -129.18853715


--------------------------------------------------------------------------------------------------------




----------------------------------------- Iteration    1(  19)  ---------------------------------------


    POTLOK:  cpu time   22.1316: real time   22.1137
    SETDIJ:  cpu time    0.0280: real time    0.0288
     EDDAV:  cpu time  230.9389: real time  230.7511
       DOS:  cpu time    0.0000: real time    0.0005
    CHARGE:  cpu time   18.0573: real time   18.0421
    MIXING:  cpu time    1.3628: real time    1.3620
    --------------------------------------------
      LOOP:  cpu time  272.5226: real time  272.3021

 eigenvalue-minimisations  :   284
 total energy-change (2. order) :-0.7902634E-03  (-0.4222785E-05)
 number of electron      58.0000039 magnetization 
 augmentation part        2.5768814 magnetization 

 Broyden mixing:
  rms(total) = 0.28080E-03    rms(broyden)= 0.28069E-03
  rms(prec ) = 0.40241E-03
  weight for this iteration     100.00

 eigenvalues of (default mixing * dielectric matrix)
  average eigenvalue GAMMA=   2.1590
  8.1277  4.8304  2.6378  2.6378  1.6587  1.5689  1.5689  1.1219  1.1219  1.0021
  1.0021  0.9671  0.9904  0.9904

 Free energy of the ion-electron system (eV)
  ---------------------------------------------------
  alpha Z        PSCENC =         0.51957394
  Ewald energy   TEWEN  =      6026.79438217
  -Hartree energ DENC   =     -8030.52847790
  -exchange      EXHF   =         0.00000000
  -V(xc)+E(xc)   XCENC  =       213.95939208
  PAW double counting   =      4743.80745242    -4755.01330967
  entropy T*S    EENTRO =         0.00000000
  eigenvalues    EBANDS =      -754.71167256
  atomic energy  EATOM  =      2425.98333211
  Solvation  Ediel_sol  =         0.00000000
  ---------------------------------------------------
  free energy    TOTEN  =      -129.18932741 eV

  energy without entropy =     -129.18932741  energy(sigma->0) =     -129.18932741


--------------------------------------------------------------------------------------------------------




----------------------------------------- Iteration    1(  20)  ---------------------------------------


    POTLOK:  cpu time   19.4041: real time   19.3880
    SETDIJ:  cpu time    0.0280: real time    0.0284
     EDDAV:  cpu time  263.8469: real time  263.6306
       DOS:  cpu time    0.0000: real time    0.0005
    CHARGE:  cpu time   18.6542: real time   18.6396
    MIXING:  cpu time    1.5738: real time    1.5721
    --------------------------------------------
      LOOP:  cpu time  303.5079: real time  303.2631

 eigenvalue-minimisations  :   360
 total energy-change (2. order) :-0.3482640E-03  (-0.1879197E-05)
 number of electron      58.0000039 magnetization 
 augmentation part        2.5768579 magnetization 

 Broyden mixing:
  rms(total) = 0.20357E-03    rms(broyden)= 0.20347E-03
  rms(prec ) = 0.27209E-03
  weight for this iteration     100.00

 eigenvalues of (default mixing * dielectric matrix)
  average eigenvalue GAMMA=   2.1860
  8.3413  5.3396  2.7481  2.6148  2.1982  1.5301  1.3665  1.3665  1.0218  1.0218
  1.0926  1.0062  1.0062  1.0681  1.0681

 Free energy of the ion-electron system (eV)
  ---------------------------------------------------
  alpha Z        PSCENC =         0.51957394
  Ewald energy   TEWEN  =      6026.79438217
  -Hartree energ DENC   =     -8030.55536663
  -exchange      EXHF   =         0.00000000
  -V(xc)+E(xc)   XCENC  =       213.95885596
  PAW double counting   =      4743.65715895    -4754.86295230
  entropy T*S    EENTRO =         0.00000000
  eigenvalues    EBANDS =      -754.68465986
  atomic energy  EATOM  =      2425.98333211
  Solvation  Ediel_sol  =         0.00000000
  ---------------------------------------------------
  free energy    TOTEN  =      -129.18967567 eV

  energy without entropy =     -129.18967567  energy(sigma->0) =     -129.18967567


--------------------------------------------------------------------------------------------------------




----------------------------------------- Iteration    1(  21)  ---------------------------------------


    POTLOK:  cpu time   21.2028: real time   21.1847
    SETDIJ:  cpu time    0.0290: real time    0.0290
     EDDAV:  cpu time  278.8396: real time  278.6130
       DOS:  cpu time    0.0010: real time    0.0005
    CHARGE:  cpu time   18.6112: real time   18.5966
    MIXING:  cpu time    1.7557: real time    1.7540
    --------------------------------------------
      LOOP:  cpu time  320.4403: real time  320.1827

 eigenvalue-minimisations  :   350
 total energy-change (2. order) :-0.2000789E-03  (-0.8235587E-06)
 number of electron      58.0000039 magnetization 
 augmentation part        2.5768456 magnetization 

 Broyden mixing:
  rms(total) = 0.11471E-03    rms(broyden)= 0.11464E-03
  rms(prec ) = 0.15796E-03
  weight for this iteration     100.00

 eigenvalues of (default mixing * dielectric matrix)
  average eigenvalue GAMMA=   2.2301
  8.4988  5.8227  3.4531  2.6246  2.2854  1.6091  1.6091  1.2223  1.2223  1.3114
  1.0197  1.0197  0.9728  1.0244  0.9931  0.9931

 Free energy of the ion-electron system (eV)
  ---------------------------------------------------
  alpha Z        PSCENC =         0.51957394
  Ewald energy   TEWEN  =      6026.79438217
  -Hartree energ DENC   =     -8030.55921082
  -exchange      EXHF   =         0.00000000
  -V(xc)+E(xc)   XCENC  =       213.95839602
  PAW double counting   =      4743.68705789    -4754.89286508
  entropy T*S    EENTRO =         0.00000000
  eigenvalues    EBANDS =      -754.68054198
  atomic energy  EATOM  =      2425.98333211
  Solvation  Ediel_sol  =         0.00000000
  ---------------------------------------------------
  free energy    TOTEN  =      -129.18987575 eV

  energy without entropy =     -129.18987575  energy(sigma->0) =     -129.18987575


--------------------------------------------------------------------------------------------------------




----------------------------------------- Iteration    1(  22)  ---------------------------------------


    POTLOK:  cpu time   20.0460: real time   20.0313
    SETDIJ:  cpu time    0.0300: real time    0.0289
     EDDAV:  cpu time  208.4483: real time  208.2769
       DOS:  cpu time    0.0000: real time    0.0005
    CHARGE:  cpu time   17.7683: real time   17.7533
    MIXING:  cpu time    1.9547: real time    1.9542
    --------------------------------------------
      LOOP:  cpu time  248.2493: real time  248.0490

 eigenvalue-minimisations  :   272
 total energy-change (2. order) :-0.1163345E-03  (-0.2880631E-06)
 number of electron      58.0000039 magnetization 
 augmentation part        2.5768506 magnetization 

 Broyden mixing:
  rms(total) = 0.83220E-04    rms(broyden)= 0.83183E-04
  rms(prec ) = 0.10263E-03
  weight for this iteration     100.00

 eigenvalues of (default mixing * dielectric matrix)
  average eigenvalue GAMMA=   2.2245
  8.6015  6.1761  3.7061  2.5464  2.3949  2.0463  1.2892  1.2892  1.4702  1.2701
  1.0389  1.0389  1.0226  1.0226  0.9228  0.9907  0.9907

 Free energy of the ion-electron system (eV)
  ---------------------------------------------------
  alpha Z        PSCENC =         0.51957394
  Ewald energy   TEWEN  =      6026.79438217
  -Hartree energ DENC   =     -8030.57711608
  -exchange      EXHF   =         0.00000000
  -V(xc)+E(xc)   XCENC  =       213.95825782
  PAW double counting   =      4743.61292919    -4754.81871915
  entropy T*S    EENTRO =         0.00000000
  eigenvalues    EBANDS =      -754.66263208
  atomic energy  EATOM  =      2425.98333211
  Solvation  Ediel_sol  =         0.00000000
  ---------------------------------------------------
  free energy    TOTEN  =      -129.18999209 eV

  energy without entropy =     -129.18999209  energy(sigma->0) =     -129.18999209


--------------------------------------------------------------------------------------------------------




----------------------------------------- Iteration    1(  23)  ---------------------------------------


    POTLOK:  cpu time   22.7435: real time   22.7265
    SETDIJ:  cpu time    0.0300: real time    0.0291
     EDDAV:  cpu time  287.9962: real time  287.7612
       DOS:  cpu time    0.0000: real time    0.0005
    --------------------------------------------
      LOOP:  cpu time  310.7728: real time  310.5213

 eigenvalue-minimisations  :   368
 total energy-change (2. order) :-0.3423806E-04  (-0.8411260E-07)
 number of electron      58.0000039 magnetization 
 augmentation part        2.5768506 magnetization 

 Free energy of the ion-electron system (eV)
  ---------------------------------------------------
  alpha Z        PSCENC =         0.51957394
  Ewald energy   TEWEN  =      6026.79438217
  -Hartree energ DENC   =     -8030.58251026
  -exchange      EXHF   =         0.00000000
  -V(xc)+E(xc)   XCENC  =       213.95820945
  PAW double counting   =      4743.63919749    -4754.84499253
  entropy T*S    EENTRO =         0.00000000
  eigenvalues    EBANDS =      -754.65721870
  atomic energy  EATOM  =      2425.98333211
  Solvation  Ediel_sol  =         0.00000000
  ---------------------------------------------------
  free energy    TOTEN  =      -129.19002632 eV

  energy without entropy =     -129.19002632  energy(sigma->0) =     -129.19002632


--------------------------------------------------------------------------------------------------------




 average (electrostatic) potential at core
  the test charge radii are     0.5201  0.6991  0.7089  0.7215
  (the norm of the test charge is              1.0000)
       1 -42.2925       2 -42.5522       3 -42.5849       4 -44.7657       5 -42.3721
       6 -41.7997       7 -41.9385       8 -42.0724       9 -43.0405      10 -41.6698
      11 -41.6753      12 -41.9559      13 -59.1058      14 -61.6165      15 -60.1258
      16 -58.6917      17 -60.8052      18 -59.0827      19 -74.8199      20 -73.8171
      21 -80.0905      22 -79.1484
 
 
 
 E-fermi :  -4.5154     XC(G=0):  -0.1517     alpha+bet : -0.0465


 k-point     1 :       0.2500    0.2500    0.2500
  band No.  band energies     occupation 
      1     -26.2600      2.00000
      2     -25.4484      2.00000
      3     -23.4970      2.00000
      4     -22.5653      2.00000
      5     -19.5914      2.00000
      6     -18.2454      2.00000
      7     -17.3624      2.00000
      8     -16.0515      2.00000
      9     -14.9588      2.00000
     10     -13.9082      2.00000
     11     -13.0359      2.00000
     12     -12.5034      2.00000
     13     -11.6958      2.00000
     14     -11.3299      2.00000
     15     -11.0676      2.00000
     16     -10.6029      2.00000
     17     -10.4261      2.00000
     18     -10.0743      2.00000
     19     -10.0080      2.00000
     20      -9.8949      2.00000
     21      -9.3516      2.00000
     22      -9.1416      2.00000
     23      -9.0255      2.00000
     24      -8.8026      2.00000
     25      -8.3371      2.00000
     26      -6.5815      2.00000
     27      -6.3114      2.00000
     28      -5.7641      2.00000
     29      -5.4861      2.00000
     30      -1.1492      0.00000
     31      -1.0641      0.00000
     32      -0.4486      0.00000
     33      -0.2380      0.00000
     34      -0.1646      0.00000
     35      -0.0568      0.00000
     36       0.0218      0.00000
     37       0.0797      0.00000
     38       0.1118      0.00000
     39       0.1160      0.00000
     40       0.1478      0.00000
     41       0.1807      0.00000

 k-point     2 :      -0.2500    0.2500    0.2500
  band No.  band energies     occupation 
      1     -26.2600      2.00000
      2     -25.4484      2.00000
      3     -23.4970      2.00000
      4     -22.5653      2.00000
      5     -19.5914      2.00000
      6     -18.2454      2.00000
      7     -17.3624      2.00000
      8     -16.0515      2.00000
      9     -14.9588      2.00000
     10     -13.9082      2.00000
     11     -13.0359      2.00000
     12     -12.5034      2.00000
     13     -11.6958      2.00000
     14     -11.3299      2.00000
     15     -11.0676      2.00000
     16     -10.6029      2.00000
     17     -10.4261      2.00000
     18     -10.0743      2.00000
     19     -10.0080      2.00000
     20      -9.8949      2.00000
     21      -9.3516      2.00000
     22      -9.1415      2.00000
     23      -9.0255      2.00000
     24      -8.8026      2.00000
     25      -8.3371      2.00000
     26      -6.5815      2.00000
     27      -6.3114      2.00000
     28      -5.7641      2.00000
     29      -5.4861      2.00000
     30      -1.1492      0.00000
     31      -1.0641      0.00000
     32      -0.4486      0.00000
     33      -0.2380      0.00000
     34      -0.1645      0.00000
     35      -0.0576      0.00000
     36       0.0230      0.00000
     37       0.0784      0.00000
     38       0.1047      0.00000
     39       0.1202      0.00000
     40       0.1656      0.00000
     41       0.1796      0.00000

 k-point     3 :       0.2500   -0.2500    0.2500
  band No.  band energies     occupation 
      1     -26.2600      2.00000
      2     -25.4484      2.00000
      3     -23.4970      2.00000
      4     -22.5653      2.00000
      5     -19.5914      2.00000
      6     -18.2454      2.00000
      7     -17.3624      2.00000
      8     -16.0515      2.00000
      9     -14.9588      2.00000
[...]
 augmentation part        2.5793433 magnetization 

 Free energy of the ion-electron system (eV)
  ---------------------------------------------------
  alpha Z        PSCENC =         0.51957394
  Ewald energy   TEWEN  =      6054.22502116
  -Hartree energ DENC   =     -8057.32162841
  -exchange      EXHF   =         0.00000000
  -V(xc)+E(xc)   XCENC  =       214.08084667
  PAW double counting   =      4765.58400999    -4776.79725053
  entropy T*S    EENTRO =         0.00000000
  eigenvalues    EBANDS =      -755.54481799
  atomic energy  EATOM  =      2425.98333211
  Solvation  Ediel_sol  =         0.00000000
  ---------------------------------------------------
  free energy    TOTEN  =      -129.27091306 eV

  energy without entropy =     -129.27091306  energy(sigma->0) =     -129.27091306


--------------------------------------------------------------------------------------------------------




 average (electrostatic) potential at core
  the test charge radii are     0.5201  0.6991  0.7089  0.7215
  (the norm of the test charge is              1.0000)
       1 -42.3485       2 -42.6102       3 -42.6236       4 -44.7947       5 -42.3835
       6 -41.8389       7 -41.9535       8 -42.0682       9 -43.0730      10 -41.6671
      11 -41.6615      12 -41.9580      13 -59.1365      14 -61.6069      15 -60.1000
      16 -58.6867      17 -60.7754      18 -59.0540      19 -74.8117      20 -73.8129
      21 -80.1147      22 -79.1468
 
 
 
 E-fermi :  -4.5042     XC(G=0):  -0.1304     alpha+bet : -0.0465


 k-point     1 :       0.2500    0.2500    0.2500
  band No.  band energies     occupation 
      1     -26.2855      2.00000
      2     -25.4669      2.00000
      3     -23.5303      2.00000
      4     -22.5709      2.00000
      5     -19.6449      2.00000
      6     -18.2824      2.00000
      7     -17.3553      2.00000
      8     -16.0843      2.00000
      9     -14.9049      2.00000
     10     -13.8942      2.00000
     11     -13.1155      2.00000
     12     -12.5018      2.00000
     13     -11.6334      2.00000
     14     -11.4002      2.00000
     15     -11.0453      2.00000
     16     -10.6491      2.00000
     17     -10.4538      2.00000
     18     -10.1039      2.00000
     19     -10.0346      2.00000
     20      -9.9517      2.00000
     21      -9.3763      2.00000
     22      -9.1457      2.00000
     23      -9.0172      2.00000
     24      -8.7851      2.00000
     25      -8.3225      2.00000
     26      -6.6447      2.00000
     27      -6.3407      2.00000
     28      -5.7567      2.00000
     29      -5.4745      2.00000
     30      -1.1510      0.00000
     31      -1.0779      0.00000
     32      -0.4468      0.00000
     33      -0.2378      0.00000
     34      -0.1637      0.00000
     35      -0.0547      0.00000
     36       0.0458      0.00000
     37       0.1025      0.00000
     38       0.1347      0.00000
     39       0.1410      0.00000
     40       0.1698      0.00000
     41       0.2023      0.00000

 k-point     2 :      -0.2500    0.2500    0.2500
  band No.  band energies     occupation 
      1     -26.2855      2.00000
      2     -25.4669      2.00000
      3     -23.5303      2.00000
      4     -22.5709      2.00000
      5     -19.6449      2.00000
      6     -18.2824      2.00000
      7     -17.3553      2.00000
      8     -16.0843      2.00000
      9     -14.9049      2.00000
     10     -13.8942      2.00000
     11     -13.1154      2.00000
     12     -12.5018      2.00000
     13     -11.6335      2.00000
     14     -11.4002      2.00000
     15     -11.0453      2.00000
     16     -10.6491      2.00000
     17     -10.4538      2.00000
     18     -10.1039      2.00000
     19     -10.0346      2.00000
     20      -9.9517      2.00000
     21      -9.3763      2.00000
     22      -9.1457      2.00000
     23      -9.0172      2.00000
     24      -8.7851      2.00000
     25      -8.3225      2.00000
     26      -6.6447      2.00000
     27      -6.3407      2.00000
     28      -5.7567      2.00000
     29      -5.4745      2.00000
     30      -1.1510      0.00000
     31      -1.0779      0.00000
     32      -0.4468      0.00000
     33      -0.2378      0.00000
     34      -0.1636      0.00000
     35      -0.0552      0.00000
     36       0.0465      0.00000
     37       0.1011      0.00000
     38       0.1282      0.00000
     39       0.1450      0.00000
     40       0.1872      0.00000
     41       0.2005      0.00000

 k-point     3 :       0.2500   -0.2500    0.2500
  band No.  band energies     occupation 
      1     -26.2855      2.00000
      2     -25.4669      2.00000
      3     -23.5303      2.00000
      4     -22.5709      2.00000
      5     -19.6449      2.00000
      6     -18.2824      2.00000
      7     -17.3553      2.00000
      8     -16.0843      2.00000
      9     -14.9049      2.00000
     10     -13.8942      2.00000
     11     -13.1155      2.00000
     12     -12.5018      2.00000
     13     -11.6334      2.00000
     14     -11.4002      2.00000
     15     -11.0453      2.00000
     16     -10.6491      2.00000
     17     -10.4538      2.00000
     18     -10.1039      2.00000
     19     -10.0346      2.00000
     20      -9.9517      2.00000
     21      -9.3763      2.00000
     22      -9.1457      2.00000
     23      -9.0172      2.00000
     24      -8.7851      2.00000
     25      -8.3225      2.00000
     26      -6.6447      2.00000
     27      -6.3407      2.00000
     28      -5.7567      2.00000
     29      -5.4745      2.00000
     30      -1.1510      0.00000
     31      -1.0779      0.00000
     32      -0.4468      0.00000
     33      -0.2378      0.00000
     34      -0.1636      0.00000
     35      -0.0539      0.00000
     36       0.0383      0.00000
     37       0.1142      0.00000
     38       0.1263      0.00000
     39       0.1459      0.00000
     40       0.1907      0.00000
     41       0.1972      0.00000

 k-point     4 :      -0.2500   -0.2500    0.2500
  band No.  band energies     occupation 
      1     -26.2855      2.00000
      2     -25.4669      2.00000
      3     -23.5303      2.00000
      4     -22.5709      2.00000
      5     -19.6449      2.00000
      6     -18.2824      2.00000
      7     -17.3553      2.00000
      8     -16.0843      2.00000
      9     -14.9049      2.00000
     10     -13.8942      2.00000
     11     -13.1155      2.00000
     12     -12.5018      2.00000
     13     -11.6335      2.00000
     14     -11.4002      2.00000
     15     -11.0453      2.00000
     16     -10.6491      2.00000
     17     -10.4538      2.00000
     18     -10.1039      2.00000
     19     -10.0346      2.00000
     20      -9.9517      2.00000
     21      -9.3763      2.00000
     22      -9.1457      2.00000
     23      -9.0172      2.00000
     24      -8.7851      2.00000
     25      -8.3225      2.00000
     26      -6.6447      2.00000
     27      -6.3407      2.00000
     28      -5.7567      2.00000
     29      -5.4745      2.00000
     30      -1.1510      0.00000
     31      -1.0779      0.00000
     32      -0.4468      0.00000
     33      -0.2378      0.00000
     34      -0.1636      0.00000
     35      -0.0540      0.00000
     36       0.0389      0.00000
     37       0.1196      0.00000
     38       0.1286      0.00000
     39       0.1393      0.00000
     40       0.1730      0.00000
     41       0.1958      0.00000


--------------------------------------------------------------------------------------------------------


 soft charge-density along one line, spin component           1
         0         1         2         3         4         5         6         7         8         9
 total charge-density along one line
 
 pseudopotential strength for first ion, spin component:           1
 -2.353  -4.056   0.002   0.000  -0.001
 -4.056  -6.907   0.005  -0.001  -0.003
  0.002   0.005  -0.332  -0.001  -0.002
  0.000  -0.001  -0.001  -0.336   0.000
 -0.001  -0.003  -0.002   0.000  -0.335
 total augmentation occupancy for first ion, spin component:           1
  3.533  -0.636  -0.382   0.076   0.213
 -0.636   0.129   0.070  -0.014  -0.039
 -0.382   0.070   0.044  -0.007  -0.020
  0.076  -0.014  -0.007   0.010   0.004
  0.213  -0.039  -0.020   0.004   0.019


------------------------ aborting loop because EDIFF is reached ----------------------------------------


    CHARGE:  cpu time   16.0456: real time   16.0313
    FORLOC:  cpu time    5.6161: real time    5.6119
    FORNL :  cpu time   59.3520: real time   59.3027
    STRESS:  cpu time  180.7895: real time  180.6383
    FORCOR:  cpu time   22.2606: real time   22.2420
    FORHAR:  cpu time    9.8875: real time    9.8796
    MIXING:  cpu time    0.7439: real time    0.7437
    OFIELD:  cpu time    0.0000: real time    0.0000

  FORCE on cell =-STRESS in cart. coord.  units (eV):
  Direction    XX          YY          ZZ          XY          YZ          ZX
  --------------------------------------------------------------------------------------
  Alpha Z     0.51957     0.51957     0.51957
  Ewald    3477.74948  2398.01606   178.45827   136.67486  -301.44001   109.87477
  Hartree  3868.70172  2905.33634  1283.28453   119.29164  -139.45470    87.25528
  E(xc)    -229.09876  -229.69073  -232.24803    -0.05313    -0.94022     0.20958
  Local   -7935.98654 -5893.51933 -2105.55336  -260.06455   413.06539  -192.91724
  n-local  -133.46991  -133.75442  -131.95812     0.64652     1.82579    -0.82748
  augment    14.36119    14.33381    14.77319     0.06867     0.46463    -0.02170
  Kinetic   933.52640   935.09980   989.00014     3.40654    26.26946    -3.46578
  Fock        0.00000     0.00000     0.00000     0.00000     0.00000     0.00000
  -------------------------------------------------------------------------------------
  Total      -3.69684    -3.65888    -3.72379    -0.02945    -0.20966     0.10743
  in kB      -0.21937    -0.21712    -0.22097    -0.00175    -0.01244     0.00638
  external pressure =       -0.22 kB  Pullay stress =        0.00 kB


 VOLUME and BASIS-vectors are now :
 -----------------------------------------------------------------------------
  energy-cutoff  :      400.00
  volume of cell :    27000.00
      direct lattice vectors                 reciprocal lattice vectors
    30.000000000  0.000000000  0.000000000     0.033333333  0.000000000  0.000000000
     0.000000000 30.000000000  0.000000000     0.000000000  0.033333333  0.000000000
     0.000000000  0.000000000 30.000000000     0.000000000  0.000000000  0.033333333

  length of vectors
    30.000000000 30.000000000 30.000000000     0.033333333  0.033333333  0.033333333


 FORCES acting on ions
    electron-ion (+dipol)            ewald-force                    non-local-force                 convergence-correction
 -----------------------------------------------------------------------------------------------
   0.677E+02 -.534E+02 0.780E+01   -.704E+02 0.583E+02 -.877E+01   0.273E+01 -.489E+01 0.978E+00   0.116E-04 0.742E-04 0.128E-03
   0.562E+02 0.449E+02 0.449E+02   -.579E+02 -.485E+02 -.487E+02   0.166E+01 0.361E+01 0.375E+01   -.147E-04 -.504E-06 0.919E-04
   0.532E+02 0.222E+02 -.626E+02   -.547E+02 -.240E+02 0.676E+02   0.148E+01 0.187E+01 -.495E+01   0.283E-04 0.520E-04 0.847E-04
   0.587E+02 0.877E+02 -.450E+02   -.626E+02 -.935E+02 0.475E+02   0.392E+01 0.577E+01 -.240E+01   0.114E-04 0.475E-04 0.115E-03
   -.151E+02 0.641E+02 -.780E+02   0.165E+02 -.671E+02 0.826E+02   -.137E+01 0.299E+01 -.466E+01   0.470E-05 0.190E-04 0.705E-04
   -.634E+02 0.573E+02 0.256E+02   0.688E+02 -.590E+02 -.258E+02   -.535E+01 0.177E+01 0.134E+00   0.455E-04 0.860E-05 0.216E-05
   0.646E+01 0.305E+01 0.857E+02   -.755E+01 -.401E+00 -.904E+02   0.108E+01 -.263E+01 0.474E+01   0.585E-04 -.167E-04 0.421E-04
   0.312E+02 0.830E+02 0.156E+02   -.344E+02 -.874E+02 -.154E+02   0.322E+01 0.439E+01 -.272E+00   0.353E-04 0.255E-06 0.120E-04
   0.400E+02 -.580E+02 0.212E+02   -.465E+02 0.597E+02 -.229E+02   0.651E+01 -.170E+01 0.160E+01   -.101E-04 0.786E-04 0.112E-03
   -.568E+02 -.372E+02 -.561E+02   0.597E+02 0.374E+02 0.609E+02   -.297E+01 -.279E+00 -.476E+01   -.493E-04 0.368E-04 -.352E-05
   -.659E+02 -.152E+02 0.554E+02   0.695E+02 0.137E+02 -.594E+02   -.361E+01 0.143E+01 0.399E+01   0.528E-05 0.312E-04 0.470E-04
   0.261E+01 -.856E+02 0.163E+02   -.475E+01 0.907E+02 -.175E+02   0.214E+01 -.509E+01 0.118E+01   -.377E-05 0.194E-04 0.708E-04
   0.225E+03 0.134E+02 -.162E+02   -.226E+03 -.124E+02 0.162E+02   0.916E+00 -.100E+01 0.318E-01   0.122E-03 0.191E-03 0.619E-03
   0.170E+03 0.140E+02 -.214E+02   -.175E+03 -.144E+02 0.215E+02   0.497E+01 0.455E+00 -.504E-01   0.149E-03 0.248E-03 0.352E-03
   -.211E+02 0.129E+03 -.642E+02   0.264E+02 -.130E+03 0.638E+02   -.527E+01 0.116E+01 0.365E+00   0.731E-04 0.193E-03 0.210E-03
   -.282E+02 0.187E+03 0.139E+03   0.289E+02 -.187E+03 -.139E+03   -.748E+00 0.372E+00 0.675E+00   0.594E-04 0.992E-04 -.217E-04
   -.157E+02 0.185E+02 -.355E+02   0.132E+02 -.205E+02 0.357E+02   0.252E+01 0.192E+01 -.967E-01   0.102E-03 0.172E-03 0.146E-03
   -.149E+03 -.193E+03 0.226E+02   0.153E+03 0.196E+03 -.228E+02   -.429E+01 -.309E+01 0.241E+00   -.254E-04 0.249E-03 0.336E-03
   0.100E+03 0.140E+03 -.129E+03   -.962E+02 -.137E+03 0.133E+03   -.430E+01 -.276E+01 -.422E+01   0.175E-03 0.625E-03 0.108E-02
   -.123E+02 -.197E+03 0.215E+02   0.812E+01 0.201E+03 -.214E+02   0.413E+01 -.417E+01 -.814E-01   0.121E-03 0.303E-03 0.517E-03
   0.867E+02 -.347E+03 0.162E+03   -.745E+02 0.392E+03 -.183E+03   -.122E+02 -.450E+02 0.211E+02   0.183E-03 -.869E-03 -.130E-02
   -.417E+03 0.148E+03 -.117E+03   0.466E+03 -.167E+03 0.127E+03   -.484E+02 0.185E+02 -.106E+02   0.257E-04 0.278E-03 0.181E-03
 -----------------------------------------------------------------------------------------------
   0.532E+02 0.264E+02 -.679E+01   0.568E-13 0.142E-12 -.711E-13   -.532E+02 -.264E+02 0.678E+01   0.111E-02 0.184E-02 0.289E-02
 
 
 POSITION                                       TOTAL-FORCE (eV/Angst)
 -----------------------------------------------------------------------------------
     11.19497     16.00143     15.02298         0.005654      0.003400      0.017084
     11.40378     14.32463     14.45450        -0.014565      0.006767      0.003273
     11.44700     14.67430     16.19928         0.014799     -0.005944      0.005954
     13.45164     13.48730     15.86200         0.007883      0.021596      0.059896
     15.65603     13.33549     16.28305         0.002871     -0.009502     -0.007968
     16.65511     12.64986     14.13637        -0.005301      0.005978     -0.016464
     15.39132     13.53180     13.22677        -0.008382      0.012733     -0.005879
     14.95278     12.12321     14.23394        -0.004863      0.005574     -0.014126
     15.32167     16.50702     14.82761         0.003636     -0.006705     -0.026074
     17.94664     17.28448     15.89519        -0.002172      0.000310      0.013428
     18.08110     16.94154     14.15958         0.003230      0.003396      0.004820
     16.94336     18.20368     14.72820        -0.002557      0.004893      0.007952
     11.72463     15.06104     15.20780         0.002441     -0.001185      0.004431
     13.21839     15.30688     15.07651         0.004966     -0.007203     -0.024284
     15.42582     13.92090     15.37892        -0.001539      0.001240     -0.000158
     15.61470     12.99970     14.16250        -0.004608      0.007011     -0.008893
     16.56107     14.97480     15.37823        -0.001400     -0.002524      0.008694
     17.37515     17.22188     14.95747        -0.006838     -0.003667      0.008475
     13.99533     14.28458     15.53633         0.004046      0.004736      0.018546
     16.29841     16.25527     15.06731        -0.005106     -0.001480      0.004163
     13.64135     16.36737     14.58318         0.003223     -0.042087     -0.073181
     17.69971     14.54288     15.62224         0.004582      0.002662      0.020310
 -----------------------------------------------------------------------------------
    total drift:                               -0.005051      0.000295     -0.009947


--------------------------------------------------------------------------------------------------------



  FREE ENERGIE OF THE ION-ELECTRON SYSTEM (eV)
  ---------------------------------------------------
  free  energy   TOTEN  =      -129.27091306 eV

  energy  without entropy=     -129.27091306  energy(sigma->0) =     -129.27091306
 
 d Force = 0.4693397E-03[ 0.467E-03, 0.471E-03]  d Energy = 0.4707023E-03-0.136E-05
 d Force =-0.7368199E-01[-0.724E-01,-0.750E-01]  d Ewald  =-0.7368202E-01 0.254E-07


--------------------------------------------------------------------------------------------------------


    POTLOK:  cpu time   19.2101: real time   19.1933


--------------------------------------------------------------------------------------------------------


 NEB: the previous image is higher in energy: T
 NEB: the next image is higher in energy    : F
 NEB: only prev energy greater

 NEB: Tangent
 ----------------------------------------------
      0.00007     -0.00952      0.02022
     -0.03270     -0.01734      0.03743
      0.00188     -0.00080      0.03337
     -0.00789      0.02631      0.20526
     -0.03426     -0.15708     -0.02975
     -0.01057      0.14150     -0.14071
      0.01498      0.29857     -0.05117
     -0.01700      0.12971     -0.25535
      0.02517     -0.06185     -0.19167
     -0.15131      0.12034      0.12982
      0.22759     -0.23851      0.13034
      0.02855     -0.07030     -0.32793
     -0.00899     -0.01395      0.02525
     -0.00715     -0.04641     -0.02354
     -0.02133     -0.01733      0.04358
     -0.00882      0.14996     -0.11206
     -0.01133     -0.01755      0.20010
      0.02907     -0.05818     -0.03048
     -0.01062     -0.00303      0.10963
      0.00940     -0.04190     -0.07169
      0.00751     -0.10712     -0.17772
     -0.02229     -0.00551      0.47698

 NEB: forces: par spring, perp REAL, dneb     0.099159    0.108863    0.000000
 NEB: distance to prev, next image, angle between     1.284851    1.265019  141.496061
 NEB: projections on to tangent (spring, REAL)    -0.099159    0.065634

 stress matrix after NEB project (eV)
     -3.69684     -0.02945      0.10743
     -0.02945     -3.65888     -0.20966
      0.10743     -0.20966     -3.72379
  FORCES: max atom, RMS     0.064555    0.031394
  FORCE total and by dimension    0.147253    0.061992
  Stress total and by dimension    6.405733    3.723793
 OPT: skip step - force has converged


--------------------------------------------------------------------------------------------------------


  
 reached required accuracy - stopping structural energy minimisation
     LOOP+:  cpu time 1822.2420: real time 1820.7638
    4ORBIT:  cpu time    0.0000: real time    0.0000

 total amount of memory used by VASP on root node  4333711. kBytes
========================================================================

   base      :      30000. kBytes
   nonlr-proj:       2406. kBytes
   fftplans  :     924480. kBytes
   grid      :    2089440. kBytes
   one-center:         67. kBytes
   wavefun   :    1287318. kBytes
 
  
  
 General timing and accounting informations for this job:
 ========================================================
  
                  Total CPU time used (sec):   226722.906
                            User time (sec):   225260.103
                          System time (sec):     1462.806
                         Elapsed time (sec):   226579.189
  
                   Maximum memory used (kb):     5902808.
                   Average memory used (kb):           0.
  
                          Minor page faults:    323189357
                          Major page faults:            6
                 Voluntary context switches:        13708
