 vasp.5.4.1 24Jun15 (build Jan 13 2020 12:58:22) complex                        
  
 POSCAR found type information on POSCAR  H  C  N  O 
 09/POSCAR found :  4 types and      22 ions
 scaLAPACK will be used
 LDA part: xc-table for Pade appr. of Perdew
 POSCAR found type information on POSCAR  H  C  N  O 
 00/POSCAR found :  4 types and      22 ions
 POSCAR found type information on POSCAR  H  C  N  O 
 16/POSCAR found :  4 types and      22 ions
 Jacobian:    50.2178792621697     
 POSCAR, INCAR and KPOINTS ok, starting setup
 WARNING: small aliasing (wrap around) errors must be expected
 FFT: planning ...
 WAVECAR not read
 entering main loop
       N       E                     dE             d eps       ncg     rms          rms(c)
DAV:   1     0.608194415587E+03    0.60819E+03   -0.79623E+03   392   0.485E+02
DAV:   2     0.272741846470E+03   -0.33545E+03   -0.32534E+03   579   0.910E+01
DAV:   3    -0.467299496154E+02   -0.31947E+03   -0.31043E+03   496   0.110E+02
DAV:   4    -0.136555357290E+03   -0.89825E+02   -0.89671E+02   398   0.812E+01
DAV:   5    -0.141532940339E+03   -0.49776E+01   -0.49643E+01   447   0.223E+01    0.195E+01
DAV:   6    -0.131468222646E+03    0.10065E+02   -0.23897E+01   415   0.201E+01    0.990E+00
DAV:   7    -0.129733834963E+03    0.17344E+01   -0.45041E+00   432   0.831E+00    0.512E+00
DAV:   8    -0.129241209953E+03    0.49263E+00   -0.86295E-01   440   0.401E+00    0.148E+00
DAV:   9    -0.129174843180E+03    0.66367E-01   -0.98210E-02   432   0.152E+00    0.570E-01
DAV:  10    -0.129162316895E+03    0.12526E-01   -0.23740E-02   423   0.796E-01    0.254E-01
DAV:  11    -0.129156506295E+03    0.58106E-02   -0.79681E-03   448   0.448E-01    0.159E-01
DAV:  12    -0.129156981826E+03   -0.47553E-03   -0.56799E-03   415   0.358E-01    0.980E-02
DAV:  13    -0.129163531767E+03   -0.65499E-02   -0.43637E-03   456   0.324E-01    0.570E-02
DAV:  14    -0.129170168065E+03   -0.66363E-02   -0.18381E-03   432   0.208E-01    0.377E-02
DAV:  15    -0.129178387314E+03   -0.82192E-02   -0.86907E-04   380   0.109E-01    0.225E-02
DAV:  16    -0.129183906942E+03   -0.55196E-02   -0.42378E-04   350   0.650E-02    0.130E-02
DAV:  17    -0.129187079053E+03   -0.31721E-02   -0.18628E-04   324   0.434E-02    0.735E-03
DAV:  18    -0.129188537145E+03   -0.14581E-02   -0.10597E-04   358   0.281E-02    0.507E-03
DAV:  19    -0.129189327409E+03   -0.79026E-03   -0.42228E-05   284   0.200E-02    0.281E-03
DAV:  20    -0.129189675673E+03   -0.34826E-03   -0.18792E-05   360   0.134E-02    0.204E-03
DAV:  21    -0.129189875752E+03   -0.20008E-03   -0.82356E-06   350   0.826E-03    0.115E-03
DAV:  22    -0.129189992086E+03   -0.11633E-03   -0.28806E-06   272   0.563E-03    0.832E-04
DAV:  23    -0.129190026324E+03   -0.34238E-04   -0.84113E-07   368   0.289E-03
   1 F= -.12919003E+03 E0= -.12919003E+03  d E =-.129190E+03
damped:  g(F)=  0.000E+00 g(S)=  0.000E+00 dE (1.order)= 0.000E+00
 bond charge predicted
       N       E                     dE             d eps       ncg     rms          rms(c)
DAV:   1    -0.129192331133E+03   -0.23390E-02   -0.10262E-01   342   0.172E+00    0.690E-02
DAV:   2    -0.129192518642E+03   -0.18751E-03   -0.27634E-03   464   0.252E-01    0.447E-02
DAV:   3    -0.129192508668E+03    0.99739E-05   -0.72007E-05   367   0.493E-02    0.286E-02
DAV:   4    -0.129192517401E+03   -0.87330E-05   -0.78920E-05   286   0.512E-02    0.713E-03
DAV:   5    -0.129192520047E+03   -0.26458E-05   -0.21096E-05   368   0.249E-02    0.445E-03
DAV:   6    -0.129192521198E+03   -0.11511E-05   -0.34707E-06   243   0.102E-02
   2 F= -.12919252E+03 E0= -.12919252E+03  d E =-.249487E-02
damped:  g(F)=  0.000E+00 g(S)=  0.000E+00 dE (1.order)= 0.000E+00
 bond charge predicted
       N       E                     dE             d eps       ncg     rms          rms(c)
DAV:   1    -0.129194242846E+03   -0.17228E-02   -0.22164E-01   332   0.246E+00    0.861E-02
DAV:   2    -0.129194626440E+03   -0.38359E-03   -0.51102E-03   435   0.332E-01    0.572E-02
DAV:   3    -0.129194611695E+03    0.14744E-04   -0.89171E-05   336   0.569E-02    0.356E-02
DAV:   4    -0.129194635186E+03   -0.23491E-04   -0.11558E-04   297   0.626E-02    0.769E-03
DAV:   5    -0.129194637694E+03   -0.25078E-05   -0.29290E-05   272   0.294E-02    0.550E-03
DAV:   6    -0.129194637953E+03   -0.25833E-06   -0.58620E-06   280   0.127E-02
   3 F= -.12919464E+03 E0= -.12919464E+03  d E =-.211675E-02
damped:  g(F)=  0.000E+00 g(S)=  0.000E+00 dE (1.order)= 0.000E+00
 bond charge predicted
       N       E                     dE             d eps       ncg     rms          rms(c)
DAV:   1    -0.129197148226E+03   -0.25105E-02   -0.31710E-01   335   0.286E+00    0.105E-01
DAV:   2    -0.129197730723E+03   -0.58250E-03   -0.76252E-03   427   0.384E-01    0.673E-02
DAV:   3    -0.129197722286E+03    0.84373E-05   -0.11163E-04   368   0.627E-02    0.407E-02
DAV:   4    -0.129197767845E+03   -0.45559E-04   -0.12089E-04   304   0.631E-02    0.778E-03
DAV:   5    -0.129197773426E+03   -0.55807E-05   -0.27432E-05   272   0.281E-02    0.542E-03
DAV:   6    -0.129197775565E+03   -0.21395E-05   -0.40305E-06   304   0.103E-02
   4 F= -.12919778E+03 E0= -.12919778E+03  d E =-.313761E-02
damped:  g(F)=  0.000E+00 g(S)=  0.000E+00 dE (1.order)= 0.000E+00
 bond charge predicted
       N       E                     dE             d eps       ncg     rms          rms(c)
DAV:   1    -0.129199922926E+03   -0.21495E-02   -0.48067E-01   332   0.359E+00    0.139E-01
DAV:   2    -0.129200870855E+03   -0.94793E-03   -0.12519E-02   388   0.504E-01    0.876E-02
DAV:   3    -0.129200849937E+03    0.20918E-04   -0.24108E-04   400   0.884E-02    0.532E-02
DAV:   4    -0.129200907371E+03   -0.57434E-04   -0.17807E-04   296   0.795E-02    0.118E-02
DAV:   5    -0.129200917125E+03   -0.97542E-05   -0.47910E-05   304   0.380E-02    0.773E-03
DAV:   6    -0.129200919927E+03   -0.28018E-05   -0.71370E-06   336   0.142E-02
   5 F= -.12920092E+03 E0= -.12920092E+03  d E =-.314436E-02
damped:  g(F)=  0.000E+00 g(S)=  0.000E+00 dE (1.order)= 0.000E+00
 bond charge predicted
       N       E                     dE             d eps       ncg     rms          rms(c)
DAV:   1    -0.129202230772E+03   -0.13136E-02   -0.57161E-01   329   0.388E+00    0.139E-01
DAV:   2    -0.129203359454E+03   -0.11287E-02   -0.14037E-02   398   0.525E-01    0.923E-02
DAV:   3    -0.129203316914E+03    0.42540E-04   -0.19619E-04   368   0.820E-02    0.566E-02
DAV:   4    -0.129203396796E+03   -0.79882E-04   -0.21023E-04   324   0.864E-02    0.102E-02
DAV:   5    -0.129203406230E+03   -0.94345E-05   -0.52020E-05   336   0.374E-02    0.731E-03
DAV:   6    -0.129203409558E+03   -0.33283E-05   -0.54297E-06   268   0.125E-02
   6 F= -.12920341E+03 E0= -.12920341E+03  d E =-.248963E-02
damped:  g(F)=  0.000E+00 g(S)=  0.000E+00 dE (1.order)= 0.000E+00
 bond charge predicted
       N       E                     dE             d eps       ncg     rms          rms(c)
DAV:   1    -0.129204509840E+03   -0.11036E-02   -0.64804E-01   332   0.411E+00    0.144E-01
DAV:   2    -0.129205781439E+03   -0.12716E-02   -0.15929E-02   412   0.559E-01    0.972E-02
DAV:   3    -0.129205703475E+03    0.77964E-04   -0.22744E-04   392   0.862E-02    0.614E-02
DAV:   4    -0.129205799071E+03   -0.95597E-04   -0.23922E-04   336   0.900E-02    0.126E-02
DAV:   5    -0.129205809970E+03   -0.10898E-04   -0.54981E-05   272   0.386E-02    0.772E-03
DAV:   6    -0.129205814674E+03   -0.47047E-05   -0.87662E-06   302   0.148E-02
   7 F= -.12920581E+03 E0= -.12920581E+03  d E =-.240512E-02
damped:  g(F)=  0.000E+00 g(S)=  0.000E+00 dE (1.order)= 0.000E+00
 bond charge predicted
       N       E                     dE             d eps       ncg     rms          rms(c)
DAV:   1    -0.129206106234E+03   -0.29626E-03   -0.85250E-01   330   0.460E+00    0.163E-01
DAV:   2    -0.129207825782E+03   -0.17195E-02   -0.21194E-02   405   0.628E-01    0.111E-01
DAV:   3    -0.129207711656E+03    0.11413E-03   -0.26641E-04   432   0.918E-02    0.695E-02
DAV:   4    -0.129207830929E+03   -0.11927E-03   -0.28384E-04   400   0.101E-01    0.121E-02
DAV:   5    -0.129207845590E+03   -0.14661E-04   -0.68773E-05   320   0.425E-02    0.875E-03
DAV:   6    -0.129207850333E+03   -0.47437E-05   -0.60311E-06   320   0.136E-02
   8 F= -.12920785E+03 E0= -.12920785E+03  d E =-.203566E-02
damped:  g(F)=  0.000E+00 g(S)=  0.000E+00 dE (1.order)= 0.000E+00
 bond charge predicted
       N       E                     dE             d eps       ncg     rms          rms(c)
DAV:   1    -0.129208050313E+03   -0.20472E-03   -0.10866E+00   331   0.518E+00    0.180E-01
DAV:   2    -0.129210282958E+03   -0.22326E-02   -0.26868E-02   420   0.700E-01    0.128E-01
DAV:   3    -0.129210121693E+03    0.16126E-03   -0.36364E-04   432   0.105E-01    0.819E-02
DAV:   4    -0.129210275589E+03   -0.15390E-03   -0.34129E-04   418   0.108E-01    0.139E-02
DAV:   5    -0.129210303940E+03   -0.28351E-04   -0.79753E-05   304   0.426E-02    0.976E-03
DAV:   6    -0.129210313017E+03   -0.90769E-05   -0.65625E-06   286   0.126E-02
   9 F= -.12921031E+03 E0= -.12921031E+03  d E =-.246268E-02
damped:  g(F)=  0.000E+00 g(S)=  0.000E+00 dE (1.order)= 0.000E+00
 bond charge predicted
       N       E                     dE             d eps       ncg     rms          rms(c)
DAV:   1    -0.129209592458E+03    0.71148E-03   -0.14253E+00   328   0.592E+00    0.205E-01
DAV:   2    -0.129212645824E+03   -0.30534E-02   -0.35628E-02   388   0.797E-01    0.150E-01
DAV:   3    -0.129212421455E+03    0.22437E-03   -0.47262E-04   432   0.120E-01    0.977E-02
DAV:   4    -0.129212630778E+03   -0.20932E-03   -0.50782E-04   364   0.130E-01    0.182E-02
DAV:   5    -0.129212663238E+03   -0.32460E-04   -0.12615E-04   432   0.530E-02    0.112E-02
DAV:   6    -0.129212669560E+03   -0.63226E-05   -0.47367E-06   272   0.114E-02
  10 F= -.12921267E+03 E0= -.12921267E+03  d E =-.235654E-02
damped:  g(F)=  0.000E+00 g(S)=  0.000E+00 dE (1.order)= 0.000E+00
 bond charge predicted
       N       E                     dE             d eps       ncg     rms          rms(c)
DAV:   1    -0.129211483960E+03    0.11793E-02   -0.20701E+00   329   0.713E+00    0.269E-01
DAV:   2    -0.129215972649E+03   -0.44887E-02   -0.54805E-02   396   0.999E-01    0.181E-01
DAV:   3    -0.129215671172E+03    0.30148E-03   -0.77053E-04   428   0.152E-01    0.113E-01
DAV:   4    -0.129215971673E+03   -0.30050E-03   -0.68947E-04   396   0.151E-01    0.223E-02
DAV:   5    -0.129216005117E+03   -0.33444E-04   -0.17073E-04   432   0.649E-02    0.145E-02
DAV:   6    -0.129216009947E+03   -0.48305E-05   -0.78467E-06   304   0.152E-02
  11 F= -.12921601E+03 E0= -.12921601E+03  d E =-.334039E-02
damped:  g(F)=  0.000E+00 g(S)=  0.000E+00 dE (1.order)= 0.000E+00
 bond charge predicted
       N       E                     dE             d eps       ncg     rms          rms(c)
DAV:   1    -0.129212631258E+03    0.33739E-02   -0.32769E+00   328   0.928E+00    0.323E-01
DAV:   2    -0.129219738200E+03   -0.71069E-02   -0.84419E-02   396   0.127E+00    0.232E-01
DAV:   3    -0.129219250335E+03    0.48787E-03   -0.12036E-03   463   0.195E-01    0.148E-01
DAV:   4    -0.129219650392E+03   -0.40006E-03   -0.12178E-03   379   0.203E-01    0.283E-02
DAV:   5    -0.129219693303E+03   -0.42911E-04   -0.28535E-04   431   0.836E-02    0.174E-02
DAV:   6    -0.129219702460E+03   -0.91569E-05   -0.13163E-05   272   0.191E-02
  12 F= -.12921970E+03 E0= -.12921970E+03  d E =-.369251E-02
damped:  g(F)=  0.000E+00 g(S)=  0.000E+00 dE (1.order)= 0.000E+00
 bond charge predicted
       N       E                     dE             d eps       ncg     rms          rms(c)
DAV:   1    -0.129208129348E+03    0.11564E-01   -0.59015E+00   329   0.125E+01    0.457E-01
DAV:   2    -0.129221507327E+03   -0.13378E-01   -0.15873E-01   396   0.176E+00    0.307E-01
DAV:   3    -0.129220709347E+03    0.79798E-03   -0.20789E-03   445   0.253E-01    0.193E-01
DAV:   4    -0.129221219904E+03   -0.51056E-03   -0.18674E-03   389   0.258E-01    0.330E-02
DAV:   5    -0.129221300051E+03   -0.80147E-04   -0.45306E-04   464   0.104E-01    0.263E-02
DAV:   6    -0.129221314344E+03   -0.14294E-04   -0.15249E-05   368   0.218E-02
  13 F= -.12922131E+03 E0= -.12922131E+03  d E =-.161188E-02
damped:  g(F)=  0.000E+00 g(S)=  0.000E+00 dE (1.order)= 0.000E+00
 bond charge predicted
       N       E                     dE             d eps       ncg     rms          rms(c)
DAV:   1    -0.129170300180E+03    0.51000E-01   -0.11817E+01   331   0.179E+01    0.781E-01
DAV:   2    -0.129200884914E+03   -0.30585E-01   -0.38459E-01   379   0.279E+00    0.538E-01
DAV:   3    -0.129197782314E+03    0.31026E-02   -0.78409E-03   464   0.495E-01    0.336E-01
DAV:   4    -0.129197532338E+03    0.24998E-03   -0.70791E-03   428   0.466E-01    0.706E-02
DAV:   5    -0.129197639798E+03   -0.10746E-03   -0.14037E-03   464   0.185E-01    0.405E-02
DAV:   6    -0.129197671695E+03   -0.31898E-04   -0.79204E-05   368   0.466E-02
  14 F= -.12919767E+03 E0= -.12919767E+03  d E =0.236426E-01
damped:  g(F)=  0.000E+00 g(S)=  0.000E+00 dE (1.order)= 0.000E+00
 bond charge predicted
       N       E                     dE             d eps       ncg     rms          rms(c)
DAV:   1    -0.129215612921E+03   -0.17973E-01   -0.35430E+00   328   0.956E+00    0.635E-01
DAV:   2    -0.129226768600E+03   -0.11156E-01   -0.16301E-01   393   0.180E+00    0.375E-01
DAV:   3    -0.129224997223E+03    0.17714E-02   -0.45634E-03   438   0.368E-01    0.216E-01
DAV:   4    -0.129224197257E+03    0.79997E-03   -0.29108E-03   395   0.278E-01    0.508E-02
DAV:   5    -0.129224193999E+03    0.32575E-05   -0.53683E-04   464   0.108E-01    0.280E-02
DAV:   6    -0.129224218702E+03   -0.24702E-04   -0.33568E-05   368   0.300E-02
  15 F= -.12922422E+03 E0= -.12922422E+03  d E =-.265470E-01
damped:  g(F)=  0.000E+00 g(S)=  0.000E+00 dE (1.order)= 0.000E+00
 bond charge predicted
       N       E                     dE             d eps       ncg     rms          rms(c)
DAV:   1    -0.129226229663E+03   -0.20357E-02   -0.24432E-02   395   0.769E-01    0.523E-02
DAV:   2    -0.129226358129E+03   -0.12847E-03   -0.10654E-03   464   0.139E-01    0.295E-02
DAV:   3    -0.129226386078E+03   -0.27949E-04   -0.25654E-05   364   0.278E-02    0.167E-02
DAV:   4    -0.129226434916E+03   -0.48838E-04   -0.22986E-05   284   0.234E-02    0.318E-03
DAV:   5    -0.129226454962E+03   -0.20046E-04   -0.51549E-06   368   0.102E-02    0.173E-03
DAV:   6    -0.129226468325E+03   -0.13362E-04   -0.10624E-06   240   0.436E-03
  16 F= -.12922647E+03 E0= -.12922647E+03  d E =-.224962E-02
damped:  g(F)=  0.000E+00 g(S)=  0.000E+00 dE (1.order)= 0.000E+00
 bond charge predicted
       N       E                     dE             d eps       ncg     rms          rms(c)
DAV:   1    -0.129228146906E+03   -0.16919E-02   -0.72468E-02   333   0.133E+00    0.892E-02
DAV:   2    -0.129228390698E+03   -0.24379E-03   -0.32897E-03   438   0.244E-01    0.519E-02
DAV:   3    -0.129228361202E+03    0.29496E-04   -0.81818E-05   352   0.503E-02    0.298E-02
DAV:   4    -0.129228353662E+03    0.75403E-05   -0.71763E-05   272   0.436E-02    0.635E-03
DAV:   5    -0.129228356526E+03   -0.28637E-05   -0.16253E-05   368   0.195E-02    0.350E-03
DAV:   6    -0.129228358454E+03   -0.19278E-05   -0.23800E-06   282   0.785E-03
  17 F= -.12922836E+03 E0= -.12922836E+03  d E =-.189013E-02
damped:  g(F)=  0.000E+00 g(S)=  0.000E+00 dE (1.order)= 0.000E+00
 bond charge predicted
       N       E                     dE             d eps       ncg     rms          rms(c)
DAV:   1    -0.129227867228E+03    0.48930E-03   -0.86899E-02   384   0.145E+00    0.970E-02
DAV:   2    -0.129228131161E+03   -0.26393E-03   -0.38972E-03   395   0.266E-01    0.565E-02
DAV:   3    -0.129228079160E+03    0.52001E-04   -0.99487E-05   368   0.556E-02    0.320E-02
DAV:   4    -0.129228051212E+03    0.27948E-04   -0.83869E-05   282   0.475E-02    0.700E-03
DAV:   5    -0.129228050975E+03    0.23737E-06   -0.19292E-05   368   0.214E-02    0.400E-03
DAV:   6    -0.129228053436E+03   -0.24614E-05   -0.28829E-06   330   0.880E-03
  18 F= -.12922805E+03 E0= -.12922805E+03  d E =0.305017E-03
damped:  g(F)=  0.000E+00 g(S)=  0.000E+00 dE (1.order)= 0.000E+00
 bond charge predicted
       N       E                     dE             d eps       ncg     rms          rms(c)
DAV:   1    -0.129228167476E+03   -0.11650E-03   -0.26439E-04   352   0.805E-02    0.502E-03
DAV:   2    -0.129228172477E+03   -0.50012E-05   -0.13145E-05   368   0.179E-02    0.299E-03
DAV:   3    -0.129228176273E+03   -0.37955E-05   -0.12110E-06   277   0.542E-03    0.188E-03
DAV:   4    -0.129228182255E+03   -0.59820E-05   -0.38196E-07   284   0.307E-03    0.563E-04
DAV:   5    -0.129228185385E+03   -0.31304E-05   -0.96419E-08   368   0.153E-03    0.288E-04
DAV:   6    -0.129228187720E+03   -0.23351E-05   -0.19738E-08   251   0.931E-04
  19 F= -.12922819E+03 E0= -.12922819E+03  d E =-.134284E-03
damped:  g(F)=  0.000E+00 g(S)=  0.000E+00 dE (1.order)= 0.000E+00
 bond charge predicted
       N       E                     dE             d eps       ncg     rms          rms(c)
DAV:   1    -0.129228378419E+03   -0.19303E-03   -0.10156E-03   355   0.158E-01    0.106E-02
DAV:   2    -0.129228382237E+03   -0.38178E-05   -0.43233E-05   368   0.295E-02    0.609E-03
DAV:   3    -0.129228382957E+03   -0.71995E-06   -0.35631E-06   216   0.935E-03    0.326E-03
DAV:   4    -0.129228384200E+03   -0.12431E-05   -0.10088E-06   294   0.513E-03    0.104E-03
DAV:   5    -0.129228385119E+03   -0.91843E-06   -0.24345E-07   340   0.268E-03    0.451E-04
DAV:   6    -0.129228385441E+03   -0.32262E-06   -0.35531E-09   240   0.117E-03
  20 F= -.12922839E+03 E0= -.12922839E+03  d E =-.197721E-03
damped:  g(F)=  0.000E+00 g(S)=  0.000E+00 dE (1.order)= 0.000E+00
 bond charge predicted
       N       E                     dE             d eps       ncg     rms          rms(c)
DAV:   1    -0.129228598540E+03   -0.21342E-03   -0.19911E-03   354   0.222E-01    0.148E-02
DAV:   2    -0.129228603874E+03   -0.53346E-05   -0.85822E-05   315   0.413E-02    0.846E-03
DAV:   3    -0.129228603237E+03    0.63695E-06   -0.60447E-06   304   0.112E-02    0.502E-03
DAV:   4    -0.129228602522E+03    0.71572E-06   -0.25363E-06   296   0.818E-03    0.123E-03
DAV:   5    -0.129228602559E+03   -0.37470E-07   -0.55247E-07   272   0.388E-03    0.643E-04
DAV:   6    -0.129228602648E+03   -0.89304E-07   -0.65788E-08   220   0.166E-03
  21 F= -.12922860E+03 E0= -.12922860E+03  d E =-.217207E-03
damped:  g(F)=  0.000E+00 g(S)=  0.000E+00 dE (1.order)= 0.000E+00
 bond charge predicted
       N       E                     dE             d eps       ncg     rms          rms(c)
DAV:   1    -0.129228786964E+03   -0.18441E-03   -0.28951E-03   390   0.269E-01    0.177E-02
DAV:   2    -0.129228794549E+03   -0.75845E-05   -0.12947E-04   336   0.498E-02    0.104E-02
DAV:   3    -0.129228792764E+03    0.17852E-05   -0.46194E-06   272   0.119E-02    0.622E-03
DAV:   4    -0.129228791379E+03    0.13849E-05   -0.40623E-06   287   0.103E-02    0.159E-03
DAV:   5    -0.129228791468E+03   -0.88918E-07   -0.86354E-07   272   0.495E-03    0.828E-04
DAV:   6    -0.129228791664E+03   -0.19658E-06   -0.11722E-07   220   0.199E-03
  22 F= -.12922879E+03 E0= -.12922879E+03  d E =-.189016E-03
damped:  g(F)=  0.000E+00 g(S)=  0.000E+00 dE (1.order)= 0.000E+00
 bond charge predicted
       N       E                     dE             d eps       ncg     rms          rms(c)
DAV:   1    -0.129228911171E+03   -0.11970E-03   -0.33879E-03   388   0.293E-01    0.186E-02
DAV:   2    -0.129228919715E+03   -0.85434E-05   -0.14500E-04   300   0.538E-02    0.111E-02
DAV:   3    -0.129228918170E+03    0.15445E-05   -0.79402E-06   232   0.137E-02    0.669E-03
DAV:   4    -0.129228917038E+03    0.11320E-05   -0.53840E-06   218   0.117E-02    0.162E-03
DAV:   5    -0.129228917272E+03   -0.23397E-06   -0.12914E-06   197   0.567E-03    0.884E-04
DAV:   6    -0.129228917613E+03   -0.34082E-06   -0.31071E-07   232   0.253E-03
  23 F= -.12922892E+03 E0= -.12922892E+03  d E =-.125949E-03
damped:  g(F)=  0.000E+00 g(S)=  0.000E+00 dE (1.order)= 0.000E+00
 bond charge predicted
       N       E                     dE             d eps       ncg     rms          rms(c)
DAV:   1    -0.129228973177E+03   -0.55905E-04   -0.31408E-03   357   0.284E-01    0.170E-02
DAV:   2    -0.129228981109E+03   -0.79326E-05   -0.13031E-04   275   0.512E-02    0.104E-02
DAV:   3    -0.129228979912E+03    0.11972E-05   -0.71179E-06   164   0.130E-02    0.639E-03
DAV:   4    -0.129228979155E+03    0.75733E-06   -0.48458E-06   207   0.112E-02    0.158E-03
DAV:   5    -0.129228979445E+03   -0.29011E-06   -0.11743E-06   167   0.538E-03    0.855E-04
DAV:   6    -0.129228979841E+03   -0.39641E-06   -0.29470E-07   199   0.244E-03
  24 F= -.12922898E+03 E0= -.12922898E+03  d E =-.622283E-04
damped:  g(F)=  0.000E+00 g(S)=  0.000E+00 dE (1.order)= 0.000E+00
 bond charge predicted
       N       E                     dE             d eps       ncg     rms          rms(c)
DAV:   1    -0.129229012329E+03   -0.32884E-04   -0.28631E-03   382   0.275E-01    0.144E-02
DAV:   2    -0.129229019004E+03   -0.66755E-05   -0.10485E-04   251   0.467E-02    0.908E-03
DAV:   3    -0.129229018458E+03    0.54600E-06   -0.74295E-06   164   0.128E-02    0.572E-03
DAV:   4    -0.129229018216E+03    0.24207E-06   -0.40416E-06   164   0.102E-02    0.152E-03
DAV:   5    -0.129229018483E+03   -0.26695E-06   -0.98642E-07   164   0.479E-03    0.850E-04
DAV:   6    -0.129229018908E+03   -0.42460E-06   -0.29952E-07   200   0.246E-03
  25 F= -.12922902E+03 E0= -.12922902E+03  d E =-.390665E-04
damped:  g(F)=  0.000E+00 g(S)=  0.000E+00 dE (1.order)= 0.000E+00
 bond charge predicted
       N       E                     dE             d eps       ncg     rms          rms(c)
DAV:   1    -0.129229086786E+03   -0.68303E-04   -0.25050E-03   365   0.258E-01    0.108E-02
DAV:   2    -0.129229092025E+03   -0.52384E-05   -0.72881E-05   233   0.387E-02    0.720E-03
DAV:   3    -0.129229092006E+03    0.18854E-07   -0.46513E-06   164   0.102E-02    0.466E-03
DAV:   4    -0.129229092412E+03   -0.40586E-06   -0.23197E-06   192   0.796E-03    0.121E-03
DAV:   5    -0.129229092661E+03   -0.24890E-06   -0.59898E-07   164   0.372E-03    0.716E-04
DAV:   6    -0.129229093026E+03   -0.36541E-06   -0.18473E-07   203   0.197E-03
  26 F= -.12922909E+03 E0= -.12922909E+03  d E =-.741186E-04
damped:  g(F)=  0.000E+00 g(S)=  0.000E+00 dE (1.order)= 0.000E+00
 bond charge predicted
       N       E                     dE             d eps       ncg     rms          rms(c)
DAV:   1    -0.129229254046E+03   -0.16139E-03   -0.28912E-03   373   0.273E-01    0.999E-03
DAV:   2    -0.129229259483E+03   -0.54370E-05   -0.65511E-05   235   0.361E-02    0.623E-03
DAV:   3    -0.129229259879E+03   -0.39572E-06   -0.36177E-06   228   0.905E-03    0.383E-03
DAV:   4    -0.129229260799E+03   -0.92001E-06   -0.12834E-06   237   0.607E-03    0.785E-04
DAV:   5    -0.129229261099E+03   -0.30020E-06   -0.39553E-07   230   0.290E-03    0.512E-04
DAV:   6    -0.129229261387E+03   -0.28741E-06   -0.99309E-08   228   0.140E-03
  27 F= -.12922926E+03 E0= -.12922926E+03  d E =-.168360E-03
damped:  g(F)=  0.000E+00 g(S)=  0.000E+00 dE (1.order)= 0.000E+00
 bond charge predicted
       N       E                     dE             d eps       ncg     rms          rms(c)
DAV:   1    -0.129229530117E+03   -0.26902E-03   -0.49244E-03   350   0.354E-01    0.137E-02
DAV:   2    -0.129229540801E+03   -0.10684E-04   -0.13092E-04   332   0.496E-02    0.900E-03
DAV:   3    -0.129229540676E+03    0.12520E-06   -0.44306E-06   272   0.108E-02    0.566E-03
DAV:   4    -0.129229541334E+03   -0.65761E-06   -0.26815E-06   266   0.861E-03    0.119E-03
DAV:   5    -0.129229541475E+03   -0.14116E-06   -0.59087E-07   272   0.400E-03    0.662E-04
DAV:   6    -0.129229541577E+03   -0.10198E-06   -0.78271E-08   240   0.158E-03
  28 F= -.12922954E+03 E0= -.12922954E+03  d E =-.280190E-03
damped:  g(F)=  0.000E+00 g(S)=  0.000E+00 dE (1.order)= 0.000E+00
 bond charge predicted
       N       E                     dE             d eps       ncg     rms          rms(c)
DAV:   1    -0.129229857937E+03   -0.31646E-03   -0.91174E-03   343   0.482E-01    0.212E-02
DAV:   2    -0.129229879607E+03   -0.21669E-04   -0.28486E-04   356   0.724E-02    0.139E-02
DAV:   3    -0.129229877670E+03    0.19373E-05   -0.66371E-06   272   0.144E-02    0.858E-03
DAV:   4    -0.129229877373E+03    0.29656E-06   -0.63556E-06   296   0.131E-02    0.188E-03
DAV:   5    -0.129229877416E+03   -0.42563E-07   -0.14065E-06   272   0.625E-03    0.101E-03
DAV:   6    -0.129229877520E+03   -0.10480E-06   -0.18101E-07   204   0.237E-03
  29 F= -.12922988E+03 E0= -.12922988E+03  d E =-.335944E-03
damped:  g(F)=  0.000E+00 g(S)=  0.000E+00 dE (1.order)= 0.000E+00
 bond charge predicted
       N       E                     dE             d eps       ncg     rms          rms(c)
DAV:   1    -0.129230138321E+03   -0.26091E-03   -0.14488E-02   334   0.607E-01    0.271E-02
DAV:   2    -0.129230173596E+03   -0.35276E-04   -0.46264E-04   349   0.922E-02    0.179E-02
DAV:   3    -0.129230170190E+03    0.34068E-05   -0.85342E-06   272   0.167E-02    0.112E-02
DAV:   4    -0.129230169651E+03    0.53849E-06   -0.11702E-05   266   0.177E-02    0.259E-03
DAV:   5    -0.129230169760E+03   -0.10893E-06   -0.25477E-06   272   0.844E-03    0.139E-03
DAV:   6    -0.129230169961E+03   -0.20124E-06   -0.32202E-07   202   0.305E-03
  30 F= -.12923017E+03 E0= -.12923017E+03  d E =-.292441E-03
damped:  g(F)=  0.000E+00 g(S)=  0.000E+00 dE (1.order)= 0.000E+00
 bond charge predicted
       N       E                     dE             d eps       ncg     rms          rms(c)
DAV:   1    -0.129230385553E+03   -0.21579E-03   -0.17885E-02   333   0.676E-01    0.264E-02
DAV:   2    -0.129230425078E+03   -0.39525E-04   -0.49583E-04   308   0.961E-02    0.180E-02
DAV:   3    -0.129230422987E+03    0.20912E-05   -0.11623E-05   234   0.189E-02    0.115E-02
DAV:   4    -0.129230424266E+03   -0.12786E-05   -0.98342E-06   219   0.177E-02    0.217E-03
DAV:   5    -0.129230424661E+03   -0.39552E-06   -0.26037E-06   240   0.814E-03    0.134E-03
DAV:   6    -0.129230425073E+03   -0.41179E-06   -0.45447E-07   234   0.318E-03
  31 F= -.12923043E+03 E0= -.12923043E+03  d E =-.255112E-03
damped:  g(F)=  0.000E+00 g(S)=  0.000E+00 dE (1.order)= 0.000E+00
 bond charge predicted
       N       E                     dE             d eps       ncg     rms          rms(c)
DAV:   1    -0.129230757996E+03   -0.33333E-03   -0.21977E-02   333   0.749E-01    0.271E-02
DAV:   2    -0.129230802280E+03   -0.44284E-04   -0.53026E-04   393   0.991E-02    0.180E-02
DAV:   3    -0.129230801214E+03    0.10662E-05   -0.97069E-06   256   0.177E-02    0.110E-02
DAV:   4    -0.129230805209E+03   -0.39951E-05   -0.82298E-06   241   0.161E-02    0.221E-03
DAV:   5    -0.129230805772E+03   -0.56319E-06   -0.20293E-06   264   0.766E-03    0.121E-03
DAV:   6    -0.129230806058E+03   -0.28641E-06   -0.26136E-07   194   0.264E-03
  32 F= -.12923081E+03 E0= -.12923081E+03  d E =-.380986E-03
damped:  g(F)=  0.000E+00 g(S)=  0.000E+00 dE (1.order)= 0.000E+00
 bond charge predicted
       N       E                     dE             d eps       ncg     rms          rms(c)
DAV:   1    -0.129231283487E+03   -0.47772E-03   -0.34374E-02   333   0.944E-01    0.352E-02
DAV:   2    -0.129231358747E+03   -0.75260E-04   -0.92525E-04   426   0.131E-01    0.251E-02
DAV:   3    -0.129231353773E+03    0.49740E-05   -0.11351E-05   272   0.202E-02    0.162E-02
DAV:   4    -0.129231357817E+03   -0.40434E-05   -0.19302E-05   313   0.238E-02    0.386E-03
DAV:   5    -0.129231358054E+03   -0.23701E-06   -0.44781E-06   272   0.112E-02    0.192E-03
DAV:   6    -0.129231358354E+03   -0.29993E-06   -0.61903E-07   256   0.396E-03
  33 F= -.12923136E+03 E0= -.12923136E+03  d E =-.552295E-03
damped:  g(F)=  0.000E+00 g(S)=  0.000E+00 dE (1.order)= 0.000E+00
 bond charge predicted
       N       E                     dE             d eps       ncg     rms          rms(c)
DAV:   1    -0.129231762778E+03   -0.40472E-03   -0.56658E-02   333   0.122E+00    0.466E-02
DAV:   2    -0.129231890942E+03   -0.12816E-03   -0.16029E-03   398   0.173E-01    0.334E-02
DAV:   3    -0.129231880557E+03    0.10385E-04   -0.21521E-05   272   0.275E-02    0.216E-02
DAV:   4    -0.129231884838E+03   -0.42810E-05   -0.35975E-05   299   0.321E-02    0.507E-03
DAV:   5    -0.129231885447E+03   -0.60912E-06   -0.81930E-06   272   0.151E-02    0.255E-03
DAV:   6    -0.129231886166E+03   -0.71930E-06   -0.10891E-06   254   0.521E-03
  34 F= -.12923189E+03 E0= -.12923189E+03  d E =-.527812E-03
damped:  g(F)=  0.000E+00 g(S)=  0.000E+00 dE (1.order)= 0.000E+00
 bond charge predicted
       N       E                     dE             d eps       ncg     rms          rms(c)
DAV:   1    -0.129232272907E+03   -0.38746E-03   -0.81797E-02   332   0.145E+00    0.522E-02
DAV:   2    -0.129232446980E+03   -0.17407E-03   -0.20788E-03   370   0.197E-01    0.361E-02
DAV:   3    -0.129232437727E+03    0.92528E-05   -0.22467E-05   261   0.286E-02    0.228E-02
DAV:   4    -0.129232449547E+03   -0.11820E-04   -0.36299E-05   299   0.334E-02    0.472E-03
DAV:   5    -0.129232451000E+03   -0.14524E-05   -0.83104E-06   264   0.152E-02    0.268E-03
DAV:   6    -0.129232451979E+03   -0.97925E-06   -0.10081E-06   204   0.495E-03
  35 F= -.12923245E+03 E0= -.12923245E+03  d E =-.565813E-03
damped:  g(F)=  0.000E+00 g(S)=  0.000E+00 dE (1.order)= 0.000E+00
 bond charge predicted
       N       E                     dE             d eps       ncg     rms          rms(c)
DAV:   1    -0.129233010569E+03   -0.55957E-03   -0.12946E-01   329   0.183E+00    0.649E-02
DAV:   2    -0.129233289036E+03   -0.27847E-03   -0.32733E-03   395   0.247E-01    0.446E-02
DAV:   3    -0.129233275562E+03    0.13475E-04   -0.37343E-05   327   0.357E-02    0.276E-02
DAV:   4    -0.129233293292E+03   -0.17730E-04   -0.43295E-05   307   0.389E-02    0.438E-03
DAV:   5    -0.129233295379E+03   -0.20868E-05   -0.10460E-05   272   0.165E-02    0.299E-03
DAV:   6    -0.129233296248E+03   -0.86936E-06   -0.11140E-06   280   0.512E-03
  36 F= -.12923330E+03 E0= -.12923330E+03  d E =-.844269E-03
damped:  g(F)=  0.000E+00 g(S)=  0.000E+00 dE (1.order)= 0.000E+00
 bond charge predicted
       N       E                     dE             d eps       ncg     rms          rms(c)
DAV:   1    -0.129233674729E+03   -0.37935E-03   -0.21447E-01   333   0.236E+00    0.838E-02
DAV:   2    -0.129234145429E+03   -0.47070E-03   -0.55636E-03   396   0.324E-01    0.587E-02
DAV:   3    -0.129234118389E+03    0.27039E-04   -0.64197E-05   336   0.470E-02    0.369E-02
DAV:   4    -0.129234142830E+03   -0.24440E-04   -0.77056E-05   328   0.520E-02    0.587E-03
DAV:   5    -0.129234145867E+03   -0.30378E-05   -0.18934E-05   288   0.220E-02    0.407E-03
DAV:   6    -0.129234146977E+03   -0.11091E-05   -0.19269E-06   256   0.685E-03
  37 F= -.12923415E+03 E0= -.12923415E+03  d E =-.850728E-03
damped:  g(F)=  0.000E+00 g(S)=  0.000E+00 dE (1.order)= 0.000E+00
 bond charge predicted
       N       E                     dE             d eps       ncg     rms          rms(c)
DAV:   1    -0.129234579973E+03   -0.43411E-03   -0.32003E-01   330   0.287E+00    0.999E-02
DAV:   2    -0.129235262345E+03   -0.68237E-03   -0.79381E-03   395   0.385E-01    0.689E-02
DAV:   3    -0.129235228964E+03    0.33381E-04   -0.82895E-05   368   0.532E-02    0.427E-02
DAV:   4    -0.129235270500E+03   -0.41536E-04   -0.10285E-04   314   0.608E-02    0.672E-03
DAV:   5    -0.129235274713E+03   -0.42131E-05   -0.25059E-05   272   0.256E-02    0.433E-03
DAV:   6    -0.129235276299E+03   -0.15859E-05   -0.23748E-06   220   0.751E-03
  38 F= -.12923528E+03 E0= -.12923528E+03  d E =-.112932E-02
damped:  g(F)=  0.000E+00 g(S)=  0.000E+00 dE (1.order)= 0.000E+00
 bond charge predicted
       N       E                     dE             d eps       ncg     rms          rms(c)
DAV:   1    -0.129235426748E+03   -0.15203E-03   -0.51430E-01   328   0.364E+00    0.128E-01
DAV:   2    -0.129236558853E+03   -0.11321E-02   -0.13265E-02   396   0.498E-01    0.900E-02
DAV:   3    -0.129236493700E+03    0.65153E-04   -0.14990E-04   400   0.696E-02    0.574E-02
DAV:   4    -0.129236546751E+03   -0.53050E-04   -0.17187E-04   296   0.787E-02    0.908E-03
DAV:   5    -0.129236554648E+03   -0.78970E-05   -0.45397E-05   304   0.341E-02    0.641E-03
DAV:   6    -0.129236557455E+03   -0.28071E-05   -0.38991E-06   256   0.975E-03
  39 F= -.12923656E+03 E0= -.12923656E+03  d E =-.128116E-02
damped:  g(F)=  0.000E+00 g(S)=  0.000E+00 dE (1.order)= 0.000E+00
 bond charge predicted
       N       E                     dE             d eps       ncg     rms          rms(c)
DAV:   1    -0.129236607613E+03   -0.52965E-04   -0.76655E-01   328   0.441E+00    0.151E-01
DAV:   2    -0.129238257569E+03   -0.16500E-02   -0.19137E-02   395   0.596E-01    0.105E-01
DAV:   3    -0.129238175384E+03    0.82185E-04   -0.21168E-04   429   0.807E-02    0.650E-02
DAV:   4    -0.129238268401E+03   -0.93017E-04   -0.19999E-04   276   0.875E-02    0.920E-03
DAV:   5    -0.129238280287E+03   -0.11886E-04   -0.56531E-05   304   0.373E-02    0.741E-03
DAV:   6    -0.129238284176E+03   -0.38887E-05   -0.44320E-06   312   0.104E-02
  40 F= -.12923828E+03 E0= -.12923828E+03  d E =-.172672E-02
damped:  g(F)=  0.000E+00 g(S)=  0.000E+00 dE (1.order)= 0.000E+00
 bond charge predicted
       N       E                     dE             d eps       ncg     rms          rms(c)
DAV:   1    -0.129237628759E+03    0.65153E-03   -0.11754E+00   330   0.543E+00    0.186E-01
DAV:   2    -0.129240171479E+03   -0.25427E-02   -0.29488E-02   404   0.736E-01    0.130E-01
DAV:   3    -0.129240037157E+03    0.13432E-03   -0.32248E-04   430   0.987E-02    0.810E-02
DAV:   4    -0.129240181919E+03   -0.14476E-03   -0.33006E-04   421   0.108E-01    0.119E-02
DAV:   5    -0.129240197677E+03   -0.15757E-04   -0.75448E-05   336   0.413E-02    0.935E-03
DAV:   6    -0.129240202128E+03   -0.44507E-05   -0.35052E-06   268   0.933E-03
  41 F= -.12924020E+03 E0= -.12924020E+03  d E =-.191795E-02
damped:  g(F)=  0.000E+00 g(S)=  0.000E+00 dE (1.order)= 0.000E+00
 bond charge predicted
       N       E                     dE             d eps       ncg     rms          rms(c)
DAV:   1    -0.129238761454E+03    0.14362E-02   -0.16206E+00   329   0.632E+00    0.222E-01
DAV:   2    -0.129242387412E+03   -0.36260E-02   -0.42404E-02   396   0.871E-01    0.157E-01
DAV:   3    -0.129242171198E+03    0.21621E-03   -0.48038E-04   432   0.119E-01    0.101E-01
DAV:   4    -0.129242357032E+03   -0.18583E-03   -0.47414E-04   360   0.129E-01    0.164E-02
DAV:   5    -0.129242384036E+03   -0.27005E-04   -0.12659E-04   432   0.512E-02    0.123E-02
DAV:   6    -0.129242391121E+03   -0.70846E-05   -0.42933E-06   304   0.107E-02
  42 F= -.12924239E+03 E0= -.12924239E+03  d E =-.218899E-02
damped:  g(F)=  0.000E+00 g(S)=  0.000E+00 dE (1.order)= 0.000E+00
 bond charge predicted
       N       E                     dE             d eps       ncg     rms          rms(c)
DAV:   1    -0.129240012475E+03    0.23716E-02   -0.21702E+00   328   0.719E+00    0.253E-01
DAV:   2    -0.129244943515E+03   -0.49310E-02   -0.57931E-02   354   0.100E+00    0.183E-01
DAV:   3    -0.129244654982E+03    0.28853E-03   -0.95867E-04   464   0.147E-01    0.120E-01
DAV:   4    -0.129244925590E+03   -0.27061E-03   -0.72244E-04   397   0.155E-01    0.196E-02
DAV:   5    -0.129244957122E+03   -0.31532E-04   -0.19083E-04   432   0.627E-02    0.149E-02
DAV:   6    -0.129244964770E+03   -0.76476E-05   -0.72239E-06   272   0.140E-02
  43 F= -.12924496E+03 E0= -.12924496E+03  d E =-.257365E-02
damped:  g(F)=  0.000E+00 g(S)=  0.000E+00 dE (1.order)= 0.000E+00
 bond charge predicted
       N       E                     dE             d eps       ncg     rms          rms(c)
DAV:   1    -0.129245512314E+03   -0.55519E-03   -0.22288E-02   364   0.737E-01    0.490E-02
DAV:   2    -0.129245587067E+03   -0.74753E-04   -0.99267E-04   426   0.135E-01    0.288E-02
DAV:   3    -0.129245581957E+03    0.51105E-05   -0.24357E-05   368   0.273E-02    0.167E-02
DAV:   4    -0.129245587225E+03   -0.52683E-05   -0.21786E-05   297   0.238E-02    0.343E-03
DAV:   5    -0.129245592257E+03   -0.50318E-05   -0.48389E-06   368   0.105E-02    0.189E-03
DAV:   6    -0.129245595877E+03   -0.36197E-05   -0.71813E-07   288   0.414E-03
  44 F= -.12924560E+03 E0= -.12924560E+03  d E =-.631107E-03
damped:  g(F)=  0.000E+00 g(S)=  0.000E+00 dE (1.order)= 0.000E+00
 bond charge predicted
       N       E                     dE             d eps       ncg     rms          rms(c)
DAV:   1    -0.129245494123E+03    0.98134E-04   -0.36678E-02   331   0.955E-01    0.581E-02
DAV:   2    -0.129245601140E+03   -0.10702E-03   -0.15847E-03   428   0.172E-01    0.360E-02
DAV:   3    -0.129245582358E+03    0.18781E-04   -0.37192E-05   368   0.337E-02    0.214E-02
DAV:   4    -0.129245573566E+03    0.87920E-05   -0.36189E-05   274   0.310E-02    0.452E-03
DAV:   5    -0.129245575106E+03   -0.15395E-05   -0.78668E-06   368   0.139E-02    0.254E-03
DAV:   6    -0.129245577105E+03   -0.19994E-05   -0.11080E-06   267   0.538E-03
  45 F= -.12924558E+03 E0= -.12924558E+03  d E =0.187718E-04
damped:  g(F)=  0.000E+00 g(S)=  0.000E+00 dE (1.order)= 0.000E+00
 bond charge predicted
       N       E                     dE             d eps       ncg     rms          rms(c)
DAV:   1    -0.129245685957E+03   -0.11085E-03   -0.10111E-03   365   0.165E-01    0.858E-03
DAV:   2    -0.129245691140E+03   -0.51826E-05   -0.34377E-05   368   0.269E-02    0.505E-03
DAV:   3    -0.129245693154E+03   -0.20137E-05   -0.24717E-06   202   0.804E-03    0.276E-03
DAV:   4    -0.129245695883E+03   -0.27288E-05   -0.74789E-07   307   0.441E-03    0.805E-04
DAV:   5    -0.129245697528E+03   -0.16450E-05   -0.17828E-07   254   0.217E-03    0.321E-04
DAV:   6    -0.129245698272E+03   -0.74429E-06   -0.28126E-08   218   0.102E-03
  46 F= -.12924570E+03 E0= -.12924570E+03  d E =-.121167E-03
damped:  g(F)=  0.000E+00 g(S)=  0.000E+00 dE (1.order)= 0.000E+00
 bond charge predicted
       N       E                     dE             d eps       ncg     rms          rms(c)
DAV:   1    -0.129245850421E+03   -0.15289E-03   -0.36177E-03   358   0.313E-01    0.157E-02
DAV:   2    -0.129245860793E+03   -0.10372E-04   -0.12692E-04   361   0.509E-02    0.949E-03
DAV:   3    -0.129245860461E+03    0.33187E-06   -0.50707E-06   271   0.119E-02    0.567E-03
DAV:   4    -0.129245860979E+03   -0.51800E-06   -0.33099E-06   296   0.956E-03    0.138E-03
DAV:   5    -0.129245861268E+03   -0.28892E-06   -0.75254E-07   272   0.464E-03    0.722E-04
DAV:   6    -0.129245861461E+03   -0.19307E-06   -0.98789E-08   240   0.190E-03
  47 F= -.12924586E+03 E0= -.12924586E+03  d E =-.163189E-03
damped:  g(F)=  0.000E+00 g(S)=  0.000E+00 dE (1.order)= 0.000E+00
 bond charge predicted
       N       E                     dE             d eps       ncg     rms          rms(c)
DAV:   1    -0.129245986111E+03   -0.12484E-03   -0.67182E-03   391   0.427E-01    0.202E-02
DAV:   2    -0.129246003072E+03   -0.16961E-04   -0.22823E-04   380   0.677E-02    0.127E-02
DAV:   3    -0.129246000893E+03    0.21791E-05   -0.54860E-06   272   0.137E-02    0.762E-03
DAV:   4    -0.129246000138E+03    0.75505E-06   -0.53983E-06   264   0.125E-02    0.174E-03
DAV:   5    -0.129246000188E+03   -0.49953E-07   -0.12327E-06   272   0.605E-03    0.942E-04
DAV:   6    -0.129246000321E+03   -0.13357E-06   -0.15857E-07   238   0.234E-03
  48 F= -.12924600E+03 E0= -.12924600E+03  d E =-.138861E-03
damped:  g(F)=  0.000E+00 g(S)=  0.000E+00 dE (1.order)= 0.000E+00
 bond charge predicted
       N       E                     dE             d eps       ncg     rms          rms(c)
DAV:   1    -0.129246071133E+03   -0.70945E-04   -0.93418E-03   334   0.502E-01    0.212E-02
DAV:   2    -0.129246091960E+03   -0.20827E-04   -0.27469E-04   309   0.759E-02    0.137E-02
DAV:   3    -0.129246090552E+03    0.14080E-05   -0.12281E-05   248   0.171E-02    0.839E-03
DAV:   4    -0.129246090596E+03   -0.43777E-07   -0.76329E-06   226   0.149E-02    0.174E-03
DAV:   5    -0.129246090818E+03   -0.22271E-06   -0.21503E-06   203   0.717E-03    0.108E-03
DAV:   6    -0.129246091061E+03   -0.24267E-06   -0.52820E-07   248   0.308E-03
  49 F= -.12924609E+03 E0= -.12924609E+03  d E =-.907397E-04
damped:  g(F)=  0.000E+00 g(S)=  0.000E+00 dE (1.order)= 0.000E+00
 bond charge predicted
       N       E                     dE             d eps       ncg     rms          rms(c)
DAV:   1    -0.129246152478E+03   -0.61660E-04   -0.11303E-02   336   0.545E-01    0.199E-02
DAV:   2    -0.129246176417E+03   -0.23939E-04   -0.29653E-04   284   0.772E-02    0.134E-02
DAV:   3    -0.129246175398E+03    0.10195E-05   -0.98413E-06   198   0.165E-02    0.839E-03
DAV:   4    -0.129246176458E+03   -0.10607E-05   -0.59976E-06   237   0.145E-02    0.154E-03
DAV:   5    -0.129246176778E+03   -0.31980E-06   -0.17064E-06   200   0.650E-03    0.110E-03
DAV:   6    -0.129246177100E+03   -0.32202E-06   -0.31833E-07   225   0.259E-03
  50 F= -.12924618E+03 E0= -.12924618E+03  d E =-.860392E-04
damped:  g(F)=  0.000E+00 g(S)=  0.000E+00 dE (1.order)= 0.000E+00
 bond charge predicted
       N       E                     dE             d eps       ncg     rms          rms(c)
DAV:   1    -0.129246294469E+03   -0.11769E-03   -0.13511E-02   333   0.589E-01    0.205E-02
DAV:   2    -0.129246321916E+03   -0.27447E-04   -0.32820E-04   348   0.793E-02    0.140E-02
DAV:   3    -0.129246320728E+03    0.11881E-05   -0.61794E-06   216   0.138E-02    0.872E-03
DAV:   4    -0.129246323152E+03   -0.24238E-05   -0.54384E-06   226   0.140E-02    0.141E-03
DAV:   5    -0.129246323516E+03   -0.36406E-06   -0.16644E-06   230   0.623E-03    0.112E-03
DAV:   6    -0.129246323821E+03   -0.30516E-06   -0.26281E-07   201   0.217E-03
  51 F= -.12924632E+03 E0= -.12924632E+03  d E =-.146721E-03
damped:  g(F)=  0.000E+00 g(S)=  0.000E+00 dE (1.order)= 0.000E+00
 bond charge predicted
       N       E                     dE             d eps       ncg     rms          rms(c)
DAV:   1    -0.129246531193E+03   -0.20768E-03   -0.20769E-02   332   0.733E-01    0.256E-02
DAV:   2    -0.129246574451E+03   -0.43257E-04   -0.52263E-04   396   0.997E-02    0.178E-02
DAV:   3    -0.129246571897E+03    0.25539E-05   -0.82067E-06   272   0.167E-02    0.113E-02
DAV:   4    -0.129246575251E+03   -0.33547E-05   -0.92934E-06   264   0.170E-02    0.223E-03
DAV:   5    -0.129246575611E+03   -0.35906E-06   -0.20715E-06   272   0.769E-03    0.128E-03
DAV:   6    -0.129246575793E+03   -0.18273E-06   -0.21810E-07   222   0.250E-03
  52 F= -.12924658E+03 E0= -.12924658E+03  d E =-.251972E-03
damped:  g(F)=  0.000E+00 g(S)=  0.000E+00 dE (1.order)= 0.000E+00
 bond charge predicted
       N       E                     dE             d eps       ncg     rms          rms(c)
DAV:   1    -0.129246820009E+03   -0.24440E-03   -0.32748E-02   333   0.927E-01    0.334E-02
DAV:   2    -0.129246891007E+03   -0.70998E-04   -0.87700E-04   428   0.130E-01    0.238E-02
DAV:   3    -0.129246884871E+03    0.61357E-05   -0.97780E-06   272   0.193E-02    0.153E-02
DAV:   4    -0.129246888537E+03   -0.36660E-05   -0.17611E-05   264   0.232E-02    0.323E-03
DAV:   5    -0.129246888917E+03   -0.38028E-06   -0.39968E-06   272   0.106E-02    0.177E-03
DAV:   6    -0.129246889213E+03   -0.29592E-06   -0.45083E-07   270   0.346E-03
  53 F= -.12924689E+03 E0= -.12924689E+03  d E =-.313420E-03
damped:  g(F)=  0.000E+00 g(S)=  0.000E+00 dE (1.order)= 0.000E+00
 bond charge predicted
       N       E                     dE             d eps       ncg     rms          rms(c)
DAV:   1    -0.129247095964E+03   -0.20705E-03   -0.49051E-02   333   0.113E+00    0.403E-02
DAV:   2    -0.129247202652E+03   -0.10669E-03   -0.13068E-03   388   0.158E-01    0.288E-02
DAV:   3    -0.129247193698E+03    0.89541E-05   -0.14982E-05   256   0.236E-02    0.186E-02
DAV:   4    -0.129247199925E+03   -0.62274E-05   -0.26248E-05   272   0.283E-02    0.386E-03
DAV:   5    -0.129247200631E+03   -0.70589E-06   -0.59149E-06   272   0.128E-02    0.217E-03
DAV:   6    -0.129247201151E+03   -0.51950E-06   -0.66755E-07   220   0.409E-03
  54 F= -.12924720E+03 E0= -.12924720E+03  d E =-.311937E-03
damped:  g(F)=  0.000E+00 g(S)=  0.000E+00 dE (1.order)= 0.000E+00
 bond charge predicted
       N       E                     dE             d eps       ncg     rms          rms(c)
DAV:   1    -0.129247451204E+03   -0.25057E-03   -0.67070E-02   331   0.131E+00    0.447E-02
DAV:   2    -0.129247591890E+03   -0.14069E-03   -0.16797E-03   370   0.177E-01    0.315E-02
DAV:   3    -0.129247582326E+03    0.95640E-05   -0.16151E-05   262   0.246E-02    0.201E-02
DAV:   4    -0.129247593416E+03   -0.11090E-04   -0.25591E-05   209   0.299E-02    0.328E-03
DAV:   5    -0.129247594811E+03   -0.13951E-05   -0.74162E-06   272   0.135E-02    0.221E-03
DAV:   6    -0.129247595532E+03   -0.72082E-06   -0.92117E-07   200   0.421E-03
  55 F= -.12924760E+03 E0= -.12924760E+03  d E =-.394381E-03
damped:  g(F)=  0.000E+00 g(S)=  0.000E+00 dE (1.order)= 0.000E+00
 bond charge predicted
       N       E                     dE             d eps       ncg     rms          rms(c)
DAV:   1    -0.129247977858E+03   -0.38305E-03   -0.91666E-02   333   0.152E+00    0.518E-02
DAV:   2    -0.129248172063E+03   -0.19421E-03   -0.23026E-03   396   0.206E-01    0.363E-02
DAV:   3    -0.129248158673E+03    0.13390E-04   -0.21079E-05   272   0.277E-02    0.230E-02
DAV:   4    -0.129248174852E+03   -0.16179E-04   -0.37210E-05   297   0.343E-02    0.361E-03
DAV:   5    -0.129248176346E+03   -0.14941E-05   -0.76603E-06   272   0.139E-02    0.255E-03
DAV:   6    -0.129248177053E+03   -0.70673E-06   -0.65573E-07   240   0.414E-03
  56 F= -.12924818E+03 E0= -.12924818E+03  d E =-.581521E-03
damped:  g(F)=  0.000E+00 g(S)=  0.000E+00 dE (1.order)= 0.000E+00
 bond charge predicted
       N       E                     dE             d eps       ncg     rms          rms(c)
DAV:   1    -0.129248541445E+03   -0.36510E-03   -0.12564E-01   334   0.175E+00    0.610E-02
DAV:   2    -0.129248815800E+03   -0.27435E-03   -0.32710E-03   396   0.241E-01    0.435E-02
DAV:   3    -0.129248793310E+03    0.22490E-04   -0.30545E-05   272   0.325E-02    0.281E-02
DAV:   4    -0.129248814484E+03   -0.21174E-04   -0.56656E-05   330   0.414E-02    0.466E-03
DAV:   5    -0.129248816313E+03   -0.18290E-05   -0.12116E-05   272   0.173E-02    0.321E-03
DAV:   6    -0.129248817147E+03   -0.83354E-06   -0.12390E-06   304   0.534E-03
  57 F= -.12924882E+03 E0= -.12924882E+03  d E =-.640094E-03
damped:  g(F)=  0.000E+00 g(S)=  0.000E+00 dE (1.order)= 0.000E+00
 bond charge predicted
       N       E                     dE             d eps       ncg     rms          rms(c)
DAV:   1    -0.129249237868E+03   -0.42156E-03   -0.15057E-01   330   0.186E+00    0.646E-02
DAV:   2    -0.129249555212E+03   -0.31734E-03   -0.37581E-03   394   0.250E-01    0.453E-02
DAV:   3    -0.129249530310E+03    0.24902E-04   -0.35057E-05   303   0.331E-02    0.285E-02
DAV:   4    -0.129249563131E+03   -0.32821E-04   -0.49652E-05   265   0.402E-02    0.414E-03
DAV:   5    -0.129249566012E+03   -0.28809E-05   -0.12074E-05   272   0.168E-02    0.287E-03
DAV:   6    -0.129249567081E+03   -0.10685E-05   -0.10284E-06   200   0.485E-03
  58 F= -.12924957E+03 E0= -.12924957E+03  d E =-.749934E-03
damped:  g(F)=  0.000E+00 g(S)=  0.000E+00 dE (1.order)= 0.000E+00
 bond charge predicted
       N       E                     dE             d eps       ncg     rms          rms(c)
DAV:   1    -0.129250074219E+03   -0.50821E-03   -0.18710E-01   332   0.199E+00    0.724E-02
DAV:   2    -0.129250477453E+03   -0.40323E-03   -0.48353E-03   396   0.272E-01    0.519E-02
DAV:   3    -0.129250446205E+03    0.31248E-04   -0.49891E-05   368   0.384E-02    0.336E-02
DAV:   4    -0.129250486819E+03   -0.40614E-04   -0.63023E-05   297   0.446E-02    0.529E-03
DAV:   5    -0.129250491123E+03   -0.43040E-05   -0.16469E-05   272   0.189E-02    0.361E-03
DAV:   6    -0.129250492697E+03   -0.15744E-05   -0.16647E-06   286   0.580E-03
  59 F= -.12925049E+03 E0= -.12925049E+03  d E =-.925617E-03
damped:  g(F)=  0.000E+00 g(S)=  0.000E+00 dE (1.order)= 0.000E+00
 bond charge predicted
       N       E                     dE             d eps       ncg     rms          rms(c)
DAV:   1    -0.129250873353E+03   -0.38223E-03   -0.24225E-01   328   0.222E+00    0.811E-02
DAV:   2    -0.129251383660E+03   -0.51031E-03   -0.61657E-03   356   0.301E-01    0.574E-02
DAV:   3    -0.129251348445E+03    0.35215E-04   -0.82973E-05   359   0.442E-02    0.373E-02
DAV:   4    -0.129251408376E+03   -0.59931E-04   -0.81558E-05   273   0.513E-02    0.581E-03
DAV:   5    -0.129251413176E+03   -0.48005E-05   -0.23067E-05   272   0.222E-02    0.423E-03
DAV:   6    -0.129251415667E+03   -0.24907E-05   -0.21432E-06   220   0.668E-03
  60 F= -.12925142E+03 E0= -.12925142E+03  d E =-.922970E-03
damped:  g(F)=  0.000E+00 g(S)=  0.000E+00 dE (1.order)= 0.000E+00
 bond charge predicted
       N       E                     dE             d eps       ncg     rms          rms(c)
DAV:   1    -0.129251795889E+03   -0.38271E-03   -0.33433E-01   328   0.269E+00    0.935E-02
DAV:   2    -0.129252498973E+03   -0.70308E-03   -0.84073E-03   363   0.364E-01    0.662E-02
DAV:   3    -0.129252454330E+03    0.44643E-04   -0.11540E-04   368   0.511E-02    0.426E-02
DAV:   4    -0.129252532094E+03   -0.77764E-04   -0.11533E-04   308   0.619E-02    0.715E-03
DAV:   5    -0.129252537240E+03   -0.51462E-05   -0.30922E-05   272   0.264E-02    0.502E-03
DAV:   6    -0.129252540268E+03   -0.30282E-05   -0.34015E-06   270   0.835E-03
  61 F= -.12925254E+03 E0= -.12925254E+03  d E =-.112460E-02
damped:  g(F)=  0.000E+00 g(S)=  0.000E+00 dE (1.order)= 0.000E+00
 bond charge predicted
       N       E                     dE             d eps       ncg     rms          rms(c)
DAV:   1    -0.129252555295E+03   -0.18055E-04   -0.50665E-01   332   0.345E+00    0.116E-01
DAV:   2    -0.129253639803E+03   -0.10845E-02   -0.12794E-02   364   0.469E-01    0.824E-02
DAV:   3    -0.129253578687E+03    0.61116E-04   -0.19336E-04   432   0.653E-02    0.532E-02
DAV:   4    -0.129253682140E+03   -0.10345E-03   -0.14220E-04   334   0.731E-02    0.881E-03
DAV:   5    -0.129253692372E+03   -0.10232E-04   -0.44153E-05   272   0.323E-02    0.645E-03
DAV:   6    -0.129253695615E+03   -0.32429E-05   -0.51018E-06   286   0.105E-02
  62 F= -.12925370E+03 E0= -.12925370E+03  d E =-.115535E-02
damped:  g(F)=  0.000E+00 g(S)=  0.000E+00 dE (1.order)= 0.000E+00
 bond charge predicted
       N       E                     dE             d eps       ncg     rms          rms(c)
DAV:   1    -0.129253382368E+03    0.31000E-03   -0.80369E-01   331   0.444E+00    0.147E-01
DAV:   2    -0.129255057313E+03   -0.16749E-02   -0.19997E-02   364   0.601E-01    0.103E-01
DAV:   3    -0.129254974627E+03    0.82686E-04   -0.29501E-04   432   0.824E-02    0.656E-02
DAV:   4    -0.129255130604E+03   -0.15598E-03   -0.21696E-04   352   0.926E-02    0.999E-03
DAV:   5    -0.129255144378E+03   -0.13774E-04   -0.65388E-05   336   0.384E-02    0.850E-03
DAV:   6    -0.129255149396E+03   -0.50179E-05   -0.40495E-06   336   0.100E-02
  63 F= -.12925515E+03 E0= -.12925515E+03  d E =-.145378E-02
damped:  g(F)=  0.000E+00 g(S)=  0.000E+00 dE (1.order)= 0.000E+00
 bond charge predicted
       N       E                     dE             d eps       ncg     rms          rms(c)
DAV:   1    -0.129253985836E+03    0.11585E-02   -0.12892E+00   331   0.568E+00    0.187E-01
DAV:   2    -0.129256655157E+03   -0.26693E-02   -0.31734E-02   364   0.765E-01    0.130E-01
DAV:   3    -0.129256518345E+03    0.13681E-03   -0.48049E-04   431   0.106E-01    0.824E-02
DAV:   4    -0.129256750665E+03   -0.23232E-03   -0.36710E-04   427   0.119E-01    0.136E-02
DAV:   5    -0.129256767229E+03   -0.16565E-04   -0.96650E-05   336   0.473E-02    0.110E-02
DAV:   6    -0.129256773897E+03   -0.66672E-05   -0.56458E-06   258   0.125E-02
  64 F= -.12925677E+03 E0= -.12925677E+03  d E =-.162450E-02
damped:  g(F)=  0.000E+00 g(S)=  0.000E+00 dE (1.order)= 0.000E+00
 bond charge predicted
       N       E                     dE             d eps       ncg     rms          rms(c)
DAV:   1    -0.129254244212E+03    0.25230E-02   -0.20032E+00   331   0.712E+00    0.233E-01
DAV:   2    -0.129258464909E+03   -0.42207E-02   -0.50099E-02   364   0.963E-01    0.167E-01
DAV:   3    -0.129258223047E+03    0.24186E-03   -0.82378E-04   432   0.140E-01    0.108E-01
DAV:   4    -0.129258533974E+03   -0.31093E-03   -0.61973E-04   428   0.152E-01    0.193E-02
DAV:   5    -0.129258559673E+03   -0.25699E-04   -0.16665E-04   400   0.612E-02    0.139E-02
DAV:   6    -0.129258567181E+03   -0.75073E-05   -0.66492E-06   334   0.136E-02
  65 F= -.12925857E+03 E0= -.12925857E+03  d E =-.179328E-02
damped:  g(F)=  0.000E+00 g(S)=  0.000E+00 dE (1.order)= 0.000E+00
 bond charge predicted
       N       E                     dE             d eps       ncg     rms          rms(c)
DAV:   1    -0.129253931255E+03    0.46284E-02   -0.28683E+00   331   0.853E+00    0.290E-01
DAV:   2    -0.129260100145E+03   -0.61689E-02   -0.73768E-02   364   0.117E+00    0.202E-01
DAV:   3    -0.129259798649E+03    0.30150E-03   -0.11508E-03   464   0.164E-01    0.131E-01
DAV:   4    -0.129260140151E+03   -0.34150E-03   -0.80605E-04   409   0.174E-01    0.207E-02
DAV:   5    -0.129260185630E+03   -0.45479E-04   -0.22227E-04   432   0.695E-02    0.175E-02
DAV:   6    -0.129260200509E+03   -0.14879E-04   -0.97906E-06   342   0.170E-02
  66 F= -.12926020E+03 E0= -.12926020E+03  d E =-.163333E-02
damped:  g(F)=  0.000E+00 g(S)=  0.000E+00 dE (1.order)= 0.000E+00
 bond charge predicted
       N       E                     dE             d eps       ncg     rms          rms(c)
DAV:   1    -0.129260974833E+03   -0.78920E-03   -0.35598E-02   365   0.935E-01    0.630E-02
DAV:   2    -0.129261102131E+03   -0.12730E-03   -0.16134E-03   378   0.172E-01    0.361E-02
DAV:   3    -0.129261094765E+03    0.73663E-05   -0.39281E-05   351   0.348E-02    0.212E-02
DAV:   4    -0.129261102944E+03   -0.81794E-05   -0.35327E-05   283   0.306E-02    0.444E-03
DAV:   5    -0.129261110083E+03   -0.71385E-05   -0.81412E-06   368   0.136E-02    0.239E-03
DAV:   6    -0.129261114944E+03   -0.48618E-05   -0.12396E-06   270   0.544E-03
  67 F= -.12926111E+03 E0= -.12926111E+03  d E =-.914435E-03
damped:  g(F)=  0.000E+00 g(S)=  0.000E+00 dE (1.order)= 0.000E+00
 bond charge predicted
       N       E                     dE             d eps       ncg     rms          rms(c)
DAV:   1    -0.129260837462E+03    0.27262E-03   -0.55631E-02   335   0.117E+00    0.742E-02
DAV:   2    -0.129261006823E+03   -0.16936E-03   -0.24007E-03   427   0.209E-01    0.437E-02
DAV:   3    -0.129260979060E+03    0.27762E-04   -0.55086E-05   368   0.412E-02    0.255E-02
DAV:   4    -0.129260966996E+03    0.12064E-04   -0.51608E-05   240   0.373E-02    0.536E-03
DAV:   5    -0.129260967986E+03   -0.98945E-06   -0.11907E-05   368   0.168E-02    0.303E-03
DAV:   6    -0.129260969854E+03   -0.18678E-05   -0.16676E-06   312   0.661E-03
  68 F= -.12926097E+03 E0= -.12926097E+03  d E =0.145091E-03
damped:  g(F)=  0.000E+00 g(S)=  0.000E+00 dE (1.order)= 0.000E+00
 bond charge predicted
       N       E                     dE             d eps       ncg     rms          rms(c)
DAV:   1    -0.129261152192E+03   -0.18421E-03   -0.12655E-03   365   0.175E-01    0.116E-02
DAV:   2    -0.129261158820E+03   -0.66285E-05   -0.53208E-05   398   0.319E-02    0.661E-03
DAV:   3    -0.129261161023E+03   -0.22032E-05   -0.26367E-06   258   0.803E-03    0.380E-03
DAV:   4    -0.129261164947E+03   -0.39239E-05   -0.12625E-06   292   0.556E-03    0.816E-04
DAV:   5    -0.129261166923E+03   -0.19760E-05   -0.29456E-07   304   0.250E-03    0.403E-04
DAV:   6    -0.129261167976E+03   -0.10530E-05   -0.53110E-08   218   0.108E-03
  69 F= -.12926117E+03 E0= -.12926117E+03  d E =-.198122E-03
damped:  g(F)=  0.000E+00 g(S)=  0.000E+00 dE (1.order)= 0.000E+00
 bond charge predicted
       N       E                     dE             d eps       ncg     rms          rms(c)
DAV:   1    -0.129261404647E+03   -0.23772E-03   -0.42332E-03   355   0.322E-01    0.206E-02
DAV:   2    -0.129261418238E+03   -0.13591E-04   -0.18566E-04   395   0.590E-02    0.124E-02
DAV:   3    -0.129261417022E+03    0.12157E-05   -0.60530E-06   304   0.133E-02    0.722E-03
DAV:   4    -0.129261417034E+03   -0.11762E-07   -0.41069E-06   264   0.105E-02    0.157E-03
DAV:   5    -0.129261417418E+03   -0.38431E-06   -0.92828E-07   360   0.477E-03    0.836E-04
DAV:   6    -0.129261417693E+03   -0.27469E-06   -0.11654E-07   220   0.188E-03
  70 F= -.12926142E+03 E0= -.12926142E+03  d E =-.249716E-03
damped:  g(F)=  0.000E+00 g(S)=  0.000E+00 dE (1.order)= 0.000E+00
 bond charge predicted
       N       E                     dE             d eps       ncg     rms          rms(c)
DAV:   1    -0.129261568525E+03   -0.15111E-03   -0.68435E-03   366   0.412E-01    0.250E-02
DAV:   2    -0.129261587656E+03   -0.19131E-04   -0.29268E-04   391   0.743E-02    0.154E-02
DAV:   3    -0.129261583843E+03    0.38130E-05   -0.89421E-06   272   0.165E-02    0.917E-03
DAV:   4    -0.129261581332E+03    0.25109E-05   -0.77483E-06   294   0.141E-02    0.219E-03
DAV:   5    -0.129261581394E+03   -0.62038E-07   -0.17631E-06   272   0.689E-03    0.113E-03
DAV:   6    -0.129261581682E+03   -0.28758E-06   -0.27142E-07   254   0.279E-03
  71 F= -.12926158E+03 E0= -.12926158E+03  d E =-.163989E-03
damped:  g(F)=  0.000E+00 g(S)=  0.000E+00 dE (1.order)= 0.000E+00
 bond charge predicted
       N       E                     dE             d eps       ncg     rms          rms(c)
DAV:   1    -0.129261622681E+03   -0.41287E-04   -0.73099E-03   356   0.430E-01    0.228E-02
DAV:   2    -0.129261642100E+03   -0.19419E-04   -0.28266E-04   336   0.735E-02    0.146E-02
DAV:   3    -0.129261639234E+03    0.28655E-05   -0.87609E-06   254   0.162E-02    0.910E-03
DAV:   4    -0.129261637509E+03    0.17250E-05   -0.75149E-06   224   0.146E-02    0.194E-03
DAV:   5    -0.129261637912E+03   -0.40294E-06   -0.17521E-06   254   0.672E-03    0.110E-03
DAV:   6    -0.129261638467E+03   -0.55514E-06   -0.30028E-07   208   0.278E-03
  72 F= -.12926164E+03 E0= -.12926164E+03  d E =-.567854E-04
damped:  g(F)=  0.000E+00 g(S)=  0.000E+00 dE (1.order)= 0.000E+00
 bond charge predicted
       N       E                     dE             d eps       ncg     rms          rms(c)
DAV:   1    -0.129261681150E+03   -0.43238E-04   -0.67390E-03   349   0.413E-01    0.169E-02
DAV:   2    -0.129261696820E+03   -0.15671E-04   -0.20404E-04   275   0.628E-02    0.117E-02
DAV:   3    -0.129261696011E+03    0.80918E-06   -0.85697E-06   164   0.138E-02    0.765E-03
DAV:   4    -0.129261696451E+03   -0.44028E-06   -0.57932E-06   204   0.124E-02    0.170E-03
DAV:   5    -0.129261696891E+03   -0.43907E-06   -0.15726E-06   166   0.589E-03    0.982E-04
DAV:   6    -0.129261697396E+03   -0.50580E-06   -0.40712E-07   236   0.262E-03
  73 F= -.12926170E+03 E0= -.12926170E+03  d E =-.589292E-04
damped:  g(F)=  0.000E+00 g(S)=  0.000E+00 dE (1.order)= 0.000E+00
 bond charge predicted
       N       E                     dE             d eps       ncg     rms          rms(c)
DAV:   1    -0.129261852731E+03   -0.15584E-03   -0.77688E-03   332   0.438E-01    0.150E-02
DAV:   2    -0.129261869513E+03   -0.16782E-04   -0.19514E-04   341   0.596E-02    0.103E-02
DAV:   3    -0.129261869155E+03    0.35828E-06   -0.34859E-06   192   0.999E-03    0.656E-03
DAV:   4    -0.129261870705E+03   -0.15501E-05   -0.28712E-06   244   0.100E-02    0.102E-03
DAV:   5    -0.129261871108E+03   -0.40358E-06   -0.91101E-07   208   0.444E-03    0.802E-04
DAV:   6    -0.129261871545E+03   -0.43629E-06   -0.14701E-07   240   0.163E-03
  74 F= -.12926187E+03 E0= -.12926187E+03  d E =-.174148E-03
damped:  g(F)=  0.000E+00 g(S)=  0.000E+00 dE (1.order)= 0.000E+00
 bond charge predicted
       N       E                     dE             d eps       ncg     rms          rms(c)
DAV:   1    -0.129262182975E+03   -0.31187E-03   -0.14491E-02   336   0.604E-01    0.212E-02
DAV:   2    -0.129262215945E+03   -0.32971E-04   -0.38733E-04   395   0.844E-02    0.149E-02
DAV:   3    -0.129262214418E+03    0.15276E-05   -0.57988E-06   272   0.138E-02    0.951E-03
DAV:   4    -0.129262216180E+03   -0.17626E-05   -0.64200E-06   266   0.142E-02    0.172E-03
DAV:   5    -0.129262216483E+03   -0.30211E-06   -0.14751E-06   272   0.628E-03    0.107E-03
DAV:   6    -0.129262216637E+03   -0.15434E-06   -0.14926E-07   240   0.214E-03
  75 F= -.12926222E+03 E0= -.12926222E+03  d E =-.345092E-03
damped:  g(F)=  0.000E+00 g(S)=  0.000E+00 dE (1.order)= 0.000E+00
 bond charge predicted
       N       E                     dE             d eps       ncg     rms          rms(c)
DAV:   1    -0.129262585549E+03   -0.36907E-03   -0.27966E-02   335   0.848E-01    0.320E-02
DAV:   2    -0.129262651907E+03   -0.66358E-04   -0.81248E-04   426   0.123E-01    0.225E-02
DAV:   3    -0.129262646410E+03    0.54974E-05   -0.92240E-06   272   0.184E-02    0.143E-02
DAV:   4    -0.129262647378E+03   -0.96830E-06   -0.16204E-05   288   0.221E-02    0.292E-03
DAV:   5    -0.129262647635E+03   -0.25671E-06   -0.38030E-06   272   0.102E-02    0.168E-03
DAV:   6    -0.129262647830E+03   -0.19532E-06   -0.45926E-07   222   0.353E-03
  76 F= -.12926265E+03 E0= -.12926265E+03  d E =-.431193E-03
damped:  g(F)=  0.000E+00 g(S)=  0.000E+00 dE (1.order)= 0.000E+00
 bond charge predicted
       N       E                     dE             d eps       ncg     rms          rms(c)
DAV:   1    -0.129262933209E+03   -0.28557E-03   -0.47288E-02   332   0.111E+00    0.406E-02
DAV:   2    -0.129263042948E+03   -0.10974E-03   -0.13332E-03   371   0.159E-01    0.287E-02
DAV:   3    -0.129263034873E+03    0.80747E-05   -0.17159E-05   272   0.242E-02    0.185E-02
DAV:   4    -0.129263037455E+03   -0.25818E-05   -0.28559E-05   280   0.293E-02    0.381E-03
DAV:   5    -0.129263037915E+03   -0.46008E-06   -0.62528E-06   272   0.131E-02    0.225E-03
DAV:   6    -0.129263038330E+03   -0.41433E-06   -0.80761E-07   234   0.438E-03
  77 F= -.12926304E+03 E0= -.12926304E+03  d E =-.390500E-03
damped:  g(F)=  0.000E+00 g(S)=  0.000E+00 dE (1.order)= 0.000E+00
 bond charge predicted
       N       E                     dE             d eps       ncg     rms          rms(c)
DAV:   1    -0.129263343896E+03   -0.30598E-03   -0.70553E-02   331   0.134E+00    0.458E-02
DAV:   2    -0.129263497293E+03   -0.15340E-03   -0.18033E-03   402   0.184E-01    0.323E-02
DAV:   3    -0.129263488482E+03    0.88109E-05   -0.17056E-05   264   0.251E-02    0.206E-02
DAV:   4    -0.129263496873E+03   -0.83912E-05   -0.27571E-05   208   0.309E-02    0.335E-03
DAV:   5    -0.129263498231E+03   -0.13577E-05   -0.77085E-06   247   0.139E-02    0.226E-03
DAV:   6    -0.129263498916E+03   -0.68574E-06   -0.93195E-07   216   0.438E-03
  78 F= -.12926350E+03 E0= -.12926350E+03  d E =-.460587E-03
damped:  g(F)=  0.000E+00 g(S)=  0.000E+00 dE (1.order)= 0.000E+00
 bond charge predicted
       N       E                     dE             d eps       ncg     rms          rms(c)
DAV:   1    -0.129264020381E+03   -0.52215E-03   -0.10920E-01   332   0.167E+00    0.570E-02
DAV:   2    -0.129264256226E+03   -0.23585E-03   -0.27602E-03   396   0.227E-01    0.399E-02
DAV:   3    -0.129264243750E+03    0.12476E-04   -0.28489E-05   344   0.309E-02    0.251E-02
DAV:   4    -0.129264257876E+03   -0.14125E-04   -0.36267E-05   272   0.360E-02    0.396E-03
DAV:   5    -0.129264259548E+03   -0.16718E-05   -0.90482E-06   272   0.154E-02    0.254E-03
DAV:   6    -0.129264260175E+03   -0.62734E-06   -0.81380E-07   256   0.449E-03
  79 F= -.12926426E+03 E0= -.12926426E+03  d E =-.761259E-03
damped:  g(F)=  0.000E+00 g(S)=  0.000E+00 dE (1.order)= 0.000E+00
 bond charge predicted
       N       E                     dE             d eps       ncg     rms          rms(c)
DAV:   1    -0.129264757731E+03   -0.49818E-03   -0.17706E-01   328   0.213E+00    0.747E-02
DAV:   2    -0.129265151438E+03   -0.39371E-03   -0.46891E-03   396   0.296E-01    0.531E-02
DAV:   3    -0.129265126266E+03    0.25172E-04   -0.52903E-05   368   0.419E-02    0.341E-02
DAV:   4    -0.129265143241E+03   -0.16975E-04   -0.68260E-05   272   0.488E-02    0.557E-03
DAV:   5    -0.129265145966E+03   -0.27250E-05   -0.16637E-05   272   0.208E-02    0.361E-03
DAV:   6    -0.129265147242E+03   -0.12765E-05   -0.17987E-06   336   0.639E-03
  80 F= -.12926515E+03 E0= -.12926515E+03  d E =-.887067E-03
damped:  g(F)=  0.000E+00 g(S)=  0.000E+00 dE (1.order)= 0.000E+00
 bond charge predicted
       N       E                     dE             d eps       ncg     rms          rms(c)
DAV:   1    -0.129265587731E+03   -0.44177E-03   -0.25116E-01   328   0.252E+00    0.859E-02
DAV:   2    -0.129266129020E+03   -0.54129E-03   -0.63533E-03   396   0.342E-01    0.600E-02
DAV:   3    -0.129266100997E+03    0.28024E-04   -0.63420E-05   310   0.458E-02    0.379E-02
DAV:   4    -0.129266131498E+03   -0.30502E-04   -0.79608E-05   266   0.540E-02    0.572E-03
DAV:   5    -0.129266135933E+03   -0.44344E-05   -0.21402E-05   272   0.233E-02    0.376E-03
DAV:   6    -0.129266137923E+03   -0.19903E-05   -0.20305E-06   236   0.682E-03
  81 F= -.12926614E+03 E0= -.12926614E+03  d E =-.990681E-03
damped:  g(F)=  0.000E+00 g(S)=  0.000E+00 dE (1.order)= 0.000E+00
 bond charge predicted
       N       E                     dE             d eps       ncg     rms          rms(c)
DAV:   1    -0.129266763153E+03   -0.62722E-03   -0.32493E-01   328   0.283E+00    0.967E-02
DAV:   2    -0.129267475523E+03   -0.71237E-03   -0.83311E-03   395   0.387E-01    0.684E-02
DAV:   3    -0.129267438951E+03    0.36573E-04   -0.84639E-05   368   0.517E-02    0.434E-02
DAV:   4    -0.129267478060E+03   -0.39109E-04   -0.10806E-04   267   0.616E-02    0.641E-03
DAV:   5    -0.129267483195E+03   -0.51352E-05   -0.27727E-05   304   0.259E-02    0.454E-03
DAV:   6    -0.129267484822E+03   -0.16272E-05   -0.22668E-06   256   0.726E-03
  82 F= -.12926748E+03 E0= -.12926748E+03  d E =-.134690E-02
damped:  g(F)=  0.000E+00 g(S)=  0.000E+00 dE (1.order)= 0.000E+00
 bond charge predicted
       N       E                     dE             d eps       ncg     rms          rms(c)
DAV:   1    -0.129267968436E+03   -0.48524E-03   -0.37369E-01   331   0.294E+00    0.102E-01
DAV:   2    -0.129268778125E+03   -0.80969E-03   -0.94860E-03   380   0.400E-01    0.722E-02
DAV:   3    -0.129268742676E+03    0.35449E-04   -0.13381E-04   368   0.551E-02    0.463E-02
DAV:   4    -0.129268789347E+03   -0.46671E-04   -0.13622E-04   338   0.664E-02    0.740E-03
DAV:   5    -0.129268793595E+03   -0.42481E-05   -0.30726E-05   264   0.260E-02    0.516E-03
DAV:   6    -0.129268796268E+03   -0.26726E-05   -0.28500E-06   308   0.806E-03
  83 F= -.12926880E+03 E0= -.12926880E+03  d E =-.131145E-02
damped:  g(F)=  0.000E+00 g(S)=  0.000E+00 dE (1.order)= 0.000E+00
 bond charge predicted
       N       E                     dE             d eps       ncg     rms          rms(c)
DAV:   1    -0.129268853020E+03   -0.59424E-04   -0.10052E-03   364   0.167E-01    0.831E-03
DAV:   2    -0.129268856851E+03   -0.38310E-05   -0.32787E-05   244   0.274E-02    0.502E-03
DAV:   3    -0.129268858259E+03   -0.14089E-05   -0.38099E-06   323   0.904E-03    0.284E-03
DAV:   4    -0.129268860341E+03   -0.20820E-05   -0.66600E-07   260   0.453E-03    0.819E-04
DAV:   5    -0.129268861760E+03   -0.14191E-05   -0.16695E-07   270   0.214E-03    0.333E-04
DAV:   6    -0.129268862658E+03   -0.89740E-06   -0.27639E-08   202   0.994E-04
  84 F= -.12926886E+03 E0= -.12926886E+03  d E =-.663902E-04
damped:  g(F)=  0.000E+00 g(S)=  0.000E+00 dE (1.order)= 0.000E+00
 bond charge predicted
       N       E                     dE             d eps       ncg     rms          rms(c)
DAV:   1    -0.129268919407E+03   -0.57647E-04   -0.35463E-03   373   0.313E-01    0.148E-02
DAV:   2    -0.129268928497E+03   -0.90902E-05   -0.11744E-04   362   0.499E-02    0.913E-03
DAV:   3    -0.129268928018E+03    0.47993E-06   -0.45465E-06   272   0.114E-02    0.550E-03
DAV:   4    -0.129268928363E+03   -0.34548E-06   -0.30115E-06   272   0.925E-03    0.135E-03
DAV:   5    -0.129268928702E+03   -0.33922E-06   -0.70806E-07   272   0.456E-03    0.692E-04
DAV:   6    -0.129268928944E+03   -0.24142E-06   -0.10674E-07   252   0.185E-03
  85 F= -.12926893E+03 E0= -.12926893E+03  d E =-.662858E-04
damped:  g(F)=  0.000E+00 g(S)=  0.000E+00 dE (1.order)= 0.000E+00
 bond charge predicted
       N       E                     dE             d eps       ncg     rms          rms(c)
DAV:   1    -0.129268940291E+03   -0.11589E-04   -0.66124E-03   335   0.421E-01    0.180E-02
DAV:   2    -0.129268954727E+03   -0.14436E-04   -0.19291E-04   302   0.638E-02    0.113E-02
DAV:   3    -0.129268953750E+03    0.97722E-06   -0.73901E-06   272   0.145E-02    0.694E-03
DAV:   4    -0.129268953732E+03    0.18459E-07   -0.50894E-06   265   0.122E-02    0.172E-03
DAV:   5    -0.129268953913E+03   -0.18179E-06   -0.10807E-06   272   0.564E-03    0.912E-04
DAV:   6    -0.129268954125E+03   -0.21168E-06   -0.17126E-07   204   0.223E-03
  86 F= -.12926895E+03 E0= -.12926895E+03  d E =-.251814E-04
damped:  g(F)=  0.000E+00 g(S)=  0.000E+00 dE (1.order)= 0.000E+00
 bond charge predicted
       N       E                     dE             d eps       ncg     rms          rms(c)
DAV:   1    -0.129268932903E+03    0.21011E-04   -0.10006E-02   331   0.501E-01    0.190E-02
DAV:   2    -0.129268952771E+03   -0.19868E-04   -0.25115E-04   300   0.702E-02    0.124E-02
DAV:   3    -0.129268952033E+03    0.73804E-06   -0.83266E-06   240   0.151E-02    0.766E-03
DAV:   4    -0.129268952921E+03   -0.88862E-06   -0.48783E-06   216   0.129E-02    0.145E-03
DAV:   5    -0.129268953221E+03   -0.29910E-06   -0.13531E-06   204   0.579E-03    0.992E-04
DAV:   6    -0.129268953508E+03   -0.28722E-06   -0.26063E-07   209   0.231E-03
  87 F= -.12926895E+03 E0= -.12926895E+03  d E =0.617261E-06
damped:  g(F)=  0.000E+00 g(S)=  0.000E+00 dE (1.order)= 0.000E+00
 bond charge predicted
       N       E                     dE             d eps       ncg     rms          rms(c)
DAV:   1    -0.129268941185E+03    0.12036E-04   -0.14846E-02   331   0.591E-01    0.218E-02
DAV:   2    -0.129268969276E+03   -0.28091E-04   -0.34273E-04   299   0.783E-02    0.143E-02
DAV:   3    -0.129268968885E+03    0.39153E-06   -0.10783E-05   238   0.162E-02    0.866E-03
DAV:   4    -0.129268971116E+03   -0.22311E-05   -0.57200E-06   233   0.135E-02    0.148E-03
DAV:   5    -0.129268971476E+03   -0.36049E-06   -0.16889E-06   206   0.597E-03    0.110E-03
DAV:   6    -0.129268971761E+03   -0.28439E-06   -0.33591E-07   208   0.231E-03
  88 F= -.12926897E+03 E0= -.12926897E+03  d E =-.182528E-04
damped:  g(F)=  0.000E+00 g(S)=  0.000E+00 dE (1.order)= 0.000E+00
 bond charge predicted
       N       E                     dE             d eps       ncg     rms          rms(c)
DAV:   1    -0.129268969882E+03    0.15947E-05   -0.22343E-02   335   0.723E-01    0.270E-02
DAV:   2    -0.129269013895E+03   -0.44014E-04   -0.53653E-04   394   0.965E-02    0.183E-02
DAV:   3    -0.129269011756E+03    0.21392E-05   -0.84437E-06   272   0.167E-02    0.112E-02
DAV:   4    -0.129269014871E+03   -0.31148E-05   -0.84407E-06   211   0.162E-02    0.206E-03
DAV:   5    -0.129269015233E+03   -0.36148E-06   -0.22119E-06   272   0.741E-03    0.121E-03
DAV:   6    -0.129269015429E+03   -0.19687E-06   -0.26084E-07   222   0.240E-03
  89 F= -.12926902E+03 E0= -.12926902E+03  d E =-.436688E-04
damped:  g(F)=  0.000E+00 g(S)=  0.000E+00 dE (1.order)= 0.000E+00
 bond charge predicted
       N       E                     dE             d eps       ncg     rms          rms(c)
DAV:   1    -0.129268960275E+03    0.54957E-04   -0.40966E-02   334   0.981E-01    0.373E-02
DAV:   2    -0.129269041986E+03   -0.81710E-04   -0.10060E-03   412   0.133E-01    0.256E-02
DAV:   3    -0.129269036976E+03    0.50093E-05   -0.11483E-05   272   0.206E-02    0.157E-02
DAV:   4    -0.129269041627E+03   -0.46507E-05   -0.18428E-05   266   0.230E-02    0.321E-03
DAV:   5    -0.129269041936E+03   -0.30867E-06   -0.38877E-06   272   0.105E-02    0.184E-03
DAV:   6    -0.129269042171E+03   -0.23516E-06   -0.41074E-07   222   0.331E-03
  90 F= -.12926904E+03 E0= -.12926904E+03  d E =-.267416E-04
damped:  g(F)=  0.000E+00 g(S)=  0.000E+00 dE (1.order)= 0.000E+00
 bond charge predicted
       N       E                     dE             d eps       ncg     rms          rms(c)
DAV:   1    -0.129268854224E+03    0.18771E-03   -0.72832E-02   331   0.129E+00    0.492E-02
DAV:   2    -0.129268996496E+03   -0.14227E-03   -0.17426E-03   363   0.173E-01    0.337E-02
DAV:   3    -0.129268989923E+03    0.65731E-05   -0.29078E-05   343   0.278E-02    0.206E-02
DAV:   4    -0.129268997511E+03   -0.75883E-05   -0.26970E-05   242   0.298E-02    0.384E-03
DAV:   5    -0.129268998122E+03   -0.61048E-06   -0.66412E-06   272   0.130E-02    0.266E-03
DAV:   6    -0.129268998591E+03   -0.46924E-06   -0.71917E-07   204   0.432E-03
  91 F= -.12926900E+03 E0= -.12926900E+03  d E =0.435798E-04
damped:  g(F)=  0.000E+00 g(S)=  0.000E+00 dE (1.order)= 0.000E+00
 bond charge predicted
       N       E                     dE             d eps       ncg     rms          rms(c)
DAV:   1    -0.129268656806E+03    0.34132E-03   -0.12751E-01   330   0.169E+00    0.643E-02
DAV:   2    -0.129268901571E+03   -0.24477E-03   -0.29593E-03   363   0.220E-01    0.436E-02
DAV:   3    -0.129268892227E+03    0.93436E-05   -0.46538E-05   335   0.344E-02    0.264E-02
DAV:   4    -0.129268905950E+03   -0.13723E-04   -0.41312E-05   232   0.371E-02    0.454E-03
DAV:   5    -0.129268907259E+03   -0.13085E-05   -0.11612E-05   264   0.164E-02    0.343E-03
DAV:   6    -0.129268908100E+03   -0.84110E-06   -0.12505E-06   244   0.536E-03
  92 F= -.12926891E+03 E0= -.12926891E+03  d E =0.904914E-04
damped:  g(F)=  0.000E+00 g(S)=  0.000E+00 dE (1.order)= 0.000E+00
 bond charge predicted
       N       E                     dE             d eps       ncg     rms          rms(c)
DAV:   1    -0.129268352828E+03    0.55443E-03   -0.22498E-01   331   0.224E+00    0.857E-02
DAV:   2    -0.129268785826E+03   -0.43300E-03   -0.52062E-03   365   0.293E-01    0.579E-02
DAV:   3    -0.129268768427E+03    0.17400E-04   -0.79812E-05   343   0.449E-02    0.348E-02
DAV:   4    -0.129268791506E+03   -0.23080E-04   -0.76687E-05   329   0.489E-02    0.629E-03
DAV:   5    -0.129268793398E+03   -0.18912E-05   -0.17778E-05   272   0.206E-02    0.456E-03
DAV:   6    -0.129268794653E+03   -0.12556E-05   -0.18884E-06   238   0.667E-03
  93 F= -.12926879E+03 E0= -.12926879E+03  d E =0.113447E-03
damped:  g(F)=  0.000E+00 g(S)=  0.000E+00 dE (1.order)= 0.000E+00
 bond charge predicted
       N       E                     dE             d eps       ncg     rms          rms(c)
DAV:   1    -0.129267874263E+03    0.91913E-03   -0.36642E-01   331   0.287E+00    0.110E-01
DAV:   2    -0.129268580072E+03   -0.70581E-03   -0.85002E-03   364   0.376E-01    0.741E-02
DAV:   3    -0.129268550623E+03    0.29448E-04   -0.12987E-04   335   0.576E-02    0.446E-02
DAV:   4    -0.129268586024E+03   -0.35401E-04   -0.12523E-04   330   0.628E-02    0.790E-03
DAV:   5    -0.129268589263E+03   -0.32385E-05   -0.28850E-05   272   0.263E-02    0.579E-03
DAV:   6    -0.129268591464E+03   -0.22009E-05   -0.30075E-06   212   0.856E-03
  94 F= -.12926859E+03 E0= -.12926859E+03  d E =0.203190E-03
damped:  g(F)=  0.000E+00 g(S)=  0.000E+00 dE (1.order)= 0.000E+00
 bond charge predicted
       N       E                     dE             d eps       ncg     rms          rms(c)
DAV:   1    -0.129267349174E+03    0.12401E-02   -0.53621E-01   331   0.345E+00    0.132E-01
DAV:   2    -0.129268378488E+03   -0.10293E-02   -0.12336E-02   364   0.449E-01    0.895E-02
DAV:   3    -0.129268337073E+03    0.41415E-04   -0.19661E-04   396   0.699E-02    0.540E-02
DAV:   4    -0.129268390456E+03   -0.53383E-04   -0.16940E-04   314   0.733E-02    0.924E-03
DAV:   5    -0.129268395492E+03   -0.50353E-05   -0.40780E-05   256   0.311E-02    0.706E-03
DAV:   6    -0.129268398423E+03   -0.29308E-05   -0.40908E-06   266   0.100E-02
  95 F= -.12926840E+03 E0= -.12926840E+03  d E =0.193041E-03
damped:  g(F)=  0.000E+00 g(S)=  0.000E+00 dE (1.order)= 0.000E+00
 bond charge predicted
       N       E                     dE             d eps       ncg     rms          rms(c)
DAV:   1    -0.129266929206E+03    0.14663E-02   -0.71466E-01   331   0.405E+00    0.153E-01
DAV:   2    -0.129268317172E+03   -0.13880E-02   -0.16701E-02   364   0.533E-01    0.105E-01
DAV:   3    -0.129268256423E+03    0.60749E-04   -0.29541E-04   432   0.861E-02    0.641E-02
DAV:   4    -0.129268323777E+03   -0.67353E-04   -0.21316E-04   347   0.842E-02    0.108E-02
DAV:   5    -0.129268330510E+03   -0.67338E-05   -0.52349E-05   304   0.355E-02    0.835E-03
DAV:   6    -0.129268333495E+03   -0.29846E-05   -0.42394E-06   270   0.105E-02
  96 F= -.12926833E+03 E0= -.12926833E+03  d E =0.649275E-04
damped:  g(F)=  0.000E+00 g(S)=  0.000E+00 dE (1.order)= 0.000E+00
 bond charge predicted
       N       E                     dE             d eps       ncg     rms          rms(c)
DAV:   1    -0.129266994809E+03    0.13357E-02   -0.80391E-01   331   0.441E+00    0.161E-01
DAV:   2    -0.129268557113E+03   -0.15623E-02   -0.18841E-02   380   0.584E-01    0.110E-01
DAV:   3    -0.129268491900E+03    0.65213E-04   -0.31195E-04   424   0.882E-02    0.668E-02
DAV:   4    -0.129268569339E+03   -0.77439E-04   -0.23684E-04   353   0.905E-02    0.110E-02
DAV:   5    -0.129268578210E+03   -0.88711E-05   -0.58726E-05   304   0.383E-02    0.877E-03
DAV:   6    -0.129268583040E+03   -0.48301E-05   -0.51160E-06   364   0.117E-02
  97 F= -.12926858E+03 E0= -.12926858E+03  d E =-.249545E-03
damped:  g(F)=  0.000E+00 g(S)=  0.000E+00 dE (1.order)= 0.000E+00
 bond charge predicted
       N       E                     dE             d eps       ncg     rms          rms(c)
DAV:   1    -0.129268643183E+03   -0.64973E-04   -0.59204E-04   363   0.121E-01    0.439E-03
DAV:   2    -0.129268647658E+03   -0.44745E-05   -0.15515E-05   206   0.182E-02    0.284E-03
DAV:   3    -0.129268650402E+03   -0.27439E-05   -0.14265E-06   249   0.586E-03    0.180E-03
DAV:   4    -0.129268655687E+03   -0.52852E-05   -0.66622E-07   284   0.334E-03    0.490E-04
DAV:   5    -0.129268658625E+03   -0.29382E-05   -0.13003E-07   272   0.158E-03    0.337E-04
DAV:   6    -0.129268661680E+03   -0.30550E-05   -0.12280E-07   264   0.101E-03
  98 F= -.12926866E+03 E0= -.12926866E+03  d E =-.786397E-04
damped:  g(F)=  0.000E+00 g(S)=  0.000E+00 dE (1.order)= 0.000E+00
 bond charge predicted
       N       E                     dE             d eps       ncg     rms          rms(c)
DAV:   1    -0.129268768132E+03   -0.10951E-03   -0.22864E-03   399   0.239E-01    0.810E-03
DAV:   2    -0.129268773708E+03   -0.55762E-05   -0.56027E-05   272   0.328E-02    0.554E-03
DAV:   3    -0.129268774315E+03   -0.60674E-06   -0.26369E-06   268   0.743E-03    0.356E-03
DAV:   4    -0.129268776075E+03   -0.17597E-05   -0.14456E-06   295   0.558E-03    0.642E-04
DAV:   5    -0.129268776674E+03   -0.59893E-06   -0.22079E-07   272   0.232E-03    0.453E-04
DAV:   6    -0.129268777183E+03   -0.50900E-06   -0.35827E-08   236   0.902E-04
  99 F= -.12926878E+03 E0= -.12926878E+03  d E =-.115503E-03
damped:  g(F)=  0.000E+00 g(S)=  0.000E+00 dE (1.order)= 0.000E+00
 bond charge predicted
       N       E                     dE             d eps       ncg     rms          rms(c)
DAV:   1    -0.129268924026E+03   -0.14735E-03   -0.48745E-03   367   0.347E-01    0.118E-02
DAV:   2    -0.129268934003E+03   -0.99771E-05   -0.11710E-04   285   0.472E-02    0.794E-03
DAV:   3    -0.129268934194E+03   -0.19052E-06   -0.53912E-06   272   0.106E-02    0.506E-03
DAV:   4    -0.129268935301E+03   -0.11073E-05   -0.21860E-06   227   0.787E-03    0.771E-04
DAV:   5    -0.129268935601E+03   -0.29967E-06   -0.74401E-07   272   0.368E-03    0.585E-04
DAV:   6    -0.129268935799E+03   -0.19821E-06   -0.19049E-07   216   0.153E-03
 100 F= -.12926894E+03 E0= -.12926894E+03  d E =-.158616E-03
damped:  g(F)=  0.000E+00 g(S)=  0.000E+00 dE (1.order)= 0.000E+00
 bond charge predicted
       N       E                     dE             d eps       ncg     rms          rms(c)
DAV:   1    -0.129269121678E+03   -0.18608E-03   -0.81117E-03   335   0.446E-01    0.150E-02
DAV:   2    -0.129269138599E+03   -0.16921E-04   -0.20110E-04   366   0.601E-02    0.103E-02
DAV:   3    -0.129269138018E+03    0.58046E-06   -0.35328E-06   238   0.101E-02    0.654E-03
DAV:   4    -0.129269139273E+03   -0.12545E-05   -0.29106E-06   242   0.102E-02    0.965E-04
DAV:   5    -0.129269139445E+03   -0.17170E-06   -0.93358E-07   256   0.448E-03    0.788E-04
DAV:   6    -0.129269139562E+03   -0.11784E-06   -0.14252E-07   200   0.160E-03
 101 F= -.12926914E+03 E0= -.12926914E+03  d E =-.203763E-03
damped:  g(F)=  0.000E+00 g(S)=  0.000E+00 dE (1.order)= 0.000E+00
 bond charge predicted
       N       E                     dE             d eps       ncg     rms          rms(c)
DAV:   1    -0.129269362081E+03   -0.22264E-03   -0.11786E-02   333   0.534E-01    0.180E-02
DAV:   2    -0.129269386495E+03   -0.24414E-04   -0.29088E-04   334   0.718E-02    0.124E-02
DAV:   3    -0.129269385630E+03    0.86508E-06   -0.50281E-06   219   0.120E-02    0.785E-03
DAV:   4    -0.129269387333E+03   -0.17032E-05   -0.41660E-06   236   0.121E-02    0.116E-03
DAV:   5    -0.129269387534E+03   -0.20090E-06   -0.13377E-06   203   0.531E-03    0.940E-04
DAV:   6    -0.129269387651E+03   -0.11702E-06   -0.20992E-07   168   0.189E-03
 102 F= -.12926939E+03 E0= -.12926939E+03  d E =-.248089E-03
damped:  g(F)=  0.000E+00 g(S)=  0.000E+00 dE (1.order)= 0.000E+00
 bond charge predicted
       N       E                     dE             d eps       ncg     rms          rms(c)
DAV:   1    -0.129269640973E+03   -0.25344E-03   -0.15624E-02   328   0.608E-01    0.207E-02
DAV:   2    -0.129269673493E+03   -0.32520E-04   -0.38717E-04   333   0.818E-02    0.142E-02
DAV:   3    -0.129269672304E+03    0.11888E-05   -0.66596E-06   221   0.136E-02    0.909E-03
DAV:   4    -0.129269674450E+03   -0.21456E-05   -0.55562E-06   234   0.138E-02    0.136E-03
DAV:   5    -0.129269674713E+03   -0.26294E-06   -0.17813E-06   196   0.607E-03    0.109E-03
DAV:   6    -0.129269674874E+03   -0.16101E-06   -0.28607E-07   182   0.219E-03
 103 F= -.12926967E+03 E0= -.12926967E+03  d E =-.287222E-03
damped:  g(F)=  0.000E+00 g(S)=  0.000E+00 dE (1.order)= 0.000E+00
 bond charge predicted
       N       E                     dE             d eps       ncg     rms          rms(c)
DAV:   1    -0.129269975147E+03   -0.30043E-03   -0.23704E-02   329   0.738E-01    0.254E-02
DAV:   2    -0.129270025439E+03   -0.50292E-04   -0.59521E-04   396   0.989E-02    0.177E-02
DAV:   3    -0.129270022819E+03    0.26203E-05   -0.50792E-06   227   0.130E-02    0.113E-02
DAV:   4    -0.129270025972E+03   -0.31525E-05   -0.79266E-06   227   0.161E-02    0.173E-03
DAV:   5    -0.129270026424E+03   -0.45256E-06   -0.23857E-06   228   0.722E-03    0.123E-03
DAV:   6    -0.129270026621E+03   -0.19664E-06   -0.28085E-07   174   0.229E-03
 104 F= -.12927003E+03 E0= -.12927003E+03  d E =-.351747E-03
damped:  g(F)=  0.000E+00 g(S)=  0.000E+00 dE (1.order)= 0.000E+00
 bond charge predicted
       N       E                     dE             d eps       ncg     rms          rms(c)
DAV:   1    -0.129270369195E+03   -0.34277E-03   -0.33694E-02   329   0.861E-01    0.300E-02
DAV:   2    -0.129270440462E+03   -0.71267E-04   -0.83945E-04   360   0.114E-01    0.209E-02
DAV:   3    -0.129270436888E+03    0.35742E-05   -0.69796E-06   202   0.148E-02    0.132E-02
DAV:   4    -0.129270441412E+03   -0.45240E-05   -0.10882E-05   234   0.185E-02    0.195E-03
DAV:   5    -0.129270442086E+03   -0.67387E-06   -0.32839E-06   200   0.820E-03    0.140E-03
DAV:   6    -0.129270442358E+03   -0.27201E-06   -0.39003E-07   164   0.257E-03
 105 F= -.12927044E+03 E0= -.12927044E+03  d E =-.415737E-03
damped:  g(F)=  0.000E+00 g(S)=  0.000E+00 dE (1.order)= 0.000E+00
 bond charge predicted
       N       E                     dE             d eps       ncg     rms          rms(c)
DAV:   1    -0.129270814568E+03   -0.37248E-03   -0.45454E-02   332   0.982E-01    0.348E-02
DAV:   2    -0.129270910419E+03   -0.95852E-04   -0.11267E-03   385   0.129E-01    0.242E-02
DAV:   3    -0.129270905657E+03    0.47626E-05   -0.93293E-06   221   0.167E-02    0.152E-02
DAV:   4    -0.129270911805E+03   -0.61482E-05   -0.14452E-05   236   0.208E-02    0.222E-03
DAV:   5    -0.129270912715E+03   -0.91013E-06   -0.43422E-06   231   0.917E-03    0.156E-03
DAV:   6    -0.129270913060E+03   -0.34488E-06   -0.52411E-07   216   0.287E-03
 106 F= -.12927091E+03 E0= -.12927091E+03  d E =-.470702E-03
damped:  g(F)=  0.000E+00 g(S)=  0.000E+00 dE (1.order)= 0.000E+00
 reached required accuracy - stopping structural energy minimisation
