unknown system                          
           1
    30.000000    0.000000    0.000000
     0.000000   30.000000    0.000000
     0.000000    0.000000   30.000000
   H    C    N    O 
  12   6   2   2
Direct configuration=     1
   0.37389755  0.53407551  0.49714212
   0.38137485  0.47765751  0.48021142
   0.37694285  0.49079827  0.53782535
   0.44851561  0.44728984  0.52451684
   0.52194163  0.44465914  0.54321726
   0.55596033  0.42025419  0.47276432
   0.51414290  0.44867115  0.44115006
   0.49920953  0.40271522  0.47593792
   0.51064833  0.55131282  0.49761547
   0.59919224  0.57704018  0.52806082
   0.60221426  0.56619972  0.46990948
   0.56386789  0.60690776  0.49019139
   0.39020929  0.50254481  0.50573188
   0.44029737  0.51119434  0.50674791
   0.51434024  0.46376508  0.51276002
   0.52123011  0.43193150  0.47300800
   0.55229819  0.49886264  0.51148064
   0.57919732  0.57446374  0.49736298
   0.46621681  0.47519322  0.51683626
   0.54369220  0.54180479  0.50182072
   0.45439125  0.54918540  0.49795073
   0.59021785  0.48347414  0.51775753
Direct configuration=     2
   0.37388664  0.53406533  0.49717130
   0.38143766  0.47764945  0.48023695
   0.37698940  0.49077826  0.53786115
   0.44843922  0.44731967  0.52447851
   0.52195081  0.44468899  0.54323624
   0.55591466  0.42029730  0.47276576
   0.51412812  0.44871274  0.44117357
   0.49920467  0.40273638  0.47590334
   0.51064464  0.55125468  0.49763433
   0.59914123  0.57702221  0.52805816
   0.60220077  0.56612391  0.46995505
   0.56388933  0.60689937  0.49018751
   0.39023361  0.50253239  0.50575521
   0.44025665  0.51119651  0.50666503
   0.51435108  0.46381784  0.51273369
   0.52120243  0.43194447  0.47297974
   0.55229062  0.49882567  0.51149470
   0.57920760  0.57446681  0.49735932
   0.46620381  0.47513505  0.51686254
   0.54377055  0.54178589  0.50175967
   0.45441282  0.54916528  0.49788848
   0.59024227  0.48358277  0.51783889
Direct configuration=     3
   0.37387249  0.53404229  0.49721619
   0.38152348  0.47763417  0.48027054
   0.37706312  0.49074951  0.53791146
   0.44831665  0.44732196  0.52443131
   0.52196419  0.44474470  0.54324298
   0.55585974  0.42035229  0.47276690
   0.51410349  0.44877302  0.44119322
   0.49919084  0.40275991  0.47585943
   0.51067868  0.55116664  0.49766866
   0.59908157  0.57699803  0.52806415
   0.60218880  0.56602088  0.47000926
   0.56391604  0.60689303  0.49018479
   0.39025005  0.50252911  0.50578328
   0.44025036  0.51115303  0.50657382
   0.51434781  0.46383459  0.51272295
   0.52116836  0.43197319  0.47295913
   0.55229535  0.49883967  0.51150114
   0.57922105  0.57446331  0.49735475
   0.46617673  0.47515866  0.51686786
   0.54379624  0.54174768  0.50167651
   0.45444126  0.54913632  0.49778878
   0.59029231  0.48370899  0.51795200
Direct configuration=     4
   0.37385481  0.53400905  0.49727564
   0.38162285  0.47761005  0.48030909
   0.37716652  0.49071345  0.53797271
   0.44817226  0.44731812  0.52436869
   0.52198028  0.44482521  0.54323738
   0.55580711  0.42041174  0.47276809
   0.51406791  0.44884895  0.44120176
   0.49916521  0.40278151  0.47581177
   0.51073498  0.55106081  0.49771678
   0.59902456  0.57696717  0.52808631
   0.60218377  0.56589870  0.47006045
   0.56394498  0.60689137  0.49018594
   0.39025840  0.50253006  0.50581450
   0.44028664  0.51110806  0.50648138
   0.51432612  0.46381282  0.51272913
   0.52112596  0.43201873  0.47295826
   0.55233466  0.49889958  0.51150132
   0.57922030  0.57444476  0.49735050
   0.46613339  0.47522219  0.51685807
   0.54376844  0.54170371  0.50158021
   0.45446824  0.54908261  0.49764899
   0.59035119  0.48384230  0.51808214
Direct configuration=     5
   0.37383044  0.53397425  0.49734694
   0.38172539  0.47757625  0.48035010
   0.37730158  0.49067107  0.53804203
   0.44803981  0.44735262  0.52427827
   0.52199837  0.44491832  0.54323727
   0.55576358  0.42047027  0.47277044
   0.51402184  0.44893447  0.44120218
   0.49912844  0.40280064  0.47576469
   0.51075902  0.55095905  0.49777110
   0.59897459  0.57692586  0.52812574
   0.60218603  0.56576564  0.47010172
   0.56397520  0.60689326  0.49019345
   0.39027496  0.50252191  0.50584888
   0.44032565  0.51111246  0.50638999
   0.51429391  0.46379467  0.51273480
   0.52107033  0.43207388  0.47297474
   0.55240294  0.49895392  0.51150489
   0.57918763  0.57440821  0.49734914
   0.46608650  0.47522047  0.51685588
   0.54375031  0.54167742  0.50148254
   0.45449798  0.54901326  0.49746117
   0.59040411  0.48398308  0.51821316
Direct configuration=     6
   0.37379676  0.53394211  0.49742642
   0.38182146  0.47753401  0.48039140
   0.37746427  0.49062358  0.53811654
   0.44792366  0.44741724  0.52416553
   0.52201907  0.44500791  0.54325925
   0.55572516  0.42052597  0.47277406
   0.51396838  0.44901984  0.44120643
   0.49908439  0.40282042  0.47572206
   0.51071792  0.55087846  0.49782237
   0.59892707  0.57687139  0.52817124
   0.60218867  0.56563450  0.47013668
   0.56400603  0.60689485  0.49020714
   0.39031359  0.50250307  0.50588507
   0.44032989  0.51113145  0.50631347
   0.51426481  0.46381494  0.51272964
   0.52100953  0.43212443  0.47299015
   0.55245338  0.49897261  0.51151518
   0.57914026  0.57436663  0.49735177
   0.46605892  0.47515769  0.51686027
   0.54377607  0.54167042  0.50139709
   0.45454722  0.54897052  0.49722178
   0.59046206  0.48411894  0.51833554
Direct configuration=     7
   0.37374918  0.53390179  0.49752431
   0.38191379  0.47747900  0.48043826
   0.37767432  0.49056425  0.53820361
   0.44779449  0.44746490  0.52403312
   0.52204439  0.44509567  0.54330840
   0.55567861  0.42058572  0.47277712
   0.51390257  0.44910764  0.44122735
   0.49902964  0.40284891  0.47568278
   0.51061712  0.55081658  0.49786788
   0.59886870  0.57679357  0.52821460
   0.60218555  0.56550521  0.47017873
   0.56404017  0.60689186  0.49022556
   0.39037594  0.50248165  0.50592486
   0.44032466  0.51112610  0.50625324
   0.51424981  0.46387163  0.51272506
   0.52095470  0.43216425  0.47298412
   0.55246141  0.49897136  0.51153286
   0.57912109  0.57433583  0.49735947
   0.46605822  0.47514205  0.51684521
   0.54379683  0.54166026  0.50132774
   0.45462061  0.54895073  0.49690379
   0.59053679  0.48424199  0.51846102
Direct configuration=     8
   0.37369252  0.53383859  0.49764354
   0.38199816  0.47741557  0.48049718
   0.37793012  0.49049074  0.53830120
   0.44766728  0.44747645  0.52389059
   0.52206662  0.44518180  0.54336556
   0.55562222  0.42065082  0.47277148
   0.51382472  0.44920206  0.44126495
   0.49896559  0.40289485  0.47564547
   0.51050793  0.55076818  0.49789380
   0.59879675  0.57669253  0.52825551
   0.60218495  0.56538695  0.47023491
   0.56407991  0.60687960  0.49023723
   0.39044044  0.50246665  0.50596903
   0.44038626  0.51115600  0.50617644
   0.51426084  0.46391638  0.51274645
   0.52091627  0.43219734  0.47295685
   0.55247366  0.49898665  0.51156536
   0.57915514  0.57431960  0.49737009
   0.46605787  0.47523647  0.51680577
   0.54371740  0.54162882  0.50127970
   0.45467821  0.54887651  0.49653355
   0.59057569  0.48433841  0.51859443
Direct configuration=     9
   0.37362482  0.53374538  0.49778720
   0.38207190  0.47735253  0.48058256
   0.37823177  0.49039884  0.53841009
   0.44761879  0.44753891  0.52372423
   0.52207128  0.44525398  0.54342059
   0.55557311  0.42071884  0.47273898
   0.51373381  0.44932413  0.44130617
   0.49889445  0.40297142  0.47560040
   0.51039973  0.55073689  0.49786750
   0.59871636  0.57656939  0.52831973
   0.60221919  0.56527608  0.47030104
   0.56413704  0.60685176  0.49021955
   0.39050601  0.50244721  0.50602311
   0.44047023  0.51122371  0.50604388
   0.51429674  0.46391723  0.51279288
   0.52087990  0.43224801  0.47294128
   0.55249000  0.49903086  0.51162909
   0.57916887  0.57428202  0.49738033
   0.46604375  0.47530483  0.51679395
   0.54358429  0.54160856  0.50125320
   0.45472331  0.54880145  0.49610122
   0.59054320  0.48439895  0.51876210
Direct configuration=    10
   0.37353528  0.53363357  0.49795152
   0.38213224  0.47729428  0.48070074
   0.37856814  0.49028680  0.53853590
   0.44764719  0.44765165  0.52355203
   0.52205452  0.44527567  0.54348961
   0.55554420  0.42079090  0.47265886
   0.51363417  0.44950010  0.44134434
   0.49881956  0.40308614  0.47553120
   0.51026973  0.55072761  0.49775151
   0.59861780  0.57643315  0.52842090
   0.60231313  0.56515602  0.47038210
   0.56422226  0.60680622  0.49014432
   0.39059419  0.50241066  0.50609078
   0.44047754  0.51120911  0.50586019
   0.51431074  0.46390148  0.51283319
   0.52083862  0.43234259  0.47295549
   0.55240516  0.49907509  0.51173584
   0.57909364  0.57418798  0.49739382
   0.46609378  0.47532515  0.51682775
   0.54354830  0.54163806  0.50123756
   0.45478789  0.54884528  0.49558704
   0.59049046  0.48442342  0.51901436
Direct configuration=    11
   0.37342313  0.53350082  0.49813957
   0.38216635  0.47722762  0.48084928
   0.37893195  0.49014952  0.53868864
   0.44769422  0.44769893  0.52342785
   0.52201145  0.44521079  0.54356618
   0.55551785  0.42089004  0.47250824
   0.51353569  0.44976281  0.44139855
   0.49874369  0.40325456  0.47541342
   0.51019327  0.55072485  0.49749959
   0.59845301  0.57629855  0.52853235
   0.60246758  0.56500788  0.47053158
   0.56433809  0.60673325  0.48996896
   0.39068509  0.50235709  0.50617712
   0.44059331  0.51131715  0.50557226
   0.51428107  0.46391213  0.51289015
   0.52081447  0.43248989  0.47293899
   0.55232951  0.49907236  0.51192871
   0.57906960  0.57407003  0.49741276
   0.46620929  0.47548806  0.51686820
   0.54347969  0.54164856  0.50121229
   0.45474896  0.54872857  0.49506369
   0.59031126  0.48445750  0.51941063
Direct configuration=    12
   0.37328900  0.53333821  0.49835956
   0.38215924  0.47713132  0.48101601
   0.37933094  0.48998808  0.53887545
   0.44782455  0.44781700  0.52334969
   0.52191722  0.44505602  0.54359734
   0.55547565  0.42104184  0.47227227
   0.51344855  0.45014842  0.44147120
   0.49867589  0.40349578  0.47522265
   0.51023932  0.55071649  0.49707319
   0.59820165  0.57619147  0.52866107
   0.60268986  0.56479624  0.47078397
   0.56450150  0.60660035  0.48966934
   0.39079663  0.50230460  0.50627732
   0.44061404  0.51113313  0.50533066
   0.51425852  0.46395556  0.51301706
   0.52081091  0.43268910  0.47284600
   0.55211146  0.49911360  0.51218699
   0.57915624  0.57399061  0.49741477
   0.46625250  0.47564941  0.51695198
   0.54333362  0.54152739  0.50116704
   0.45475310  0.54884535  0.49440470
   0.59015808  0.48447098  0.52005068
Direct configuration=    13
   0.37316564  0.53315633  0.49861923
   0.38209109  0.47700393  0.48120820
   0.37976989  0.48981297  0.53907949
   0.44798263  0.44794937  0.52337159
   0.52175381  0.44481911  0.54356690
   0.55543737  0.42126049  0.47195425
   0.51337555  0.45069963  0.44151858
   0.49862120  0.40381151  0.47494172
   0.51021823  0.55071975  0.49643671
   0.59789813  0.57614577  0.52887228
   0.60302688  0.56446165  0.47110248
   0.56470548  0.60641589  0.48924023
   0.39085514  0.50216939  0.50638969
   0.44078804  0.51175075  0.50489097
   0.51425200  0.46399306  0.51314076
   0.52076925  0.43297842  0.47274740
   0.55211869  0.49897177  0.51263010
   0.57912935  0.57380228  0.49741517
   0.46631746  0.47563706  0.51709937
   0.54349024  0.54150711  0.50104926
   0.45449256  0.54832386  0.49382391
   0.58973981  0.48461087  0.52090052
Direct configuration=    14
   0.37315790  0.53315050  0.49862923
   0.38208393  0.47699879  0.48120421
   0.37978815  0.48981384  0.53908353
   0.44793788  0.44791269  0.52339679
   0.52175477  0.44481550  0.54356095
   0.55543211  0.42125811  0.47195161
   0.51337750  0.45069998  0.44151870
   0.49861985  0.40380865  0.47494944
   0.51031402  0.55069637  0.49643621
   0.59790382  0.57615947  0.52886738
   0.60301494  0.56446002  0.47110940
   0.56470573  0.60641239  0.48925561
   0.39085914  0.50219718  0.50638015
   0.44059310  0.51113903  0.50507690
   0.51422704  0.46395845  0.51312823
   0.52078515  0.43298401  0.47275216
   0.55195935  0.49908485  0.51258184
   0.57916333  0.57381696  0.49742350
   0.46633337  0.47580276  0.51705436
   0.54338628  0.54147536  0.50105178
   0.45468319  0.54880308  0.49365668
   0.58991788  0.48455295  0.52093015
Direct configuration=    15
   0.37315888  0.53315123  0.49863122
   0.38208056  0.47699770  0.48120412
   0.37979050  0.48981363  0.53908390
   0.44793944  0.44791631  0.52340153
   0.52175288  0.44481500  0.54355957
   0.55543180  0.42125857  0.47195172
   0.51337830  0.45070082  0.44151903
   0.49862020  0.40380879  0.47495034
   0.51031412  0.55069563  0.49643239
   0.59790503  0.57616220  0.52886771
   0.60301326  0.56445808  0.47111076
   0.56470564  0.60641151  0.48925828
   0.39085562  0.50219363  0.50638081
   0.44061087  0.51119063  0.50506151
   0.51422832  0.46396040  0.51312445
   0.52078365  0.43298476  0.47275155
   0.55197364  0.49908316  0.51258392
   0.57916406  0.57381610  0.49742547
   0.46632858  0.47579140  0.51705583
   0.54338873  0.54147431  0.50105289
   0.45466592  0.54875843  0.49366418
   0.58990844  0.48455869  0.52092765
Direct configuration=    16
   0.37316053  0.53315243  0.49863534
   0.38207386  0.47699549  0.48120393
   0.37979538  0.48981317  0.53908482
   0.44794148  0.44792272  0.52341136
   0.52174918  0.44481391  0.54355662
   0.55543108  0.42125953  0.47195175
   0.51337987  0.45070269  0.44151955
   0.49862086  0.40380913  0.47495202
   0.51031551  0.55069384  0.49642464
   0.59790744  0.57616781  0.52886852
   0.60301006  0.56445405  0.47111354
   0.56470553  0.60640968  0.48926350
   0.39084916  0.50218733  0.50638190
   0.44064069  0.51127814  0.50503527
   0.51423032  0.46396372  0.51311731
   0.52078109  0.43298628  0.47275021
   0.55199851  0.49908075  0.51258746
   0.57916552  0.57381456  0.49742934
   0.46631990  0.47577244  0.51705793
   0.54339296  0.54147253  0.50105493
   0.45463642  0.54868178  0.49367518
   0.58989309  0.48456900  0.52092369
Direct configuration=    17
   0.37316218  0.53315398  0.49864260
   0.38206275  0.47699175  0.48120353
   0.37980412  0.48981230  0.53908699
   0.44794154  0.44793107  0.52342875
   0.52174326  0.44481218  0.54355093
   0.55542961  0.42126110  0.47195147
   0.51338241  0.45070599  0.44152001
   0.49862186  0.40380978  0.47495484
   0.51032154  0.55068998  0.49641162
   0.59791172  0.57617750  0.52887021
   0.60300479  0.56444715  0.47111823
   0.56470546  0.60640653  0.48927244
   0.39084052  0.50217961  0.50638281
   0.44067178  0.51137117  0.50500676
   0.51423191  0.46396743  0.51310667
   0.52077811  0.43298871  0.47274799
   0.55202777  0.49907934  0.51259115
   0.57916783  0.57381257  0.49743571
   0.46630839  0.47575319  0.51705838
   0.54339810  0.54147090  0.50105811
   0.45460393  0.54859586  0.49368015
   0.58987883  0.48458290  0.52091948
Direct configuration=    18
   0.37316204  0.53315399  0.49864312
   0.38206209  0.47699152  0.48120350
   0.37980476  0.48981221  0.53908727
   0.44794088  0.44793111  0.52343001
   0.52174295  0.44481210  0.54355040
   0.55542949  0.42126119  0.47195137
   0.51338255  0.45070624  0.44151994
   0.49862191  0.40380986  0.47495500
   0.51032261  0.55068958  0.49641078
   0.59791203  0.57617816  0.52887040
   0.60300452  0.56444668  0.47111852
   0.56470549  0.60640632  0.48927300
   0.39084047  0.50217972  0.50638269
   0.44066960  0.51136555  0.50500825
   0.51423166  0.46396730  0.51310631
   0.52077817  0.43298884  0.47274784
   0.55202693  0.49907973  0.51259091
   0.57916794  0.57381257  0.49743607
   0.46630837  0.47575451  0.51705780
   0.54339809  0.54147109  0.50105827
   0.45460554  0.54859962  0.49367759
   0.58988035  0.48458306  0.52091977
Direct configuration=    19
   0.37316177  0.53315402  0.49864415
   0.38206077  0.47699105  0.48120344
   0.37980605  0.48981204  0.53908782
   0.44793958  0.44793123  0.52343256
   0.52174231  0.44481191  0.54354936
   0.55542923  0.42126140  0.47195118
   0.51338282  0.45070678  0.44151979
   0.49862201  0.40381002  0.47495530
   0.51032471  0.55068877  0.49640909
   0.59791263  0.57617947  0.52887080
   0.60300400  0.56444573  0.47111913
   0.56470554  0.60640591  0.48927410
   0.39084035  0.50217993  0.50638245
   0.44066540  0.51135475  0.50501109
   0.51423117  0.46396707  0.51310559
   0.52077829  0.43298911  0.47274755
   0.55202533  0.49908048  0.51259047
   0.57916815  0.57381256  0.49743679
   0.46630831  0.47575704  0.51705667
   0.54339811  0.54147146  0.50105857
   0.45460861  0.54860680  0.49367255
   0.58988329  0.48458341  0.52092036
Direct configuration=    20
   0.37316137  0.53315408  0.49864573
   0.38205875  0.47699035  0.48120336
   0.37980798  0.48981177  0.53908866
   0.44793770  0.44793149  0.52343643
   0.52174134  0.44481162  0.54354778
   0.55542886  0.42126171  0.47195089
   0.51338323  0.45070761  0.44151957
   0.49862215  0.40381027  0.47495573
   0.51032778  0.55068758  0.49640648
   0.59791352  0.57618146  0.52887140
   0.60300323  0.56444427  0.47112005
   0.56470563  0.60640528  0.48927575
   0.39084013  0.50218018  0.50638211
   0.44065947  0.51133965  0.50501501
   0.51423047  0.46396678  0.51310450
   0.52077843  0.43298954  0.47274709
   0.55202315  0.49908155  0.51258987
   0.57916848  0.57381253  0.49743787
   0.46630816  0.47576058  0.51705504
   0.54339823  0.54147198  0.50105903
   0.45461285  0.54861665  0.49366523
   0.58988752  0.48458401  0.52092126
Direct configuration=    21
   0.37316085  0.53315417  0.49864787
   0.38205597  0.47698939  0.48120328
   0.37981059  0.48981140  0.53908979
   0.44793527  0.44793197  0.52344172
   0.52173997  0.44481121  0.54354562
   0.55542836  0.42126217  0.47195048
   0.51338380  0.45070879  0.44151925
   0.49862236  0.40381063  0.47495629
   0.51033174  0.55068600  0.49640286
   0.59791472  0.57618419  0.52887225
   0.60300221  0.56444225  0.47112133
   0.56470573  0.60640443  0.48927795
   0.39083974  0.50218039  0.50638169
   0.44065224  0.51132152  0.50501956
   0.51422960  0.46396648  0.51310299
   0.52077858  0.43299014  0.47274643
   0.55202068  0.49908288  0.51258917
   0.57916895  0.57381247  0.49743936
   0.46630786  0.47576479  0.51705297
   0.54339855  0.54147262  0.50105969
   0.45461786  0.54862810  0.49365581
   0.58989281  0.48458498  0.52092245
Direct configuration=    22
   0.37316024  0.53315432  0.49865069
   0.38205228  0.47698816  0.48120322
   0.37981397  0.48981089  0.53909127
   0.44793236  0.44793285  0.52344868
   0.52173812  0.44481063  0.54354281
   0.55542773  0.42126281  0.47194995
   0.51338454  0.45071038  0.44151882
   0.49862263  0.40381113  0.47495696
   0.51033657  0.55068399  0.49639800
   0.59791627  0.57618775  0.52887338
   0.60300095  0.56443956  0.47112304
   0.56470587  0.60640333  0.48928076
   0.39083906  0.50218042  0.50638124
   0.44064428  0.51130215  0.50502412
   0.51422860  0.46396628  0.51310099
   0.52077865  0.43299095  0.47274550
   0.55201830  0.49908441  0.51258845
   0.57916957  0.57381235  0.49744130
   0.46630729  0.47576920  0.51705057
   0.54339925  0.54147331  0.50106060
   0.45462301  0.54863959  0.49364450
   0.58989889  0.48458649  0.52092398
Direct configuration=    23
   0.37315954  0.53315454  0.49865427
   0.38204755  0.47698663  0.48120323
   0.37981815  0.48981021  0.53909311
   0.44792909  0.44793433  0.52345751
   0.52173570  0.44480986  0.54353927
   0.55542697  0.42126370  0.47194926
   0.51338549  0.45071248  0.44151824
   0.49862299  0.40381182  0.47495770
   0.51034210  0.55068158  0.49639167
   0.59791817  0.57619226  0.52887487
   0.60299947  0.56443610  0.47112525
   0.56470604  0.60640196  0.48928419
   0.39083796  0.50218008  0.50638081
   0.44063646  0.51128420  0.50502778
   0.51422753  0.46396630  0.51309845
   0.52077860  0.43299202  0.47274424
   0.55201662  0.49908600  0.51258785
   0.57917040  0.57381215  0.49744375
   0.46630632  0.47577310  0.51704798
   0.54340055  0.54147399  0.50106181
   0.45462745  0.54864888  0.49363173
   0.58990530  0.48458875  0.52092586
Direct configuration=    24
   0.37315873  0.53315488  0.49865892
   0.38204132  0.47698469  0.48120333
   0.37982347  0.48980931  0.53909547
   0.44792534  0.44793668  0.52346901
   0.52173247  0.44480879  0.54353471
   0.55542603  0.42126493  0.47194833
   0.51338672  0.45071533  0.44151745
   0.49862346  0.40381279  0.47495853
   0.51034856  0.55067860  0.49638324
   0.59792057  0.57619811  0.52887688
   0.60299772  0.56443153  0.47112817
   0.56470625  0.60640021  0.48928845
   0.39083623  0.50217918  0.50638044
   0.44062903  0.51126889  0.50502994
   0.51422640  0.46396666  0.51309515
   0.52077835  0.43299346  0.47274248
   0.55201605  0.49908764  0.51258749
   0.57917154  0.57381184  0.49744693
   0.46630475  0.47577613  0.51704519
   0.54340272  0.54147460  0.50106346
   0.45463068  0.54865458  0.49361700
   0.58991204  0.48459212  0.52092824
Direct configuration=    25
   0.37315784  0.53315533  0.49866466
   0.38203358  0.47698236  0.48120359
   0.37982989  0.48980814  0.53909836
   0.44792128  0.44794005  0.52348324
   0.52172840  0.44480740  0.54352914
   0.55542494  0.42126657  0.47194716
   0.51338822  0.45071900  0.44151640
   0.49862403  0.40381407  0.47495936
   0.51035572  0.55067509  0.49637259
   0.59792342  0.57620528  0.52887943
   0.60299579  0.56442581  0.47113183
   0.56470651  0.60639811  0.48929346
   0.39083376  0.50217758  0.50638019
   0.44062287  0.51125873  0.50502973
   0.51422530  0.46396748  0.51309113
   0.52077784  0.43299528  0.47274020
   0.55201716  0.49908915  0.51258750
   0.57917303  0.57381139  0.49745081
   0.46630250  0.47577763  0.51704241
   0.54340592  0.54147507  0.50106557
   0.45463191  0.54865471  0.49360089
   0.58991855  0.48459670  0.52093118
Direct configuration=    26
   0.37315684  0.53315589  0.49867157
   0.38202418  0.47697965  0.48120408
   0.37983743  0.48980668  0.53910183
   0.44791700  0.44794461  0.52350044
   0.52172340  0.44480560  0.54352248
   0.55542371  0.42126870  0.47194566
   0.51339002  0.45072362  0.44151504
   0.49862472  0.40381575  0.47496009
   0.51036344  0.55067106  0.49635944
   0.59792672  0.57621388  0.52888262
   0.60299380  0.56441883  0.47113634
   0.56470681  0.60639564  0.48929912
   0.39083044  0.50217512  0.50638015
   0.44061868  0.51125579  0.50502632
   0.51422426  0.46396886  0.51308636
   0.52077702  0.43299757  0.47273728
   0.55202046  0.49909036  0.51258810
   0.57917496  0.57381081  0.49745544
   0.46629946  0.47577706  0.51703980
   0.54341027  0.54147531  0.50106818
   0.45463045  0.54864750  0.49358364
   0.58992436  0.48460266  0.52093481
Direct configuration=    27
   0.37315569  0.53315656  0.49867988
   0.38201284  0.47697654  0.48120491
   0.37984623  0.48980482  0.53910600
   0.44791253  0.44795054  0.52352119
   0.52171732  0.44480328  0.54351457
   0.55542233  0.42127147  0.47194374
   0.51339213  0.45072946  0.44151324
   0.49862553  0.40381796  0.47496057
   0.51037173  0.55066642  0.49634327
   0.59793046  0.57622412  0.52888663
   0.60299193  0.56441033  0.47114187
   0.56470720  0.60639278  0.48930538
   0.39082614  0.50217166  0.50638038
   0.44061689  0.51126137  0.50501898
   0.51422332  0.46397089  0.51308083
   0.52077587  0.43300045  0.47273360
   0.55202642  0.49909112  0.51258949
   0.57917749  0.57381009  0.49746090
   0.46629554  0.47577404  0.51703746
   0.54341591  0.54147528  0.50107137
   0.45462580  0.54863162  0.49356509
   0.58992914  0.48461017  0.52093948
Direct configuration=    28
   0.37315423  0.53315728  0.49868995
   0.38199909  0.47697298  0.48120623
   0.37985654  0.48980243  0.53911111
   0.44790770  0.44795806  0.52354651
   0.52170993  0.44480021  0.54350510
   0.55542081  0.42127512  0.47194118
   0.51339462  0.45073698  0.44151077
   0.49862646  0.40382091  0.47496054
   0.51038083  0.55066100  0.49632316
   0.59793468  0.57623639  0.52889173
   0.60299046  0.56439988  0.47114874
   0.56470771  0.60638945  0.48931209
   0.39082069  0.50216708  0.50638098
   0.44061741  0.51127509  0.50500722
   0.51422241  0.46397364  0.51307450
   0.52077440  0.43300416  0.47272888
   0.55203528  0.49909128  0.51259197
   0.57918087  0.57380922  0.49746740
   0.46629064  0.47576864  0.51703544
   0.54342291  0.54147493  0.50107524
   0.45461788  0.54860677  0.49354423
   0.58993288  0.48461944  0.52094586
Direct configuration=    29
   0.37315214  0.53315794  0.49870246
   0.38198210  0.47696890  0.48120836
   0.37986885  0.48979925  0.53911761
   0.44790207  0.44796732  0.52357823
   0.52170085  0.44479598  0.54349353
   0.55541913  0.42128012  0.47193755
   0.51339757  0.45074698  0.44150724
   0.49862750  0.40382504  0.47495950
   0.51039147  0.55065438  0.49629757
   0.59793941  0.57625138  0.52889846
   0.60298995  0.56438676  0.47115752
   0.56470847  0.60638551  0.48931903
   0.39081395  0.50216130  0.50638209
   0.44061884  0.51129263  0.50499129
   0.51422133  0.46397702  0.51306733
   0.52077268  0.43300926  0.47272270
   0.55204665  0.49909084  0.51259594
   0.57918555  0.57380828  0.49747518
   0.46628480  0.47576190  0.51703355
   0.54343114  0.54147435  0.50107990
   0.45460775  0.54857532  0.49351842
   0.58993625  0.48463051  0.52095535
Direct configuration=    30
   0.37314892  0.53315832  0.49871799
   0.38196127  0.47696428  0.48121162
   0.37988349  0.48979500  0.53912597
   0.44789495  0.44797805  0.52361801
   0.52168991  0.44479014  0.54347949
   0.55541732  0.42128692  0.47193238
   0.51340099  0.45076028  0.44150219
   0.49862861  0.40383081  0.47495680
   0.51040467  0.55064614  0.49626516
   0.59794453  0.57626960  0.52890736
   0.60299121  0.56437038  0.47116880
   0.56470968  0.60638084  0.48932565
   0.39080615  0.50215476  0.50638375
   0.44061767  0.51130305  0.50497342
   0.51421967  0.46398063  0.51305950
   0.52077095  0.43301628  0.47271463
   0.55205846  0.49909015  0.51260160
   0.57919195  0.57380736  0.49748435
   0.46627844  0.47575653  0.51703135
   0.54343999  0.54147372  0.50108538
   0.45459851  0.54854497  0.49348365
   0.58994109  0.48464275  0.52096977
Direct configuration=    31
   0.37314423  0.53315817  0.49873671
   0.38193651  0.47695921  0.48121623
   0.37990040  0.48978953  0.53913644
   0.44788598  0.44798986  0.52366640
   0.52167721  0.44478230  0.54346306
   0.55541544  0.42129582  0.47192528
   0.51340483  0.45077736  0.44149537
   0.49862973  0.40383857  0.47495181
   0.51042102  0.55063604  0.49622547
   0.59794976  0.57629105  0.52891869
   0.60299503  0.56435057  0.47118286
   0.56471155  0.60637539  0.48933119
   0.39079778  0.50214810  0.50638599
   0.44061070  0.51129631  0.50495606
   0.51421711  0.46398396  0.51305127
   0.52076949  0.43302561  0.47270452
   0.55206811  0.49908987  0.51260898
   0.57920019  0.57380654  0.49749473
   0.46627212  0.47575503  0.51702853
   0.54344885  0.54147317  0.50109157
   0.45459319  0.54852335  0.49343698
   0.58994922  0.48465515  0.52099066
Direct configuration=    32
   0.37313760  0.53315720  0.49875915
   0.38190721  0.47695373  0.48122264
   0.37991966  0.48978249  0.53914943
   0.44787517  0.44800289  0.52372493
   0.52166265  0.44477176  0.54344417
   0.55541359  0.42130749  0.47191561
   0.51340907  0.45079922  0.44148631
   0.49863082  0.40384900  0.47494339
   0.51044078  0.55062374  0.49617703
   0.59795469  0.57631605  0.52893304
   0.60300268  0.56432680  0.47120047
   0.56471448  0.60636894  0.48933447
   0.39078901  0.50214152  0.50638908
   0.44059655  0.51126817  0.50493944
   0.51421345  0.46398671  0.51304272
   0.52076837  0.43303799  0.47269180
   0.55207389  0.49909055  0.51261867
   0.57921054  0.57380580  0.49750632
   0.46626616  0.47575834  0.51702536
   0.54345771  0.54147257  0.50109849
   0.45459288  0.54851301  0.49337587
   0.58996147  0.48466701  0.52102042
Direct configuration=    33
   0.37312844  0.53315500  0.49878644
   0.38187185  0.47694787  0.48123180
   0.37994149  0.48977322  0.53916567
   0.44786339  0.44801838  0.52379674
   0.52164569  0.44475707  0.54342262
   0.55541195  0.42132327  0.47190212
   0.51341375  0.45082787  0.44147418
   0.49863185  0.40386347  0.47492935
   0.51046344  0.55060874  0.49611662
   0.59795848  0.57634532  0.52895149
   0.60301653  0.56429781  0.47122322
   0.56471922  0.60636099  0.48933336
   0.39077953  0.50213439  0.50639377
   0.44057771  0.51122640  0.50491924
   0.51420880  0.46398893  0.51303373
   0.52076769  0.43305516  0.47267522
   0.55207632  0.49909233  0.51263253
   0.57922353  0.57380481  0.49751927
   0.46626039  0.47576422  0.51702323
   0.54346765  0.54147137  0.50110639
   0.45459470  0.54850619  0.49329880
   0.58997604  0.48467814  0.52106302
Direct configuration=    34
   0.37311654  0.53315133  0.49881939
   0.38182913  0.47694180  0.48124469
   0.37996578  0.48976117  0.53918548
   0.44785288  0.44803836  0.52388418
   0.52162598  0.44473683  0.54339859
   0.55541078  0.42134463  0.47188356
   0.51341890  0.45086527  0.44145833
   0.49863290  0.40388354  0.47490716
   0.51048712  0.55059093  0.49604144
   0.59795995  0.57637922  0.52897480
   0.60303901  0.56426277  0.47125281
   0.56472676  0.60635097  0.48932524
   0.39076840  0.50212508  0.50640121
   0.44056219  0.51119619  0.50488634
   0.51420398  0.46399140  0.51302388
   0.52076698  0.43307826  0.47265364
   0.55208031  0.49909408  0.51265357
   0.57923923  0.57380291  0.49753372
   0.46625391  0.47576615  0.51702475
   0.54348060  0.54146891  0.50111542
   0.45459061  0.54848159  0.49320892
   0.58998648  0.48468959  0.52112167
Direct configuration=    35
   0.37310164  0.53314586  0.49885866
   0.38177814  0.47693574  0.48126218
   0.37999246  0.48974599  0.53920901
   0.44784545  0.44806400  0.52398904
   0.52160353  0.44470992  0.54337231
   0.55541024  0.42137287  0.47185875
   0.51342452  0.45091297  0.44143835
   0.49863411  0.40391072  0.47487438
   0.51051100  0.55056996  0.49594964
   0.59795765  0.57641775  0.52900329