   6   6   0   0
  0.4500000E+04  0.3000000E-08  0.3000000E-08  0.3000000E-08  0.0000000E+00
  1.000000000000000E-004
  CAR 
 unknown system                          
      2.02454083    -24.64702594  301     -6.95453936      1.00000000
    -24.647  0.0000E+00  0.0000E+00
    -24.558  0.0000E+00  0.0000E+00
    -24.469  0.0000E+00  0.0000E+00
    -24.380  0.0000E+00  0.0000E+00
    -24.291  0.0000E+00  0.0000E+00
    -24.202  0.0000E+00  0.0000E+00
    -24.114  0.0000E+00  0.0000E+00
    -24.025  0.0000E+00  0.0000E+00
    -23.936  0.0000E+00  0.0000E+00
    -23.847  0.0000E+00  0.0000E+00
    -23.758  0.1499E-15  0.1332E-16
    -23.669  0.1837E-13  0.1647E-14
    -23.580  0.1541E-11  0.1386E-12
    -23.491  0.8760E-10  0.7926E-11
    -23.402  0.3377E-08  0.3082E-09
    -23.313  0.8836E-07  0.8164E-08
    -23.225  0.1570E-05  0.1478E-06
    -23.136  0.1897E-04  0.1834E-05
    -23.047  0.1559E-03  0.1569E-04
    -22.958  0.8722E-03  0.9323E-04
    -22.869  0.3324E-02  0.3888E-03
    -22.780  0.8638E-02  0.1157E-02
    -22.691  0.1531E-01  0.2517E-02
    -22.602  0.1850E-01  0.4162E-02
    -22.513  0.1526E-01  0.5519E-02
    -22.424  0.8583E-02  0.6282E-02
    -22.335  0.3293E-02  0.6575E-02
    -22.247  0.8612E-03  0.6651E-02
    -22.158  0.1534E-03  0.6665E-02
    -22.069  0.1861E-04  0.6667E-02
    -21.980  0.1536E-05  0.6667E-02
    -21.891  0.8615E-07  0.6667E-02
    -21.802  0.3282E-08  0.6667E-02
    -21.713  0.8486E-10  0.6667E-02
    -21.624  0.1488E-11  0.6667E-02
    -21.535  0.1769E-13  0.6667E-02
    -21.446  0.1415E-15  0.6667E-02
    -21.358  0.0000E+00  0.6667E-02
    -21.269  0.0000E+00  0.6667E-02
    -21.180  0.0000E+00  0.6667E-02
    -21.091  0.0000E+00  0.6667E-02
    -21.002  0.0000E+00  0.6667E-02
    -20.913  0.0000E+00  0.6667E-02
    -20.824  0.0000E+00  0.6667E-02
    -20.735  0.0000E+00  0.6667E-02
    -20.646  0.0000E+00  0.6667E-02
    -20.557  0.0000E+00  0.6667E-02
    -20.468  0.4163E-17  0.6667E-02
    -20.380  0.7160E-15  0.6667E-02
    -20.291  0.7845E-13  0.6667E-02
    -20.202  0.5813E-11  0.6667E-02
    -20.113  0.2920E-09  0.6667E-02
    -20.024  0.9951E-08  0.6667E-02
    -19.935  0.2302E-06  0.6667E-02
    -19.846  0.3618E-05  0.6667E-02
    -19.757  0.3866E-04  0.6670E-02
    -19.668  0.2811E-03  0.6695E-02
    -19.579  0.1392E-02  0.6819E-02
    -19.491  0.4696E-02  0.7237E-02
    -19.402  0.1080E-01  0.8197E-02
    -19.313  0.1695E-01  0.9704E-02
    -19.224  0.1814E-01  0.1132E-01
    -19.135  0.1324E-01  0.1249E-01
    -19.046  0.6596E-02  0.1308E-01
    -18.957  0.2240E-02  0.1328E-01
    -18.868  0.5186E-03  0.1333E-01
    -18.779  0.8177E-04  0.1333E-01
    -18.690  0.8775E-05  0.1333E-01
    -18.601  0.6404E-06  0.1333E-01
    -18.513  0.3176E-07  0.1333E-01
    -18.424  0.1070E-08  0.1333E-01
    -18.335  0.2445E-10  0.1333E-01
    -18.246  0.3788E-12  0.1333E-01
    -18.157  0.3971E-14  0.1333E-01
    -18.068  0.3330E-16  0.1333E-01
    -17.979  0.0000E+00  0.1333E-01
    -17.890  0.0000E+00  0.1333E-01
    -17.801  0.0000E+00  0.1333E-01
    -17.712  0.0000E+00  0.1333E-01
    -17.624  0.0000E+00  0.1333E-01
    -17.535  0.0000E+00  0.1333E-01
    -17.446  0.0000E+00  0.1333E-01
    -17.357  0.0000E+00  0.1333E-01
    -17.268  0.0000E+00  0.1333E-01
    -17.179  0.0000E+00  0.1333E-01
    -17.090  0.0000E+00  0.1333E-01
    -17.001  0.0000E+00  0.1333E-01
    -16.912  0.0000E+00  0.1333E-01
    -16.823  0.0000E+00  0.1333E-01
    -16.734  0.0000E+00  0.1333E-01
    -16.646  0.0000E+00  0.1333E-01
    -16.557  0.0000E+00  0.1333E-01
    -16.468  0.0000E+00  0.1333E-01
    -16.379  0.0000E+00  0.1333E-01
    -16.290  0.0000E+00  0.1333E-01
    -16.201  0.0000E+00  0.1333E-01
    -16.112  0.0000E+00  0.1333E-01
    -16.023  0.0000E+00  0.1333E-01
    -15.934  0.0000E+00  0.1333E-01
    -15.845  0.0000E+00  0.1333E-01
    -15.757  0.0000E+00  0.1333E-01
    -15.668  0.0000E+00  0.1333E-01
    -15.579  0.0000E+00  0.1333E-01
    -15.490  0.0000E+00  0.1333E-01
    -15.401  0.0000E+00  0.1333E-01
    -15.312  0.0000E+00  0.1333E-01
    -15.223  0.0000E+00  0.1333E-01
    -15.134  0.0000E+00  0.1333E-01
    -15.045  0.0000E+00  0.1333E-01
    -14.956  0.0000E+00  0.1333E-01
    -14.867  0.0000E+00  0.1333E-01
    -14.779  0.0000E+00  0.1333E-01
    -14.690  0.0000E+00  0.1333E-01
    -14.601  0.0000E+00  0.1333E-01
    -14.512  0.0000E+00  0.1333E-01
    -14.423  0.0000E+00  0.1333E-01
    -14.334  0.0000E+00  0.1333E-01
    -14.245  0.0000E+00  0.1333E-01
    -14.156  0.0000E+00  0.1333E-01
    -14.067  0.0000E+00  0.1333E-01
    -13.978  0.0000E+00  0.1333E-01
    -13.889  0.0000E+00  0.1333E-01
    -13.801  0.8325E-17  0.1333E-01
    -13.712  0.1311E-14  0.1333E-01
    -13.623  0.1365E-12  0.1333E-01
    -13.534  0.9641E-11  0.1333E-01
    -13.445  0.4616E-09  0.1333E-01
    -13.356  0.1499E-07  0.1333E-01
    -13.267  0.3306E-06  0.1333E-01
    -13.178  0.4953E-05  0.1333E-01
    -13.089  0.5046E-04  0.1334E-01
    -13.000  0.3499E-03  0.1337E-01
    -12.912  0.1652E-02  0.1352E-01
    -12.823  0.5315E-02  0.1399E-01
    -12.734  0.1166E-01  0.1503E-01
    -12.645  0.1745E-01  0.1658E-01
    -12.556  0.1781E-01  0.1816E-01
    -12.467  0.1240E-01  0.1926E-01
    -12.378  0.5892E-02  0.1979E-01
    -12.289  0.1909E-02  0.1996E-01
    -12.200  0.4215E-03  0.1999E-01
    -12.111  0.6645E-04  0.2000E-01
    -12.022  0.4162E-04  0.2000E-01
    -11.934  0.2737E-03  0.2003E-01
    -11.845  0.1469E-02  0.2016E-01
    -11.756  0.5497E-02  0.2065E-01
    -11.667  0.1440E-01  0.2193E-01
    -11.578  0.2656E-01  0.2429E-01
    -11.489  0.3468E-01  0.2737E-01
    -11.400  0.3213E-01  0.3023E-01
    -11.311  0.2110E-01  0.3210E-01
    -11.222  0.9789E-02  0.3297E-01
    -11.133  0.3191E-02  0.3326E-01
    -11.045  0.7260E-03  0.3332E-01
    -10.956  0.1146E-03  0.3333E-01
    -10.867  0.1248E-04  0.3333E-01
    -10.778  0.9337E-06  0.3333E-01
    -10.689  0.4779E-07  0.3333E-01
    -10.600  0.1669E-08  0.3333E-01
    -10.511  0.3968E-10  0.3333E-01
    -10.422  0.6411E-12  0.3333E-01
    -10.333  0.7035E-14  0.3333E-01
    -10.244  0.4995E-16  0.3333E-01
    -10.155  0.0000E+00  0.3333E-01
    -10.067  0.0000E+00  0.3333E-01
     -9.978  0.0000E+00  0.3333E-01
     -9.889  0.0000E+00  0.3333E-01
     -9.800  0.4163E-17  0.3333E-01
     -9.711  0.9283E-15  0.3333E-01
     -9.622  0.9944E-13  0.3333E-01
     -9.533  0.7219E-11  0.3333E-01
     -9.444  0.3553E-09  0.3333E-01
     -9.355  0.1186E-07  0.3333E-01
     -9.266  0.2688E-06  0.3333E-01
     -9.178  0.4140E-05  0.3333E-01
     -9.089  0.4334E-04  0.3334E-01
     -9.000  0.3088E-03  0.3337E-01
     -8.911  0.1498E-02  0.3350E-01
     -8.822  0.4954E-02  0.3394E-01
     -8.733  0.1117E-01  0.3493E-01
     -8.644  0.1718E-01  0.3646E-01
     -8.555  0.1808E-01  0.3807E-01
     -8.466  0.1334E-01  0.3925E-01
     -8.377  0.8319E-02  0.3999E-01
     -8.288  0.8348E-02  0.4073E-01
     -8.200  0.1395E-01  0.4197E-01
     -8.111  0.2110E-01  0.4385E-01
     -8.022  0.2554E-01  0.4612E-01
     -7.933  0.2633E-01  0.4846E-01
     -7.844  0.2360E-01  0.5056E-01
     -7.755  0.1717E-01  0.5209E-01
     -7.666  0.9314E-02  0.5291E-01
     -7.577  0.3576E-02  0.5323E-01
     -7.488  0.9495E-03  0.5332E-01
     -7.399  0.1727E-03  0.5333E-01
     -7.311  0.2142E-04  0.5333E-01
     -7.222  0.1809E-05  0.5333E-01
     -7.133  0.1039E-06  0.5333E-01
     -7.044  0.4051E-08  0.5333E-01
     -6.955  0.1073E-09  0.5333E-01
     -6.866  0.1926E-11  0.5333E-01
     -6.777  0.2343E-13  0.5333E-01
     -6.688  0.1998E-15  0.5333E-01
     -6.599  0.0000E+00  0.5333E-01
     -6.510  0.0000E+00  0.5333E-01
     -6.421  0.0000E+00  0.5333E-01
     -6.333  0.0000E+00  0.5333E-01
     -6.244  0.0000E+00  0.5333E-01
     -6.155  0.0000E+00  0.5333E-01
     -6.066  0.0000E+00  0.5333E-01
     -5.977  0.0000E+00  0.5333E-01
     -5.888  0.0000E+00  0.5333E-01
     -5.799  0.0000E+00  0.5333E-01
     -5.710  0.0000E+00  0.5333E-01
     -5.621  0.0000E+00  0.5333E-01
     -5.532  0.0000E+00  0.5333E-01
     -5.443  0.0000E+00  0.5333E-01
     -5.355  0.0000E+00  0.5333E-01
     -5.266  0.0000E+00  0.5333E-01
     -5.177  0.0000E+00  0.5333E-01
     -5.088  0.0000E+00  0.5333E-01
     -4.999  0.0000E+00  0.5333E-01
     -4.910  0.0000E+00  0.5333E-01
     -4.821  0.0000E+00  0.5333E-01
     -4.732  0.0000E+00  0.5333E-01
     -4.643  0.0000E+00  0.5333E-01
     -4.554  0.0000E+00  0.5333E-01
     -4.466  0.0000E+00  0.5333E-01
     -4.377  0.0000E+00  0.5333E-01
     -4.288  0.0000E+00  0.5333E-01
     -4.199  0.0000E+00  0.5333E-01
     -4.110  0.0000E+00  0.5333E-01
     -4.021  0.0000E+00  0.5333E-01
     -3.932  0.0000E+00  0.5333E-01
     -3.843  0.0000E+00  0.5333E-01
     -3.754  0.0000E+00  0.5333E-01
     -3.665  0.0000E+00  0.5333E-01
     -3.576  0.0000E+00  0.5333E-01
     -3.488  0.0000E+00  0.5333E-01
     -3.399  0.0000E+00  0.5333E-01
     -3.310  0.0000E+00  0.5333E-01
     -3.221  0.0000E+00  0.5333E-01
     -3.132  0.0000E+00  0.5333E-01
     -3.043  0.0000E+00  0.5333E-01
     -2.954  0.0000E+00  0.5333E-01
     -2.865  0.0000E+00  0.5333E-01
     -2.776  0.0000E+00  0.5333E-01
     -2.687  0.0000E+00  0.5333E-01
     -2.599  0.1249E-16  0.5333E-01
     -2.510  0.1578E-14  0.5333E-01
     -2.421  0.1623E-12  0.5333E-01
     -2.332  0.1129E-10  0.5333E-01
     -2.243  0.5324E-09  0.5333E-01
     -2.154  0.1703E-07  0.5333E-01
     -2.065  0.3700E-06  0.5333E-01
     -1.976  0.5461E-05  0.5333E-01
     -1.887  0.5480E-04  0.5334E-01
     -1.798  0.3743E-03  0.5337E-01
     -1.709  0.1741E-02  0.5353E-01
     -1.621  0.5519E-02  0.5402E-01
     -1.532  0.1193E-01  0.5508E-01
     -1.443  0.1759E-01  0.5664E-01
     -1.354  0.1769E-01  0.5821E-01
     -1.265  0.1214E-01  0.5929E-01
     -1.176  0.5680E-02  0.5980E-01
     -1.087  0.1813E-02  0.5996E-01
     -0.998  0.3986E-03  0.5999E-01
     -0.909  0.1091E-03  0.6000E-01
     -0.820  0.4022E-03  0.6004E-01
     -0.732  0.2110E-02  0.6023E-01
     -0.643  0.7657E-02  0.6091E-01
     -0.554  0.1895E-01  0.6259E-01
     -0.465  0.3201E-01  0.6544E-01
     -0.376  0.3702E-01  0.6873E-01
     -0.287  0.2987E-01  0.7139E-01
     -0.198  0.1890E-01  0.7307E-01
     -0.109  0.1437E-01  0.7435E-01
     -0.020  0.1676E-01  0.7583E-01
      0.069  0.1874E-01  0.7750E-01
      0.158  0.1525E-01  0.7886E-01
      0.246  0.8551E-02  0.7962E-01
      0.335  0.3274E-02  0.7991E-01
      0.424  0.8545E-03  0.7998E-01
      0.513  0.1519E-03  0.8000E-01
      0.602  0.1840E-04  0.8000E-01
      0.691  0.1515E-05  0.8000E-01
      0.780  0.8483E-07  0.8000E-01
      0.869  0.3226E-08  0.8000E-01
      0.958  0.8325E-10  0.8000E-01
      1.047  0.1457E-11  0.8000E-01
      1.135  0.1728E-13  0.8000E-01
      1.224  0.1415E-15  0.8000E-01
      1.313  0.0000E+00  0.8000E-01
      1.402  0.0000E+00  0.8000E-01
      1.491  0.0000E+00  0.8000E-01
      1.580  0.0000E+00  0.8000E-01
      1.669  0.0000E+00  0.8000E-01
      1.758  0.0000E+00  0.8000E-01
      1.847  0.0000E+00  0.8000E-01
      1.936  0.0000E+00  0.8000E-01
      2.025  0.0000E+00  0.8000E-01
