    6    6  300    1
  0.4500000E+04  0.3000000E-08  0.3000000E-08  0.3000000E-08  0.0000000E+00
  1.000000000000000E-004
  CAR 
 unknown system                          
     16      4     12
 
  0.2500000E+00  0.2500000E+00  0.2500000E+00  0.2500000E+00
    1      -22.647026   1.000000
    2      -19.296915   1.000000
    3      -12.640028   1.000000
    4      -11.555089   1.000000
    5      -11.462664   1.000000
    6       -8.632990   1.000000
    7       -8.119010   1.000000
    8       -7.883336   1.000000
    9       -1.441426   0.000000
   10       -0.436283   0.000000
   11       -0.427344   0.000000
   12        0.024541   0.000000
 
 -0.2500000E+00  0.2500000E+00  0.2500000E+00  0.2500000E+00
    1      -22.647024   1.000000
    2      -19.296917   1.000000
    3      -12.640028   1.000000
    4      -11.555091   1.000000
    5      -11.462661   1.000000
    6       -8.632981   1.000000
    7       -8.119004   1.000000
    8       -7.883329   1.000000
    9       -1.441435   0.000000
   10       -0.436291   0.000000
   11       -0.427356   0.000000
   12        0.021779   0.000000
 
  0.2500000E+00 -0.2500000E+00  0.2500000E+00  0.2500000E+00
    1      -22.647025   1.000000
    2      -19.296913   1.000000
    3      -12.640030   1.000000
    4      -11.555088   1.000000
    5      -11.462656   1.000000
    6       -8.632984   1.000000
    7       -8.119017   1.000000
    8       -7.883332   1.000000
    9       -1.441433   0.000000
   10       -0.436288   0.000000
   11       -0.427352   0.000000
   12        0.023882   0.000000
 
 -0.2500000E+00 -0.2500000E+00  0.2500000E+00  0.2500000E+00
    1      -22.647025   1.000000
    2      -19.296915   1.000000
    3      -12.640026   1.000000
    4      -11.555094   1.000000
    5      -11.462660   1.000000
    6       -8.632979   1.000000
    7       -8.119019   1.000000
    8       -7.883334   1.000000
    9       -1.441426   0.000000
   10       -0.436284   0.000000
   11       -0.427347   0.000000
   12        0.023164   0.000000
