 vasp.5.4.1 24Jun15 (build Jan 13 2020 12:58:22) complex                        
  
 executed on           IFC91_ompi date 2020.02.03  09:53:44
 running on   15 total cores
 each image running on    1 cores
 distrk:  each k-point on    1 cores,    1 groups
 distr:  one band on NCORES_PER_BAND=   1 cores,    1 groups


--------------------------------------------------------------------------------------------------------


 INCAR:
 POTCAR:    PAW_PBE H 15Jun2001                   
 POTCAR:    PAW_PBE C 08Apr2002                   
 POTCAR:    PAW_PBE N 08Apr2002                   
 POTCAR:    PAW_PBE H 15Jun2001                   
   VRHFIN =H: ultrasoft test                                                    
   LEXCH  = PE                                                                  
   EATOM  =    12.4884 eV,    0.9179 Ry                                         
                                                                                
   TITEL  = PAW_PBE H 15Jun2001                                                 
   LULTRA =        F    use ultrasoft PP ?                                      
   IUNSCR =        0    unscreen: 0-lin 1-nonlin 2-no                           
   RPACOR =    0.000    partial core radius                                     
   POMASS =    1.000; ZVAL   =    1.000    mass and valenz                      
   RCORE  =    1.100    outmost cutoff radius                                   
   RWIGS  =    0.700; RWIGS  =    0.370    wigner-seitz radius (au A)           
   ENMAX  =  250.000; ENMIN  =  200.000 eV                                      
   RCLOC  =    0.701    cutoff for local pot                                    
   LCOR   =        T    correct aug charges                                     
   LPAW   =        T    paw PP                                                  
   EAUG   =  400.000                                                            
   RMAX   =    1.123    core radius for proj-oper                               
   RAUG   =    1.200    factor for augmentation sphere                          
   RDEP   =    1.112    radius for radial grids                                 
   RDEPT  =    0.926    core radius for aug-charge                              
                                                                                
   Atomic configuration                                                         
    2 entries                                                                   
     n  l   j            E        occ.                                          
     1  0  0.50        -6.4927   1.0000                                         
     2  1  0.50        -3.4015   0.0000                                         
   Description                                                                  
     l       E           TYP  RCUT    TYP  RCUT                                 
     0     -6.4927494     23  1.100                                             
     0      6.8029130     23  1.100                                             
     1     -4.0817478     23  1.100                                             
  local pseudopotential read in
  atomic valenz-charges read in
  non local Contribution for L=           0  read in
    real space projection operators read in
  non local Contribution for L=           0  read in
    real space projection operators read in
  non local Contribution for L=           1  read in
    real space projection operators read in
    PAW grid and wavefunctions read in
 
   number of l-projection  operators is LMAX  =           3
   number of lm-projection operators is LMMAX =           5
 
 POTCAR:    PAW_PBE C 08Apr2002                   
   VRHFIN =C: s2p2                                                              
   LEXCH  = PE                                                                  
   EATOM  =   147.1560 eV,   10.8157 Ry                                         
                                                                                
   TITEL  = PAW_PBE C 08Apr2002                                                 
   LULTRA =        F    use ultrasoft PP ?                                      
   IUNSCR =        1    unscreen: 0-lin 1-nonlin 2-no                           
   RPACOR =    1.200    partial core radius                                     
   POMASS =   12.011; ZVAL   =    4.000    mass and valenz                      
   RCORE  =    1.500    outmost cutoff radius                                   
   RWIGS  =    1.630; RWIGS  =    0.863    wigner-seitz radius (au A)           
   ENMAX  =  400.000; ENMIN  =  300.000 eV                                      
   ICORE  =        2    local potential                                         
   LCOR   =        T    correct aug charges                                     
   LPAW   =        T    paw PP                                                  
   EAUG   =  644.873                                                            
   DEXC   =    0.000                                                            
   RMAX   =    1.529    core radius for proj-oper                               
   RAUG   =    1.300    factor for augmentation sphere                          
   RDEP   =    1.501    radius for radial grids                                 
   RDEPT  =    1.300    core radius for aug-charge                              
                                                                                
   Atomic configuration                                                         
    4 entries                                                                   
     n  l   j            E        occ.                                          
     1  0  0.50      -273.3789   2.0000                                         
     2  0  0.50       -13.7508   2.0000                                         
     2  1  0.50        -5.2854   2.0000                                         
     3  2  1.50        -5.4423   0.0000                                         
   Description                                                                  
     l       E           TYP  RCUT    TYP  RCUT                                 
     0    -13.7508458     23  1.200                                             
     0     -8.2022199     23  1.200                                             
     1     -5.2854383     23  1.500                                             
     1     34.0145650     23  1.500                                             
     2     -5.4423304      7  1.500                                             
  local pseudopotential read in
  partial core-charges read in
  partial kinetic energy density read in
  atomic valenz-charges read in
  non local Contribution for L=           0  read in
    real space projection operators read in
  non local Contribution for L=           0  read in
    real space projection operators read in
  non local Contribution for L=           1  read in
    real space projection operators read in
  non local Contribution for L=           1  read in
    real space projection operators read in
    PAW grid and wavefunctions read in
 
   number of l-projection  operators is LMAX  =           4
   number of lm-projection operators is LMMAX =           8
 
 POTCAR:    PAW_PBE N 08Apr2002                   
   VRHFIN =N: s2p3                                                              
   LEXCH  = PE                                                                  
   EATOM  =   264.5486 eV,   19.4438 Ry                                         
                                                                                
   TITEL  = PAW_PBE N 08Apr2002                                                 
   LULTRA =        F    use ultrasoft PP ?                                      
   IUNSCR =        1    unscreen: 0-lin 1-nonlin 2-no                           
   RPACOR =    1.200    partial core radius                                     
   POMASS =   14.001; ZVAL   =    5.000    mass and valenz                      
   RCORE  =    1.500    outmost cutoff radius                                   
   RWIGS  =    1.400; RWIGS  =    0.741    wigner-seitz radius (au A)           
   ENMAX  =  400.000; ENMIN  =  300.000 eV                                      
   ICORE  =        2    local potential                                         
   LCOR   =        T    correct aug charges                                     
   LPAW   =        T    paw PP                                                  
   EAUG   =  627.112                                                            
   DEXC   =    0.000                                                            
   RMAX   =    1.529    core radius for proj-oper                               
   RAUG   =    1.300    factor for augmentation sphere                          
   RDEP   =    1.514    radius for radial grids                                 
   RDEPT  =    1.338    core radius for aug-charge                              
                                                                                
   Atomic configuration                                                         
    4 entries                                                                   
     n  l   j            E        occ.                                          
     1  0  0.50      -384.7179   2.0000                                         
     2  0  0.50       -18.5828   2.0000                                         
     2  1  0.50        -7.0898   3.0000                                         
     3  2  1.50        -6.8029   0.0000                                         
   Description                                                                  
     l       E           TYP  RCUT    TYP  RCUT                                 
     0    -18.5828119     23  1.200                                             
     0    -13.5018863     23  1.200                                             
     1     -7.0897853     23  1.500                                             
     1      9.5240782     23  1.500                                             
     2     -6.8029130      7  1.500                                             
  local pseudopotential read in
  partial core-charges read in
  partial kinetic energy density read in
  atomic valenz-charges read in
  non local Contribution for L=           0  read in
    real space projection operators read in
  non local Contribution for L=           0  read in
    real space projection operators read in
  non local Contribution for L=           1  read in
    real space projection operators read in
  non local Contribution for L=           1  read in
    real space projection operators read in
    PAW grid and wavefunctions read in
 
   number of l-projection  operators is LMAX  =           4
   number of lm-projection operators is LMMAX =           8
 

 ----------------------------------------------------------------------------- 
|                                                                             |
|  ADVICE TO THIS USER RUNNING 'VASP/VAMP'   (HEAR YOUR MASTER'S VOICE ...):  |
|                                                                             |
|      You have a (more or less) 'small supercell' and for smaller cells      |
|      it is recommended  to use the reciprocal-space projection scheme!      |
|      The real space optimization is not  efficient for small cells and it   |
|      is also less accurate ...                                              |
|      Therefore set LREAL=.FALSE. in the  INCAR file                         |
|                                                                             |
 ----------------------------------------------------------------------------- 

 Optimization of the real space projectors (new method)

 maximal supplied QI-value         = 34.20
 optimisation between [QCUT,QGAM] = [  9.92, 20.18] = [ 27.55,114.04] Ry 
 Optimized for a Real-space Cutoff    1.26 Angstroem

   l    n(q)    QCUT    max X(q) W(low)/X(q) W(high)/X(q)  e(spline) 
   0      8     9.919    19.460    0.50E-03    0.23E-03    0.29E-06
   0      8     9.919    12.209    0.48E-03    0.23E-03    0.28E-06
   1      7     9.919     4.655    0.17E-03    0.75E-03    0.30E-06
 Optimization of the real space projectors (new method)

 maximal supplied QI-value         = 25.13
 optimisation between [QCUT,QGAM] = [ 10.05, 20.36] = [ 28.30,116.06] Ry 
 Optimized for a Real-space Cutoff    1.30 Angstroem

   l    n(q)    QCUT    max X(q) W(low)/X(q) W(high)/X(q)  e(spline) 
   0      8    10.053   115.676    0.49E-03    0.72E-03    0.18E-06
   0      8    10.053    87.132    0.49E-03    0.71E-03    0.18E-06
   1      7    10.053     4.429    0.32E-03    0.31E-03    0.18E-06
   1      7    10.053     2.733    0.23E-03    0.19E-03    0.20E-06
 Optimization of the real space projectors (new method)

 maximal supplied QI-value         = 25.13
 optimisation between [QCUT,QGAM] = [ 10.05, 20.36] = [ 28.30,116.06] Ry 
 Optimized for a Real-space Cutoff    1.65 Angstroem

   l    n(q)    QCUT    max X(q) W(low)/X(q) W(high)/X(q)  e(spline) 
   0     10    10.053    79.467    0.76E-04    0.72E-04    0.56E-06
   0     10    10.053    66.151    0.76E-04    0.72E-04    0.55E-06
   1     10    10.053     8.350    0.25E-03    0.92E-03    0.41E-05
   1     10    10.053     5.531    0.27E-03    0.10E-02    0.45E-05
  PAW_PBE H 15Jun2001                   :
 energy of atom  1       EATOM=  -12.4884
 kinetic energy error for atom=    0.0098 (will be added to EATOM!!)
  PAW_PBE C 08Apr2002                   :
 energy of atom  2       EATOM= -147.1560
 kinetic energy error for atom=    0.0288 (will be added to EATOM!!)
  PAW_PBE N 08Apr2002                   :
 energy of atom  3       EATOM= -264.5486
 kinetic energy error for atom=    0.0736 (will be added to EATOM!!)
 
 
 POSCAR: H3 C2 N1                                
  positions in direct lattice
  velocities in cartesian coordinates
 exchange correlation table for  LEXCH =        8
   RHO(1)=    0.500       N(1)  =     2000
   RHO(2)=  100.500       N(2)  =     4000

 VTST: version 3.2, (02/03/18)

 CHAIN: initializing optimizer
 
 OPT: Using FIRE optimizer
 OPT: FIRE, Init
 OPT: FIRE, MAXMOVE       0.20000
 OPT: FIRE, TIMESTEP      0.10000
 OPT: FIRE, FTIMEMAX      1.00000
 OPT: FIRE, FTIMEINC      1.10000
 OPT: FIRE, FTIMEDEC      0.50000
 OPT: FIRE, FALPHADEC     0.99000
 OPT: FIRE, FALPHA        0.10000
 OPT: FIRE, FNMIN         5
 
 CHAIN: Read ICHAIN            0
 CHAIN: Running the NEB
 NEB:          SPRING     -5.000000
 NEB:          LCLIMB      T
 NEB:     LTANGENTOLD      F
 NEB:           LDNEB      F
 NEB:        LDNEBORG      F
 NEB:        LNEBCELL      F
 NEB:          EFIRST      0.000000
 NEB:           ELAST      0.000000
 
 POSCAR: H3 C2 N1                                
  positions in direct lattice
  No initial velocities read in
 
 POSCAR: H3 C2 N1                                
  positions in direct lattice
  No initial velocities read in
 


--------------------------------------------------------------------------------------------------------


 ion  position               nearest neighbor table
   1  0.475  0.461  0.497-   4 1.09
   2  0.465  0.517  0.474-   4 1.09
   3  0.479  0.510  0.532-   4 1.10
   4  0.484  0.496  0.498-   1 1.09   2 1.09   3 1.10   5 1.45
   5  0.532  0.502  0.492-   6 1.16   4 1.45
   6  0.566  0.514  0.507-   5 1.16
 
  LATTYP: Found a simple cubic cell.
 ALAT       =    30.0000000000
  
  Lattice vectors:
  
 A1 = (  30.0000000000,   0.0000000000,   0.0000000000)
 A2 = (   0.0000000000,  30.0000000000,   0.0000000000)
 A3 = (   0.0000000000,   0.0000000000,  30.0000000000)


Analysis of symmetry for initial positions (statically):
=====================================================================
 Subroutine PRICEL returns:
 Original cell was already a primitive cell.
 

 Routine SETGRP: Setting up the symmetry group for a 
 simple cubic supercell.


 Subroutine GETGRP returns: Found  1 space group operations
 (whereof  1 operations were pure point group operations)
 out of a pool of 48 trial point group operations.


The static configuration has the point symmetry C_1 .


Analysis of symmetry for dynamics (positions and initial velocities):
=====================================================================
 Subroutine PRICEL returns:
 Original cell was already a primitive cell.
 

 Routine SETGRP: Setting up the symmetry group for a 
 simple cubic supercell.


 Subroutine GETGRP returns: Found  1 space group operations
 (whereof  1 operations were pure point group operations)
 out of a pool of 48 trial point group operations.


The dynamic configuration has the point symmetry C_1 .
 
 
 KPOINTS: Mo2C                                    

Automatic generation of k-mesh.
Space group operators:
 irot       det(A)        alpha          n_x          n_y          n_z        tau_x        tau_y        tau_z
    1     1.000000     0.000000     1.000000     0.000000     0.000000     0.000000     0.000000     0.000000
 
 Subroutine IBZKPT returns following result:
 ===========================================
 
 Found      4 irreducible k-points:
 
 Following reciprocal coordinates:
            Coordinates               Weight
  0.250000  0.250000  0.250000      2.000000
 -0.250000  0.250000  0.250000      2.000000
  0.250000 -0.250000  0.250000      2.000000
 -0.250000 -0.250000  0.250000      2.000000
 
 Following cartesian coordinates:
            Coordinates               Weight
  0.008333  0.008333  0.008333      2.000000
 -0.008333  0.008333  0.008333      2.000000
  0.008333 -0.008333  0.008333      2.000000
 -0.008333 -0.008333  0.008333      2.000000
 


--------------------------------------------------------------------------------------------------------




 Dimension of arrays:
   k-points           NKPTS =      4   k-points in BZ     NKDIM =      4   number of bands    NBANDS=     12
   number of dos      NEDOS =    301   number of ions     NIONS =      6
   non local maximal  LDIM  =      4   non local SUM 2l+1 LMDIM =      8
   total plane-waves  NPLWV = ******
   max r-space proj   IRMAX =   2395   max aug-charges    IRDMAX=   1738
   dimension x,y,z NGX =   150 NGY =  150 NGZ =  150
   dimension x,y,z NGXF=   300 NGYF=  300 NGZF=  300
   support grid    NGXF=   300 NGYF=  300 NGZF=  300
   ions per type =               3   2   1
 NGX,Y,Z   is equivalent  to a cutoff of   8.31,  8.31,  8.31 a.u.
 NGXF,Y,Z  is equivalent  to a cutoff of  16.62, 16.62, 16.62 a.u.


 I would recommend the setting:
   dimension x,y,z NGX =   147 NGY =  147 NGZ =  147
 SYSTEM =  unknown system                          
 POSCAR =  H3 C2 N1                                

 Startparameter for this run:
   NWRITE =      2    write-flag & timer
   PREC   = normal    normal or accurate (medium, high low for compatibility)
   ISTART =      0    job   : 0-new  1-cont  2-samecut
   ICHARG =      2    charge: 1-file 2-atom 10-const
   ISPIN  =      1    spin polarized calculation?
   LNONCOLLINEAR =      F non collinear calculations
   LSORBIT =      F    spin-orbit coupling
   INIWAV =      1    electr: 0-lowe 1-rand  2-diag
   LASPH  =      F    aspherical Exc in radial PAW
   METAGGA=      F    non-selfconsistent MetaGGA calc.

 Electronic Relaxation 1
   ENCUT  =  400.0 eV  29.40 Ry    5.42 a.u.  48.92 48.92 48.92*2*pi/ulx,y,z
   ENINI  =  400.0     initial cutoff
   ENAUG  =  644.9 eV  augmentation charge cutoff
   NELM   =    500;   NELMIN=  6; NELMDL= -5     # of ELM steps 
   EDIFF  = 0.1E-03   stopping-criterion for ELM
   LREAL  =      T    real-space projection
   NLSPLINE    = F    spline interpolate recip. space projectors
   LCOMPAT=      F    compatible to vasp.4.4
   GGA_COMPAT  = T    GGA compatible to vasp.4.4-vasp.4.6
   LMAXPAW     = -100 max onsite density
   LMAXMIX     =    2 max onsite mixed and CHGCAR
   VOSKOWN=      0    Vosko Wilk Nusair interpolation
   ROPT   =   -0.00050  -0.00050  -0.00050
 Ionic relaxation
   EDIFFG = -.1E+00   stopping-criterion for IOM
   NSW    =    300    number of steps for IOM
   NBLOCK =      1;   KBLOCK =    300    inner block; outer block 
   IBRION =      3    ionic relax: 0-MD 1-quasi-New 2-CG
   NFREE  =      0    steps in history (QN), initial steepest desc. (CG)
   ISIF   =      2    stress and relaxation
   IWAVPR =     11    prediction:  0-non 1-charg 2-wave 3-comb
   ISYM   =      2    0-nonsym 1-usesym 2-fastsym
   LCORR  =      T    Harris-Foulkes like correction to forces

   POTIM  = 0.0000    time-step for ionic-motion
   TEIN   =    0.0    initial temperature
   TEBEG  =    0.0;   TEEND  =   0.0 temperature during run
   SMASS  =   2.00    Nose mass-parameter (am)
   estimated Nose-frequenzy (Omega)   =  0.12E+10 period in steps =  0.00 mass=   0.137E-25a.u.
   SCALEE = 1.0000    scale energy and forces
   NPACO  =    256;   APACO  = 16.0  distance and # of slots for P.C.
   PSTRESS=    0.0 pullay stress

  Mass of Ions in am
   POMASS =   1.00 12.01 14.00
  Ionic Valenz
   ZVAL   =   1.00  4.00  5.00
  Atomic Wigner-Seitz radii
   RWIGS  =  -1.00 -1.00 -1.00
  virtual crystal weights 
   VCA    =   1.00  1.00  1.00
   NELECT =      16.0000    total number of electrons
   NUPDOWN=      -1.0000    fix difference up-down

 DOS related values:
   EMIN   =  10.00;   EMAX   =-10.00  energy-range for DOS
   EFERMI =   0.00
   ISMEAR =     0;   SIGMA  =   0.20  broadening in eV -4-tet -1-fermi 0-gaus

 Electronic relaxation 2 (details)
   IALGO  =     38    algorithm
   LDIAG  =      T    sub-space diagonalisation (order eigenvalues)
   LSUBROT=      F    optimize rotation matrix (better conditioning)
   TURBO    =      0    0=normal 1=particle mesh
   IRESTART =      0    0=no restart 2=restart with 2 vectors
   NREBOOT  =      0    no. of reboots
   NMIN     =      0    reboot dimension
   EREF     =   0.00    reference energy to select bands
   IMIX   =      4    mixing-type and parameters
     AMIX     =   0.40;   BMIX     =  1.00
     AMIX_MAG =   1.60;   BMIX_MAG =  1.00
     AMIN     =   0.10
     WC   =   100.;   INIMIX=   1;  MIXPRE=   1;  MAXMIX= -45

 Intra band minimization:
   WEIMIN = 0.0010     energy-eigenvalue tresh-hold
   EBREAK =  0.21E-05  absolut break condition
   DEPER  =   0.30     relativ break condition  

   TIME   =   0.40     timestep for ELM

  volume/ion in A,a.u.               =    4500.00     30367.50
  Fermi-wavevector in a.u.,A,eV,Ry     =   0.137508  0.259852  0.257264  0.018908
  Thomas-Fermi vector in A             =   0.790710
 
 Write flags
   LWAVE  =      F    write WAVECAR
   LCHARG =      F    write CHGCAR
   LVTOT  =      F    write LOCPOT, total local potential
   LVHAR  =      F    write LOCPOT, Hartree potential only
   LELF   =      F    write electronic localiz. function (ELF)
   LORBIT =      0    0 simple, 1 ext, 2 COOP (PROOUT)


 Dipole corrections
   LMONO  =      F    monopole corrections only (constant potential shift)
   LDIPOL =      F    correct potential (dipole corrections)
   IDIPOL =      0    1-x, 2-y, 3-z, 4-all directions 
   EPSILON=  1.0000000 bulk dielectric constant

 Exchange correlation treatment:
   GGA     =    PE    GGA type
   LEXCH   =     8    internal setting for exchange type
   VOSKOWN=      0    Vosko Wilk Nusair interpolation
   LHFCALC =     F    Hartree Fock is set to
   LHFONE  =     F    Hartree Fock one center treatment
   AEXX    =    0.0000 exact exchange contribution

 Linear response parameters
   LEPSILON=     F    determine dielectric tensor
   LRPA    =     F    only Hartree local field effects (RPA)
   LNABLA  =     F    use nabla operator in PAW spheres
   LVEL    =     F    velocity operator in full k-point grid
   LINTERFAST=   F  fast interpolation
   KINTER  =     0    interpolate to denser k-point grid
   CSHIFT  =0.1000    complex shift for real part using Kramers Kronig
   OMEGAMAX=  -1.0    maximum frequency
   DEG_THRESHOLD= 0.2000000E-02 threshold for treating states as degnerate
   RTIME   =    0.100 relaxation time in fs

 Orbital magnetization related:
   ORBITALMAG=     F  switch on orbital magnetization
   LCHIMAG   =     F  perturbation theory with respect to B field
   DQ        =  0.001000  dq finite difference perturbation B field



--------------------------------------------------------------------------------------------------------


 quickmin algorithm: (dynamic with friction)
 charge density and potential will be updated during run
 non-spin polarized calculation
 Variant of blocked Davidson
 Davidson routine will perform the subspace rotation
 perform sub-space diagonalisation
    after iterative eigenvector-optimisation
 modified Broyden-mixing scheme, WC =      100.0
 initial mixing is a Kerker type mixing with AMIX =  0.4000 and BMIX =      1.0000
 Hartree-type preconditioning will be used
 using additional bands            4
 real space projection scheme for non local part
 use partial core corrections
 calculate Harris-corrections to forces 
   (improved forces if not selfconsistent)
 use gradient corrections 
 use of overlap-Matrix (Vanderbilt PP)
 Gauss-broadening in eV      SIGMA  =   0.20


--------------------------------------------------------------------------------------------------------


  energy-cutoff  :      400.00
  volume of cell :    27000.00
      direct lattice vectors                 reciprocal lattice vectors
    30.000000000  0.000000000  0.000000000     0.033333333  0.000000000  0.000000000
     0.000000000 30.000000000  0.000000000     0.000000000  0.033333333  0.000000000
     0.000000000  0.000000000 30.000000000     0.000000000  0.000000000  0.033333333

  length of vectors
    30.000000000 30.000000000 30.000000000     0.033333333  0.033333333  0.033333333


 
 k-points in units of 2pi/SCALE and weight: Mo2C                                    
   0.00833333  0.00833333  0.00833333       0.250
  -0.00833333  0.00833333  0.00833333       0.250
   0.00833333 -0.00833333  0.00833333       0.250
  -0.00833333 -0.00833333  0.00833333       0.250
 
 k-points in reciprocal lattice and weights: Mo2C                                    
   0.25000000  0.25000000  0.25000000       0.250
  -0.25000000  0.25000000  0.25000000       0.250
   0.25000000 -0.25000000  0.25000000       0.250
  -0.25000000 -0.25000000  0.25000000       0.250
 
 position of ions in fractional coordinates (direct lattice) 
   0.47455010  0.46122804  0.49707018
   0.46523543  0.51656095  0.47410002
   0.47875617  0.50956731  0.53178371
   0.48408025  0.49639705  0.49791016
   0.53173620  0.50213831  0.49226234
   0.56565191  0.51412731  0.50687354
 
 position of ions in cartesian coordinates  (Angst):
  14.23650302 13.83684122 14.91210545
  13.95706300 15.49682835 14.22300073
  14.36268500 15.28701916 15.95351127
  14.52240745 14.89191145 14.93730491
  15.95208606 15.06414919 14.76787022
  16.96955716 15.42381927 15.20620624
 


--------------------------------------------------------------------------------------------------------


 k-point  1 :   0.2500 0.2500 0.2500  plane waves:  490454
 k-point  2 :  -0.2500 0.2500 0.2500  plane waves:  490454
 k-point  3 :   0.2500-0.2500 0.2500  plane waves:  490454
 k-point  4 :  -0.2500-0.2500 0.2500  plane waves:  490454

 maximum and minimum number of plane-waves per node :    490454   490454

 maximum number of plane-waves:    490454
 maximum index in each direction: 
   IXMAX=   49   IYMAX=   49   IZMAX=   48
   IXMIN=  -49   IYMIN=  -49   IZMIN=  -49

 WARNING: aliasing errors must be expected set NGX to 198 to avoid them
 WARNING: aliasing errors must be expected set NGY to 198 to avoid them
 WARNING: aliasing errors must be expected set NGZ to 196 to avoid them
 aliasing errors are usually negligible using standard VASP settings
 and one can safely disregard these warnings

 serial   3D FFT for wavefunctions
 parallel 3D FFT for charge:
    minimum data exchange during FFTs selected (reduces bandwidth)


 total amount of memory used by VASP on root node  3203887. kBytes
========================================================================

   base      :      30000. kBytes
   nonlr-proj:        691. kBytes
   fftplans  :     924480. kBytes
   grid      :    1872000. kBytes
   one-center:         18. kBytes
   wavefun   :     376698. kBytes
 
     INWAV:  cpu time    0.0000: real time    0.0003
 Broyden mixing: mesh for mixing (old mesh)
   NGX = 97   NGY = 97   NGZ = 97
  (NGX  =300   NGY  =300   NGZ  =300)
  gives a total of 912673 points

 initial charge density was supplied:
 charge density of overlapping atoms calculated
 number of electron      16.0000000 magnetization 
 keeping initial charge density in first step


--------------------------------------------------------------------------------------------------------


 Maximum index for non-local projection operator         2271
 Maximum index for augmentation-charges         1495 (set IRDMAX)


--------------------------------------------------------------------------------------------------------


 First call to EWALD:  gamma=   0.059
 Maximum number of real-space cells 3x 3x 3
 Maximum number of reciprocal cells 3x 3x 3

 FEWALD executed in parallel
    FEWALD:  cpu time    0.0020: real time    0.0020


----------------------------------------- Iteration    1(   1)  ---------------------------------------


    POTLOK:  cpu time   19.4220: real time   19.4071
    SETDIJ:  cpu time    0.0080: real time    0.0081
     EDDAV:  cpu time   88.0356: real time   87.9613
       DOS:  cpu time    0.0000: real time    0.0003
    --------------------------------------------
      LOOP:  cpu time  107.4687: real time  107.3815

 eigenvalue-minimisations  :   160
 total energy-change (2. order) : 0.1154629E+03  (-0.2132000E+03)
 number of electron      16.0000000 magnetization 
 augmentation part       16.0000000 magnetization 

 Free energy of the ion-electron system (eV)
  ---------------------------------------------------
  alpha Z        PSCENC =         0.04144063
  Ewald energy   TEWEN  =       683.53576298
  -Hartree energ DENC   =     -1096.79846992
  -exchange      EXHF   =         0.00000000
  -V(xc)+E(xc)   XCENC  =        51.42782722
  PAW double counting   =       428.37890668     -430.73533574
  entropy T*S    EENTRO =        -0.19337715
  eigenvalues    EBANDS =      -116.35923347
  atomic energy  EATOM  =       596.16534815
  Solvation  Ediel_sol  =         0.00000000
  ---------------------------------------------------
  free energy    TOTEN  =       115.46286937 eV

  energy without entropy =      115.65624652  energy(sigma->0) =      115.55955795


--------------------------------------------------------------------------------------------------------




----------------------------------------- Iteration    1(   2)  ---------------------------------------


     EDDAV:  cpu time  112.4899: real time  112.3978
       DOS:  cpu time    0.0000: real time    0.0002
    --------------------------------------------
      LOOP:  cpu time  112.4909: real time  112.4008

 eigenvalue-minimisations  :   192
 total energy-change (2. order) :-0.1177633E+03  (-0.1153272E+03)
 number of electron      16.0000000 magnetization 
 augmentation part       16.0000000 magnetization 

 Free energy of the ion-electron system (eV)
  ---------------------------------------------------
  alpha Z        PSCENC =         0.04144063
  Ewald energy   TEWEN  =       683.53576298
  -Hartree energ DENC   =     -1096.79846992
  -exchange      EXHF   =         0.00000000
  -V(xc)+E(xc)   XCENC  =        51.42782722
  PAW double counting   =       428.37890668     -430.73533574
  entropy T*S    EENTRO =         0.00000000
  eigenvalues    EBANDS =      -234.31589113
  atomic energy  EATOM  =       596.16534815
  Solvation  Ediel_sol  =         0.00000000
  ---------------------------------------------------
  free energy    TOTEN  =        -2.30041114 eV

  energy without entropy =       -2.30041114  energy(sigma->0) =       -2.30041114


--------------------------------------------------------------------------------------------------------




----------------------------------------- Iteration    1(   3)  ---------------------------------------


     EDDAV:  cpu time   87.1907: real time   87.1203
       DOS:  cpu time    0.0000: real time    0.0002
    --------------------------------------------
      LOOP:  cpu time   87.1917: real time   87.1238

 eigenvalue-minimisations  :   128
 total energy-change (2. order) :-0.3514756E+02  (-0.3494043E+02)
 number of electron      16.0000000 magnetization 
 augmentation part       16.0000000 magnetization 

 Free energy of the ion-electron system (eV)
  ---------------------------------------------------
  alpha Z        PSCENC =         0.04144063
  Ewald energy   TEWEN  =       683.53576298
  -Hartree energ DENC   =     -1096.79846992
  -exchange      EXHF   =         0.00000000
  -V(xc)+E(xc)   XCENC  =        51.42782722
  PAW double counting   =       428.37890668     -430.73533574
  entropy T*S    EENTRO =         0.00000000
  eigenvalues    EBANDS =      -269.46344643
  atomic energy  EATOM  =       596.16534815
  Solvation  Ediel_sol  =         0.00000000
  ---------------------------------------------------
  free energy    TOTEN  =       -37.44796644 eV

  energy without entropy =      -37.44796644  energy(sigma->0) =      -37.44796644


--------------------------------------------------------------------------------------------------------




----------------------------------------- Iteration    1(   4)  ---------------------------------------


     EDDAV:  cpu time   88.6275: real time   88.5556
       DOS:  cpu time    0.0000: real time    0.0002
    --------------------------------------------
      LOOP:  cpu time   88.6285: real time   88.5585

 eigenvalue-minimisations  :   128
 total energy-change (2. order) :-0.3006338E+01  (-0.2953051E+01)
 number of electron      16.0000000 magnetization 
 augmentation part       16.0000000 magnetization 

 Free energy of the ion-electron system (eV)
  ---------------------------------------------------
  alpha Z        PSCENC =         0.04144063
  Ewald energy   TEWEN  =       683.53576298
  -Hartree energ DENC   =     -1096.79846992
  -exchange      EXHF   =         0.00000000
  -V(xc)+E(xc)   XCENC  =        51.42782722
  PAW double counting   =       428.37890668     -430.73533574
  entropy T*S    EENTRO =         0.00000000
  eigenvalues    EBANDS =      -272.46978465
  atomic energy  EATOM  =       596.16534815
  Solvation  Ediel_sol  =         0.00000000
  ---------------------------------------------------
  free energy    TOTEN  =       -40.45430466 eV

  energy without entropy =      -40.45430466  energy(sigma->0) =      -40.45430466


--------------------------------------------------------------------------------------------------------




----------------------------------------- Iteration    1(   5)  ---------------------------------------


     EDDAV:  cpu time   80.6947: real time   80.6294
       DOS:  cpu time    0.0000: real time    0.0002
    CHARGE:  cpu time    7.7838: real time    7.7777
    MIXING:  cpu time    0.6189: real time    0.6182
    --------------------------------------------
      LOOP:  cpu time   89.0985: real time   89.0288

 eigenvalue-minimisations  :   112
 total energy-change (2. order) :-0.6144626E-01  (-0.6064486E-01)
 number of electron      15.9999995 magnetization 
 augmentation part        0.5278638 magnetization 

 Broyden mixing:
  rms(total) = 0.11021E+01    rms(broyden)= 0.11014E+01
  rms(prec ) = 0.11458E+01
  weight for this iteration     100.00

 Free energy of the ion-electron system (eV)
  ---------------------------------------------------
  alpha Z        PSCENC =         0.04144063
  Ewald energy   TEWEN  =       683.53576298
  -Hartree energ DENC   =     -1096.79846992
  -exchange      EXHF   =         0.00000000
  -V(xc)+E(xc)   XCENC  =        51.42782722
  PAW double counting   =       428.37890668     -430.73533574
  entropy T*S    EENTRO =         0.00000000
  eigenvalues    EBANDS =      -272.53123091
  atomic energy  EATOM  =       596.16534815
  Solvation  Ediel_sol  =         0.00000000
  ---------------------------------------------------
  free energy    TOTEN  =       -40.51575092 eV

  energy without entropy =      -40.51575092  energy(sigma->0) =      -40.51575092


--------------------------------------------------------------------------------------------------------




----------------------------------------- Iteration    1(   6)  ---------------------------------------


    POTLOK:  cpu time   21.9987: real time   21.9816
    SETDIJ:  cpu time    0.0090: real time    0.0086
     EDDAV:  cpu time   90.9482: real time   90.8745
       DOS:  cpu time    0.0000: real time    0.0002
    CHARGE:  cpu time    6.7480: real time    6.7425
    MIXING:  cpu time    0.7179: real time    0.7177
    --------------------------------------------
      LOOP:  cpu time  120.4237: real time  120.3291

 eigenvalue-minimisations  :   128
 total energy-change (2. order) : 0.3338736E+01  (-0.6302933E+00)
 number of electron      15.9999992 magnetization 
 augmentation part        0.4558708 magnetization 

 Broyden mixing:
  rms(total) = 0.60181E+00    rms(broyden)= 0.60157E+00
  rms(prec ) = 0.61817E+00
  weight for this iteration     100.00

 eigenvalues of (default mixing * dielectric matrix)
  average eigenvalue GAMMA=   1.2551
  1.2551

 Free energy of the ion-electron system (eV)
  ---------------------------------------------------
  alpha Z        PSCENC =         0.04144063
  Ewald energy   TEWEN  =       683.53576298
  -Hartree energ DENC   =     -1129.21764076
  -exchange      EXHF   =         0.00000000
  -V(xc)+E(xc)   XCENC  =        53.21910986
  PAW double counting   =       732.81587577     -735.50315944
  entropy T*S    EENTRO =         0.00000000
  eigenvalues    EBANDS =      -238.23375197
  atomic energy  EATOM  =       596.16534815
  Solvation  Ediel_sol  =         0.00000000
  ---------------------------------------------------
  free energy    TOTEN  =       -37.17701478 eV

  energy without entropy =      -37.17701478  energy(sigma->0) =      -37.17701478


--------------------------------------------------------------------------------------------------------




----------------------------------------- Iteration    1(   7)  ---------------------------------------


    POTLOK:  cpu time   21.6157: real time   21.5978
    SETDIJ:  cpu time    0.0090: real time    0.0083
     EDDAV:  cpu time   80.8777: real time   80.8127
       DOS:  cpu time    0.0000: real time    0.0002
    CHARGE:  cpu time    6.9399: real time    6.9351
    MIXING:  cpu time    0.8359: real time    0.8351
    --------------------------------------------
      LOOP:  cpu time  110.2802: real time  110.1928

 eigenvalue-minimisations  :   112
 total energy-change (2. order) : 0.6616030E+00  (-0.1562750E+00)
 number of electron      15.9999992 magnetization 
 augmentation part        0.4578937 magnetization 

 Broyden mixing:
  rms(total) = 0.30956E+00    rms(broyden)= 0.30950E+00
  rms(prec ) = 0.31787E+00
  weight for this iteration     100.00

 eigenvalues of (default mixing * dielectric matrix)
  average eigenvalue GAMMA=   1.4124
  0.8778  1.9469

 Free energy of the ion-electron system (eV)
  ---------------------------------------------------
  alpha Z        PSCENC =         0.04144063
  Ewald energy   TEWEN  =       683.53576298
  -Hartree energ DENC   =     -1146.20641970
  -exchange      EXHF   =         0.00000000
  -V(xc)+E(xc)   XCENC  =        54.14244229
  PAW double counting   =      1038.66949807    -1041.47379441
  entropy T*S    EENTRO =         0.00000000
  eigenvalues    EBANDS =      -221.38968980
  atomic energy  EATOM  =       596.16534815
  Solvation  Ediel_sol  =         0.00000000
  ---------------------------------------------------
  free energy    TOTEN  =       -36.51541179 eV

  energy without entropy =      -36.51541179  energy(sigma->0) =      -36.51541179


--------------------------------------------------------------------------------------------------------




----------------------------------------- Iteration    1(   8)  ---------------------------------------


    POTLOK:  cpu time   22.0576: real time   22.0398
    SETDIJ:  cpu time    0.0080: real time    0.0082
     EDDAV:  cpu time   90.5462: real time   90.4725
       DOS:  cpu time    0.0000: real time    0.0002
    CHARGE:  cpu time    6.4720: real time    6.4674
    MIXING:  cpu time    0.7539: real time    0.7527
    --------------------------------------------
      LOOP:  cpu time  119.8398: real time  119.7444

 eigenvalue-minimisations  :   128
 total energy-change (2. order) : 0.1763765E+00  (-0.4156624E-01)
 number of electron      15.9999992 magnetization 
 augmentation part        0.4375111 magnetization 

 Broyden mixing:
  rms(total) = 0.11708E+00    rms(broyden)= 0.11704E+00
  rms(prec ) = 0.12139E+00
  weight for this iteration     100.00

 eigenvalues of (default mixing * dielectric matrix)
  average eigenvalue GAMMA=   1.4547
  2.1830  1.4476  0.7336

 Free energy of the ion-electron system (eV)
  ---------------------------------------------------
  alpha Z        PSCENC =         0.04144063
  Ewald energy   TEWEN  =       683.53576298
  -Hartree energ DENC   =     -1156.91635410
  -exchange      EXHF   =         0.00000000
  -V(xc)+E(xc)   XCENC  =        54.82574883
  PAW double counting   =      1289.94841562    -1292.80750962
  entropy T*S    EENTRO =         0.00000000
  eigenvalues    EBANDS =      -211.13188773
  atomic energy  EATOM  =       596.16534815
  Solvation  Ediel_sol  =         0.00000000
  ---------------------------------------------------
  free energy    TOTEN  =       -36.33903525 eV

  energy without entropy =      -36.33903525  energy(sigma->0) =      -36.33903525


--------------------------------------------------------------------------------------------------------




----------------------------------------- Iteration    1(   9)  ---------------------------------------


    POTLOK:  cpu time   21.9637: real time   21.9468
    SETDIJ:  cpu time    0.0080: real time    0.0082
     EDDAV:  cpu time   90.4462: real time   90.3721
       DOS:  cpu time    0.0000: real time    0.0002
    CHARGE:  cpu time    6.7580: real time    6.7533
    MIXING:  cpu time    0.8439: real time    0.8423
    --------------------------------------------
      LOOP:  cpu time  120.0218: real time  119.9271

 eigenvalue-minimisations  :   128
 total energy-change (2. order) : 0.2730174E-01  (-0.4193842E-02)
 number of electron      15.9999992 magnetization 
 augmentation part        0.4391264 magnetization 

 Broyden mixing:
  rms(total) = 0.34033E-01    rms(broyden)= 0.34019E-01
  rms(prec ) = 0.39299E-01
  weight for this iteration     100.00

 eigenvalues of (default mixing * dielectric matrix)
  average eigenvalue GAMMA=   1.4361
  2.2899  1.6322  1.0510  0.7713

 Free energy of the ion-electron system (eV)
  ---------------------------------------------------
  alpha Z        PSCENC =         0.04144063
  Ewald energy   TEWEN  =       683.53576298
  -Hartree energ DENC   =     -1159.03819440
  -exchange      EXHF   =         0.00000000
  -V(xc)+E(xc)   XCENC  =        54.95643039
  PAW double counting   =      1376.35443625    -1379.18505562
  entropy T*S    EENTRO =         0.00000000
  eigenvalues    EBANDS =      -209.14190189
  atomic energy  EATOM  =       596.16534815
  Solvation  Ediel_sol  =         0.00000000
  ---------------------------------------------------
  free energy    TOTEN  =       -36.31173351 eV

  energy without entropy =      -36.31173351  energy(sigma->0) =      -36.31173351


--------------------------------------------------------------------------------------------------------




----------------------------------------- Iteration    1(  10)  ---------------------------------------


    POTLOK:  cpu time   21.5077: real time   21.4919
    SETDIJ:  cpu time    0.0090: real time    0.0083
     EDDAV:  cpu time   91.4001: real time   91.3258
       DOS:  cpu time    0.0000: real time    0.0002
    CHARGE:  cpu time    6.6890: real time    6.6841
    MIXING:  cpu time    0.9729: real time    0.9719
    --------------------------------------------
      LOOP:  cpu time  120.5807: real time  120.4865

 eigenvalue-minimisations  :   128
 total energy-change (2. order) : 0.3882205E-02  (-0.4937606E-03)
 number of electron      15.9999992 magnetization 
 augmentation part        0.4399857 magnetization 

 Broyden mixing:
  rms(total) = 0.14737E-01    rms(broyden)= 0.14731E-01
  rms(prec ) = 0.20838E-01
  weight for this iteration     100.00

 eigenvalues of (default mixing * dielectric matrix)
  average eigenvalue GAMMA=   1.4613
  2.1775  2.1775  1.3438  0.8037  0.8037

 Free energy of the ion-electron system (eV)
  ---------------------------------------------------
  alpha Z        PSCENC =         0.04144063
  Ewald energy   TEWEN  =       683.53576298
  -Hartree energ DENC   =     -1160.21417374
  -exchange      EXHF   =         0.00000000
  -V(xc)+E(xc)   XCENC  =        54.99368314
  PAW double counting   =      1390.99288958    -1393.81312222
  entropy T*S    EENTRO =         0.00000000
  eigenvalues    EBANDS =      -208.00967983
  atomic energy  EATOM  =       596.16534815
  Solvation  Ediel_sol  =         0.00000000
  ---------------------------------------------------
  free energy    TOTEN  =       -36.30785130 eV

  energy without entropy =      -36.30785130  energy(sigma->0) =      -36.30785130


--------------------------------------------------------------------------------------------------------




----------------------------------------- Iteration    1(  11)  ---------------------------------------


    POTLOK:  cpu time   22.0866: real time   22.0689
    SETDIJ:  cpu time    0.0080: real time    0.0082
     EDDAV:  cpu time   85.8929: real time   85.8236
       DOS:  cpu time    0.0000: real time    0.0002
    CHARGE:  cpu time    6.6070: real time    6.6018
    MIXING:  cpu time    0.9978: real time    0.9966
    --------------------------------------------
      LOOP:  cpu time  115.5944: real time  115.5034

 eigenvalue-minimisations  :   120
 total energy-change (2. order) :-0.1028996E-02  (-0.1829677E-03)
 number of electron      15.9999992 magnetization 
 augmentation part        0.4396122 magnetization 

 Broyden mixing:
  rms(total) = 0.96609E-02    rms(broyden)= 0.96594E-02
  rms(prec ) = 0.14601E-01
  weight for this iteration     100.00

 eigenvalues of (default mixing * dielectric matrix)
  average eigenvalue GAMMA=   1.6832
  2.8419  2.5438  0.7814  0.9032  1.5145  1.5145

 Free energy of the ion-electron system (eV)
  ---------------------------------------------------
  alpha Z        PSCENC =         0.04144063
  Ewald energy   TEWEN  =       683.53576298
  -Hartree energ DENC   =     -1161.29743904
  -exchange      EXHF   =         0.00000000
  -V(xc)+E(xc)   XCENC  =        55.01808695
  PAW double counting   =      1388.37848458    -1391.19404413
  entropy T*S    EENTRO =         0.00000000
  eigenvalues    EBANDS =      -206.95652042
  atomic energy  EATOM  =       596.16534815
  Solvation  Ediel_sol  =         0.00000000
  ---------------------------------------------------
  free energy    TOTEN  =       -36.30888030 eV

  energy without entropy =      -36.30888030  energy(sigma->0) =      -36.30888030


--------------------------------------------------------------------------------------------------------




----------------------------------------- Iteration    1(  12)  ---------------------------------------


    POTLOK:  cpu time   22.0826: real time   22.0650
    SETDIJ:  cpu time    0.0090: real time    0.0084
     EDDAV:  cpu time   71.1942: real time   71.1372
       DOS:  cpu time    0.0000: real time    0.0002
    CHARGE:  cpu time    6.5340: real time    6.5294
    MIXING:  cpu time    1.1128: real time    1.1117
    --------------------------------------------
      LOOP:  cpu time  100.9347: real time  100.8563

 eigenvalue-minimisations  :    96
 total energy-change (2. order) :-0.6306121E-02  (-0.4297737E-03)
 number of electron      15.9999992 magnetization 
 augmentation part        0.4391000 magnetization 

 Broyden mixing:
  rms(total) = 0.47663E-02    rms(broyden)= 0.47589E-02
  rms(prec ) = 0.72016E-02
  weight for this iteration     100.00

 eigenvalues of (default mixing * dielectric matrix)
  average eigenvalue GAMMA=   1.6849
  3.6283  2.2771  1.7423  0.7758  1.3575  0.9037  1.1099

 Free energy of the ion-electron system (eV)
  ---------------------------------------------------
  alpha Z        PSCENC =         0.04144063
  Ewald energy   TEWEN  =       683.53576298
  -Hartree energ DENC   =     -1163.01109922
  -exchange      EXHF   =         0.00000000
  -V(xc)+E(xc)   XCENC  =        55.05417127
  PAW double counting   =      1382.84086770    -1385.65176939
  entropy T*S    EENTRO =         0.00000000
  eigenvalues    EBANDS =      -205.28990853
  atomic energy  EATOM  =       596.16534815
  Solvation  Ediel_sol  =         0.00000000
  ---------------------------------------------------
  free energy    TOTEN  =       -36.31518642 eV

  energy without entropy =      -36.31518642  energy(sigma->0) =      -36.31518642


--------------------------------------------------------------------------------------------------------




----------------------------------------- Iteration    1(  13)  ---------------------------------------


    POTLOK:  cpu time   22.3466: real time   22.3291
    SETDIJ:  cpu time    0.0080: real time    0.0082
     EDDAV:  cpu time   98.7930: real time   98.7125
       DOS:  cpu time    0.0000: real time    0.0002
    CHARGE:  cpu time    6.5010: real time    6.4971
    MIXING:  cpu time    1.1288: real time    1.1267
    --------------------------------------------
      LOOP:  cpu time  128.7804: real time  128.6780

 eigenvalue-minimisations  :   144
 total energy-change (2. order) :-0.3919763E-02  (-0.1255845E-03)
 number of electron      15.9999992 magnetization 
 augmentation part        0.4389283 magnetization 

 Broyden mixing:
  rms(total) = 0.35651E-02    rms(broyden)= 0.35634E-02
  rms(prec ) = 0.52707E-02
  weight for this iteration     100.00

 eigenvalues of (default mixing * dielectric matrix)
  average eigenvalue GAMMA=   1.7366
  4.2032  2.4204  1.5523  1.5523  1.5201  0.7788  0.9665  0.8993

 Free energy of the ion-electron system (eV)
  ---------------------------------------------------
  alpha Z        PSCENC =         0.04144063
  Ewald energy   TEWEN  =       683.53576298
  -Hartree energ DENC   =     -1163.52385594
  -exchange      EXHF   =         0.00000000
  -V(xc)+E(xc)   XCENC  =        55.06241686
  PAW double counting   =      1383.31467710    -1386.12617103
  entropy T*S    EENTRO =         0.00000000
  eigenvalues    EBANDS =      -204.78872492
  atomic energy  EATOM  =       596.16534815
  Solvation  Ediel_sol  =         0.00000000
  ---------------------------------------------------
  free energy    TOTEN  =       -36.31910619 eV

  energy without entropy =      -36.31910619  energy(sigma->0) =      -36.31910619


--------------------------------------------------------------------------------------------------------




----------------------------------------- Iteration    1(  14)  ---------------------------------------


    POTLOK:  cpu time   22.6056: real time   22.5879
    SETDIJ:  cpu time    0.0080: real time    0.0083
     EDDAV:  cpu time   85.5250: real time   85.4546
       DOS:  cpu time    0.0000: real time    0.0002
    CHARGE:  cpu time    6.4790: real time    6.4743
    MIXING:  cpu time    1.1768: real time    1.1748
    --------------------------------------------
      LOOP:  cpu time  115.7954: real time  115.7039

 eigenvalue-minimisations  :   120
 total energy-change (2. order) :-0.4319255E-02  (-0.6099260E-04)
 number of electron      15.9999992 magnetization 
 augmentation part        0.4389887 magnetization 

 Broyden mixing:
  rms(total) = 0.26210E-02    rms(broyden)= 0.26206E-02
  rms(prec ) = 0.35987E-02
  weight for this iteration     100.00

 eigenvalues of (default mixing * dielectric matrix)
  average eigenvalue GAMMA=   1.8486
  5.0734  2.7329  2.3059  1.5513  1.3427  0.7798  0.9337  0.9591  0.9591

 Free energy of the ion-electron system (eV)
  ---------------------------------------------------
  alpha Z        PSCENC =         0.04144063
  Ewald energy   TEWEN  =       683.53576298
  -Hartree energ DENC   =     -1163.73219038
  -exchange      EXHF   =         0.00000000
  -V(xc)+E(xc)   XCENC  =        55.05511638
  PAW double counting   =      1381.16981329    -1383.98119915
  entropy T*S    EENTRO =         0.00000000
  eigenvalues    EBANDS =      -204.57751734
  atomic energy  EATOM  =       596.16534815
  Solvation  Ediel_sol  =         0.00000000
  ---------------------------------------------------
  free energy    TOTEN  =       -36.32342544 eV

  energy without entropy =      -36.32342544  energy(sigma->0) =      -36.32342544


--------------------------------------------------------------------------------------------------------




----------------------------------------- Iteration    1(  15)  ---------------------------------------


    POTLOK:  cpu time   22.6106: real time   22.5917
    SETDIJ:  cpu time    0.0080: real time    0.0084
     EDDAV:  cpu time   89.8863: real time   89.8144
       DOS:  cpu time    0.0000: real time    0.0002
    CHARGE:  cpu time    6.3120: real time    6.3071
    MIXING:  cpu time    1.2758: real time    1.2745
    --------------------------------------------
      LOOP:  cpu time  120.0947: real time  120.0039

 eigenvalue-minimisations  :   128
 total energy-change (2. order) :-0.2985152E-02  (-0.2911892E-04)
 number of electron      15.9999992 magnetization 
 augmentation part        0.4389407 magnetization 

 Broyden mixing:
  rms(total) = 0.15442E-02    rms(broyden)= 0.15440E-02
  rms(prec ) = 0.21446E-02
  weight for this iteration     100.00

 eigenvalues of (default mixing * dielectric matrix)
  average eigenvalue GAMMA=   1.9185
  5.8834  2.9738  2.3105  1.5784  1.3560  1.3560  0.7793  0.9113  1.0179  1.0179

 Free energy of the ion-electron system (eV)
  ---------------------------------------------------
  alpha Z        PSCENC =         0.04144063
  Ewald energy   TEWEN  =       683.53576298
  -Hartree energ DENC   =     -1163.86897361
  -exchange      EXHF   =         0.00000000
  -V(xc)+E(xc)   XCENC  =        55.05201203
  PAW double counting   =      1381.36838142    -1384.18034798
  entropy T*S    EENTRO =         0.00000000
  eigenvalues    EBANDS =      -204.44003421
  atomic energy  EATOM  =       596.16534815
  Solvation  Ediel_sol  =         0.00000000
  ---------------------------------------------------
  free energy    TOTEN  =       -36.32641059 eV

  energy without entropy =      -36.32641059  energy(sigma->0) =      -36.32641059


--------------------------------------------------------------------------------------------------------




----------------------------------------- Iteration    1(  16)  ---------------------------------------


    POTLOK:  cpu time   22.8465: real time   22.8282
    SETDIJ:  cpu time    0.0090: real time    0.0087
     EDDAV:  cpu time   71.2142: real time   71.1562
       DOS:  cpu time    0.0000: real time    0.0002
    CHARGE:  cpu time    6.6520: real time    6.6471
    MIXING:  cpu time    1.3358: real time    1.3350
    --------------------------------------------
      LOOP:  cpu time  102.0595: real time  102.8282

 eigenvalue-minimisations  :    96
 total energy-change (2. order) :-0.1942826E-02  (-0.1546717E-04)
 number of electron      15.9999992 magnetization 
 augmentation part        0.4388989 magnetization 

 Broyden mixing:
  rms(total) = 0.82032E-03    rms(broyden)= 0.81980E-03
  rms(prec ) = 0.11904E-02
  weight for this iteration     100.00

 eigenvalues of (default mixing * dielectric matrix)
  average eigenvalue GAMMA=   2.0797
  7.0740  3.4287  2.5146  2.2005  1.5343  1.2370  1.2370  0.7791  0.9020  0.9845
  0.9845

 Free energy of the ion-electron system (eV)
  ---------------------------------------------------
  alpha Z        PSCENC =         0.04144063
  Ewald energy   TEWEN  =       683.53576298
  -Hartree energ DENC   =     -1163.93506093
  -exchange      EXHF   =         0.00000000
  -V(xc)+E(xc)   XCENC  =        55.04978944
  PAW double counting   =      1381.59622546    -1384.40811811
  entropy T*S    EENTRO =         0.00000000
  eigenvalues    EBANDS =      -204.37374104
  atomic energy  EATOM  =       596.16534815
  Solvation  Ediel_sol  =         0.00000000
  ---------------------------------------------------
  free energy    TOTEN  =       -36.32835342 eV

  energy without entropy =      -36.32835342  energy(sigma->0) =      -36.32835342


--------------------------------------------------------------------------------------------------------




----------------------------------------- Iteration    1(  17)  ---------------------------------------


    POTLOK:  cpu time   22.9765: real time   22.9578
    SETDIJ:  cpu time    0.0090: real time    0.0085
     EDDAV:  cpu time   89.9583: real time   89.8853
       DOS:  cpu time    0.0000: real time    0.0002
    CHARGE:  cpu time    6.4830: real time    6.4770
    MIXING:  cpu time    1.4128: real time    1.4119
    --------------------------------------------
      LOOP:  cpu time  120.8406: real time  120.7478

 eigenvalue-minimisations  :   128
 total energy-change (2. order) :-0.1291774E-02  (-0.1770697E-04)
 number of electron      15.9999992 magnetization 
 augmentation part        0.4388513 magnetization 

 Broyden mixing:
  rms(total) = 0.69784E-03    rms(broyden)= 0.69750E-03
  rms(prec ) = 0.83733E-03
  weight for this iteration     100.00

 eigenvalues of (default mixing * dielectric matrix)
  average eigenvalue GAMMA=   2.1070
  7.6363  3.9774  2.3455  2.3455  1.5389  1.3510  1.3510  0.7798  1.0620  1.0620
  0.9171  0.9171

 Free energy of the ion-electron system (eV)
  ---------------------------------------------------
  alpha Z        PSCENC =         0.04144063
  Ewald energy   TEWEN  =       683.53576298
  -Hartree energ DENC   =     -1163.96675262
  -exchange      EXHF   =         0.00000000
  -V(xc)+E(xc)   XCENC  =        55.04805390
  PAW double counting   =      1382.08145923    -1384.89315889
  entropy T*S    EENTRO =         0.00000000
  eigenvalues    EBANDS =      -204.34179857
  atomic energy  EATOM  =       596.16534815
  Solvation  Ediel_sol  =         0.00000000
  ---------------------------------------------------
  free energy    TOTEN  =       -36.32964519 eV

  energy without entropy =      -36.32964519  energy(sigma->0) =      -36.32964519


--------------------------------------------------------------------------------------------------------




----------------------------------------- Iteration    1(  18)  ---------------------------------------


    POTLOK:  cpu time   21.6367: real time   21.6203
    SETDIJ:  cpu time    0.0080: real time    0.0082
     EDDAV:  cpu time   73.1949: real time   73.1344
       DOS:  cpu time    0.0000: real time    0.0002
    CHARGE:  cpu time    6.3490: real time    6.3445
    MIXING:  cpu time    1.5538: real time    1.5532
    --------------------------------------------
      LOOP:  cpu time  102.7444: real time  102.6648

 eigenvalue-minimisations  :    96
 total energy-change (2. order) :-0.4344070E-03  (-0.1813557E-05)
 number of electron      15.9999992 magnetization 
 augmentation part        0.4388801 magnetization 

 Broyden mixing:
  rms(total) = 0.27953E-03    rms(broyden)= 0.27937E-03
  rms(prec ) = 0.38989E-03
  weight for this iteration     100.00

 eigenvalues of (default mixing * dielectric matrix)
  average eigenvalue GAMMA=   2.1840
  8.0172  4.4841  2.5456  2.5456  2.0267  1.5538  1.3138  1.3138  0.7799  0.8896
  0.9596  0.9811  0.9811

 Free energy of the ion-electron system (eV)
  ---------------------------------------------------
  alpha Z        PSCENC =         0.04144063
  Ewald energy   TEWEN  =       683.53576298
  -Hartree energ DENC   =     -1163.93895795
  -exchange      EXHF   =         0.00000000
  -V(xc)+E(xc)   XCENC  =        55.04579592
  PAW double counting   =      1381.95730246    -1384.76901477
  entropy T*S    EENTRO =         0.00000000
  eigenvalues    EBANDS =      -204.36775702
  atomic energy  EATOM  =       596.16534815
  Solvation  Ediel_sol  =         0.00000000
  ---------------------------------------------------
  free energy    TOTEN  =       -36.33007960 eV

  energy without entropy =      -36.33007960  energy(sigma->0) =      -36.33007960


--------------------------------------------------------------------------------------------------------




----------------------------------------- Iteration    1(  19)  ---------------------------------------


    POTLOK:  cpu time   22.1336: real time   22.1165
    SETDIJ:  cpu time    0.0090: real time    0.0084
     EDDAV:  cpu time   58.2201: real time   58.1719
       DOS:  cpu time    0.0000: real time    0.0002
    CHARGE:  cpu time    6.7040: real time    6.6986
    MIXING:  cpu time    1.7377: real time    1.7373
    --------------------------------------------
      LOOP:  cpu time   88.8065: real time   88.7370

 eigenvalue-minimisations  :    72
 total energy-change (2. order) :-0.3042205E-03  (-0.1399020E-05)
 number of electron      15.9999992 magnetization 
 augmentation part        0.4388876 magnetization 

 Broyden mixing:
  rms(total) = 0.30616E-03    rms(broyden)= 0.30608E-03
  rms(prec ) = 0.34539E-03
  weight for this iteration     100.00

 eigenvalues of (default mixing * dielectric matrix)
  average eigenvalue GAMMA=   2.1911
  8.4173  4.8635  2.8310  2.4775  2.1657  1.4909  1.3454  1.3454  1.0734  1.0734
  0.7797  0.9534  0.9534  0.9054

 Free energy of the ion-electron system (eV)
  ---------------------------------------------------
  alpha Z        PSCENC =         0.04144063
  Ewald energy   TEWEN  =       683.53576298
  -Hartree energ DENC   =     -1163.93396883
  -exchange      EXHF   =         0.00000000
  -V(xc)+E(xc)   XCENC  =        55.04507559
  PAW double counting   =      1381.82270926    -1384.63434332
  entropy T*S    EENTRO =         0.00000000
  eigenvalues    EBANDS =      -204.37240828
  atomic energy  EATOM  =       596.16534815
  Solvation  Ediel_sol  =         0.00000000
  ---------------------------------------------------
  free energy    TOTEN  =       -36.33038382 eV

  energy without entropy =      -36.33038382  energy(sigma->0) =      -36.33038382


--------------------------------------------------------------------------------------------------------




----------------------------------------- Iteration    1(  20)  ---------------------------------------


    POTLOK:  cpu time   21.3887: real time   21.3714
    SETDIJ:  cpu time    0.0080: real time    0.0083
     EDDAV:  cpu time   68.0537: real time   67.9982
       DOS:  cpu time    0.0000: real time    0.0002
    CHARGE:  cpu time    6.1561: real time    6.1519
    MIXING:  cpu time    1.7667: real time    1.7650
    --------------------------------------------
      LOOP:  cpu time   97.3762: real time   97.2989

 eigenvalue-minimisations  :    96
 total energy-change (2. order) :-0.1007700E-03  (-0.3380157E-06)
 number of electron      15.9999992 magnetization 
 augmentation part        0.4388826 magnetization 

 Broyden mixing:
  rms(total) = 0.11318E-03    rms(broyden)= 0.11312E-03
  rms(prec ) = 0.14789E-03
  weight for this iteration     100.00

 eigenvalues of (default mixing * dielectric matrix)
  average eigenvalue GAMMA=   2.2776
  8.6335  5.5138  3.3298  2.4273  2.4273  1.9402  1.3806  1.3806  1.4799  0.7797
  1.0991  0.9720  0.9720  0.9142  0.9142

 Free energy of the ion-electron system (eV)
  ---------------------------------------------------
  alpha Z        PSCENC =         0.04144063
  Ewald energy   TEWEN  =       683.53576298
  -Hartree energ DENC   =     -1163.93806622
  -exchange      EXHF   =         0.00000000
  -V(xc)+E(xc)   XCENC  =        55.04516934
  PAW double counting   =      1381.79412668    -1384.60580125
  entropy T*S    EENTRO =         0.00000000
  eigenvalues    EBANDS =      -204.36846490
  atomic energy  EATOM  =       596.16534815
  Solvation  Ediel_sol  =         0.00000000
  ---------------------------------------------------
  free energy    TOTEN  =       -36.33048459 eV

  energy without entropy =      -36.33048459  energy(sigma->0) =      -36.33048459


--------------------------------------------------------------------------------------------------------




----------------------------------------- Iteration    1(  21)  ---------------------------------------


    POTLOK:  cpu time   21.1588: real time   21.1416
    SETDIJ:  cpu time    0.0080: real time    0.0083
     EDDAV:  cpu time   52.5540: real time   52.5116
       DOS:  cpu time    0.0000: real time    0.0002
    --------------------------------------------
      LOOP:  cpu time   73.7238: real time   73.6655

 eigenvalue-minimisations  :    68
 total energy-change (2. order) :-0.9008544E-04  (-0.2764274E-06)
 number of electron      15.9999992 magnetization 
 augmentation part        0.4388826 magnetization 

 Free energy of the ion-electron system (eV)
  ---------------------------------------------------
  alpha Z        PSCENC =         0.04144063
  Ewald energy   TEWEN  =       683.53576298
  -Hartree energ DENC   =     -1163.94346301
  -exchange      EXHF   =         0.00000000
  -V(xc)+E(xc)   XCENC  =        55.04530206
  PAW double counting   =      1381.80526642    -1384.61697285
  entropy T*S    EENTRO =         0.00000000
  eigenvalues    EBANDS =      -204.36325905
  atomic energy  EATOM  =       596.16534815
  Solvation  Ediel_sol  =         0.00000000
  ---------------------------------------------------
  free energy    TOTEN  =       -36.33057468 eV

  energy without entropy =      -36.33057468  energy(sigma->0) =      -36.33057468


--------------------------------------------------------------------------------------------------------




 average (electrostatic) potential at core
  the test charge radii are     0.5201  0.6991  0.7089
  (the norm of the test charge is              1.0000)
       1 -43.1123       2 -43.1130       3 -43.0448       4 -59.9848       5 -60.0303
       6 -73.3030
 
 
 
 E-fermi :  -6.9014     XC(G=0):  -0.0890     alpha+bet : -0.0137


 k-point     1 :       0.2500    0.2500    0.2500
  band No.  band energies     occupation 
      1     -22.6957      2.00000
      2     -19.2340      2.00000
      3     -12.5784      2.00000
      4     -11.5614      2.00000
      5     -11.4326      2.00000
      6      -8.6955      2.00000
      7      -8.1345      2.00000
      8      -7.8495      2.00000
      9      -1.6643      0.00000
     10      -0.4340      0.00000
     11      -0.4122      0.00000
     12      -0.0049      0.00000

 k-point     2 :      -0.2500    0.2500    0.2500
  band No.  band energies     occupation 
      1     -22.6957      2.00000
      2     -19.2340      2.00000
      3     -12.5784      2.00000
      4     -11.5614      2.00000
      5     -11.4326      2.00000
      6      -8.6955      2.00000
      7      -8.1345      2.00000
      8      -7.8495      2.00000
      9      -1.6643      0.00000
     10      -0.4340      0.00000
     11      -0.4122      0.00000
     12      -0.0076      0.00000

 k-point     3 :       0.2500   -0.2500    0.2500
  band No.  band energies     occupation 
      1     -22.6957      2.00000
      2     -19.2340      2.00000
      3     -12.5784      2.00000
      4     -11.5614      2.00000
      5     -11.4326      2.00000
      6      -8.6955      2.00000
      7      -8.1345      2.00000
      8      -7.8495      2.00000
      9      -1.6643      0.00000
     10      -0.4341      0.00000
     11      -0.4122      0.00000
     12      -0.0048      0.00000

 k-point     4 :      -0.2500   -0.2500    0.2500
  band No.  band energies     occupation 
      1     -22.6957      2.00000
      2     -19.2340      2.00000
      3     -12.5784      2.00000
      4     -11.5614      2.00000
      5     -11.4326      2.00000
      6      -8.6955      2.00000
      7      -8.1345      2.00000
      8      -7.8495      2.00000
      9      -1.6643      0.00000
     10      -0.4340      0.00000
     11      -0.4122      0.00000
     12      -0.0060      0.00000


--------------------------------------------------------------------------------------------------------


 soft charge-density along one line, spin component           1
         0         1         2         3         4         5         6         7         8         9
 total charge-density along one line
 
 pseudopotential strength for first ion, spin component:           1
 -2.363  -4.076  -0.002   0.000  -0.001
 -4.076  -6.944  -0.006   0.000  -0.002
 -0.002  -0.006  -0.329   0.000   0.001
  0.000   0.000   0.000  -0.334   0.000
 -0.001  -0.002   0.001   0.000  -0.333
 total augmentation occupancy for first ion, spin component:           1
  3.515  -0.633   0.429   0.008   0.118
 -0.633   0.129  -0.079  -0.002  -0.022
  0.429  -0.079   0.053   0.001   0.012
  0.008  -0.002   0.001   0.009   0.000
  0.118  -0.022   0.012   0.000   0.011


------------------------ aborting loop because EDIFF is reached ----------------------------------------


    CHARGE:  cpu time    5.8431: real time    5.8390
    FORLOC:  cpu time    2.8026: real time    2.8002
    FORNL :  cpu time   19.1581: real time   19.1416
    STRESS:  cpu time   59.0230: real time   58.9754
    FORCOR:  cpu time   21.4777: real time   21.4591
    FORHAR:  cpu time    7.4919: real time    7.4858
    MIXING:  cpu time    1.5028: real time    1.5012
    OFIELD:  cpu time    0.0000: real time    0.0000

  FORCE on cell =-STRESS in cart. coord.  units (eV):
  Direction    XX          YY          ZZ          XY          YZ          ZX
  --------------------------------------------------------------------------------------
  Alpha Z     0.04144     0.04144     0.04144
  Ewald     535.43295    73.00156    75.10099   118.74229    28.56495    81.38533
  Hartree   563.85833   301.17060   298.91294    59.99362    10.50046    30.49473
  E(xc)     -59.27090   -60.29177   -60.28158     0.31549     0.09462     0.29448
  Local   -1249.37635  -543.74026  -542.16636  -171.19939   -35.81300  -103.03747
  n-local   -27.50416   -25.18758   -25.22213    -1.31230    -0.53944    -1.97843
  augment     0.50347     0.38039     0.32177     0.00970    -0.03495    -0.03433
  Kinetic   238.04198   253.66508   251.99957    -6.01912    -2.86446    -6.98854
  Fock        0.00000     0.00000     0.00000     0.00000     0.00000     0.00000
  -------------------------------------------------------------------------------------
  Total       1.72676    -0.96054    -1.29337     0.53031    -0.09182     0.13576
  in kB       0.10247    -0.05700    -0.07675     0.03147    -0.00545     0.00806
  external pressure =       -0.01 kB  Pullay stress =        0.00 kB


 VOLUME and BASIS-vectors are now :
 -----------------------------------------------------------------------------
  energy-cutoff  :      400.00
  volume of cell :    27000.00
      direct lattice vectors                 reciprocal lattice vectors
    30.000000000  0.000000000  0.000000000     0.033333333  0.000000000  0.000000000
     0.000000000 30.000000000  0.000000000     0.000000000  0.033333333  0.000000000
     0.000000000  0.000000000 30.000000000     0.000000000  0.000000000  0.033333333

  length of vectors
    30.000000000 30.000000000 30.000000000     0.033333333  0.033333333  0.033333333


 FORCES acting on ions
    electron-ion (+dipol)            ewald-force                    non-local-force                 convergence-correction
 -----------------------------------------------------------------------------------------------
   0.271E+02 0.595E+02 0.160E+01   -.288E+02 -.651E+02 -.186E+01   0.149E+01 0.549E+01 0.799E-01   -.375E-04 -.547E-03 -.815E-05
   0.424E+02 -.309E+02 0.392E+02   -.455E+02 0.339E+02 -.430E+02   0.295E+01 -.318E+01 0.368E+01   -.190E-03 0.348E-03 -.380E-03
   0.253E+02 -.193E+02 -.569E+02   -.264E+02 0.212E+02 0.620E+02   0.762E+00 -.201E+01 -.515E+01   0.714E-04 0.220E-03 0.501E-03
   0.103E+03 0.191E+02 0.374E+01   -.108E+03 -.197E+02 -.320E+01   0.486E+01 0.582E+00 -.593E+00   0.127E-02 0.203E-03 -.260E-04
   0.412E+02 0.479E+02 0.962E+02   -.433E+02 -.493E+02 -.988E+02   0.174E+01 0.187E+01 0.372E+01   0.286E-02 0.704E-03 0.523E-03
   -.217E+03 -.662E+02 -.688E+02   0.252E+03 0.790E+02 0.849E+02   -.335E+02 -.128E+02 -.168E+02   -.826E-03 -.425E-03 -.660E-03
 -----------------------------------------------------------------------------------------------
   0.216E+02 0.101E+02 0.151E+02   0.284E-13 0.000E+00 0.000E+00   -.217E+02 -.101E+02 -.151E+02   0.315E-02 0.503E-03 -.498E-04
 
 
 POSITION                                       TOTAL-FORCE (eV/Angst)
 -----------------------------------------------------------------------------------
     14.23650     13.83684     14.91211        -0.201747     -0.067691     -0.173390
     13.95706     15.49683     14.22300        -0.193188     -0.133326     -0.145150
     14.36268     15.28702     15.95351        -0.353123     -0.101681     -0.098696
     14.52241     14.89191     14.93730        -0.142792     -0.046397     -0.053628
     15.95209     15.06415     14.76787        -0.265322      0.434551      1.137392
     16.96956     15.42382     15.20621         1.156172     -0.085456     -0.666528
 -----------------------------------------------------------------------------------
    total drift:                               -0.002253     -0.003009     -0.001761


--------------------------------------------------------------------------------------------------------



  FREE ENERGIE OF THE ION-ELECTRON SYSTEM (eV)
  ---------------------------------------------------
  free  energy   TOTEN  =       -36.33057468 eV

  energy  without entropy=      -36.33057468  energy(sigma->0) =      -36.33057468
 


--------------------------------------------------------------------------------------------------------


    POTLOK:  cpu time   19.1691: real time   19.1549


--------------------------------------------------------------------------------------------------------


 NEB: the previous image is higher in energy: T
 NEB: the next image is higher in energy    : F
 NEB: only prev energy greater

 NEB: Tangent
 ----------------------------------------------
     -0.10715     -0.03552     -0.09085
     -0.09989     -0.06971     -0.07578
     -0.18052     -0.05349     -0.05197
     -0.07586     -0.02577     -0.02914
     -0.14089      0.22474      0.59565
      0.60431     -0.04025     -0.34791

 NEB: forces: par spring, perp REAL, dneb     0.035780    0.014498    0.000000
 NEB: distance to prev, next image, angle between     0.351760    0.358916  142.928745
 NEB: projections on to tangent (spring, REAL)     0.035780    1.913814

 stress matrix after NEB project (eV)
      1.72676      0.53031      0.13576
      0.53031     -0.96054     -0.09182
      0.13576     -0.09182     -1.29337
  FORCES: max atom, RMS     0.026871    0.015761
  FORCE total and by dimension    0.038606    0.021263
  Stress total and by dimension    2.488639    1.726760
 
 OPT: Flag T
 OPT: FIRE Step
 OPT: FIRE, TIMESTEP      0.10000
 OPT: FIRE, alpha         0.10000


--------------------------------------------------------------------------------------------------------


    WAVPRE:  cpu time    8.6557: real time    8.6490
 FEWALD executed in parallel
    FEWALD:  cpu time    0.0010: real time    0.0004
    ORTHCH:  cpu time    7.0449: real time    7.0402
     LOOP+:  cpu time 2409.2117: real time 2408.1788


----------------------------------------- Iteration    2(   1)  ---------------------------------------


    POTLOK:  cpu time   25.3012: real time   25.2816
    SETDIJ:  cpu time    0.0090: real time    0.0085
     EDDAV:  cpu time   87.3707: real time   87.2997
       DOS:  cpu time    0.0000: real time    0.0002
    CHARGE:  cpu time    7.1829: real time    7.1776
    MIXING:  cpu time    0.6849: real time    0.6844
    --------------------------------------------
      LOOP:  cpu time  120.5507: real time  120.4546

 eigenvalue-minimisations  :   128
 total energy-change (2. order) :-0.7999794E-03  (-0.3397304E-04)
 number of electron      15.9999992 magnetization 
 augmentation part        0.4388840 magnetization 

 Broyden mixing:
  rms(total) = 0.41430E-03    rms(broyden)= 0.40790E-03
  rms(prec ) = 0.41710E-03
  weight for this iteration     100.00

 Free energy of the ion-electron system (eV)
  ---------------------------------------------------
  alpha Z        PSCENC =         0.04144063
  Ewald energy   TEWEN  =       683.51905998
  -Hartree energ DENC   =     -1163.92753670
  -exchange      EXHF   =         0.00000000
  -V(xc)+E(xc)   XCENC  =        55.04507847
  PAW double counting   =      1381.81084525    -1384.62253885
  entropy T*S    EENTRO =         0.00000000
  eigenvalues    EBANDS =      -204.36298149
  atomic energy  EATOM  =       596.16534815
  Solvation  Ediel_sol  =         0.00000000
  ---------------------------------------------------
  free energy    TOTEN  =       -36.33128457 eV

  energy without entropy =      -36.33128457  energy(sigma->0) =      -36.33128457


--------------------------------------------------------------------------------------------------------




----------------------------------------- Iteration    2(   2)  ---------------------------------------


    POTLOK:  cpu time   21.9107: real time   21.8930
    SETDIJ:  cpu time    0.0080: real time    0.0083
     EDDAV:  cpu time   67.9377: real time   67.8827
       DOS:  cpu time    0.0000: real time    0.0002
    CHARGE:  cpu time    7.0579: real time    7.0526
    MIXING:  cpu time    0.7439: real time    0.7432
    --------------------------------------------
      LOOP:  cpu time   97.6612: real time   97.5850

 eigenvalue-minimisations  :    92
 total energy-change (2. order) :-0.7449105E-05  (-0.2849726E-06)
 number of electron      15.9999992 magnetization 
 augmentation part        0.4388700 magnetization 

 Broyden mixing:
  rms(total) = 0.24426E-03    rms(broyden)= 0.24382E-03
  rms(prec ) = 0.24865E-03
  weight for this iteration     100.00

 eigenvalues of (default mixing * dielectric matrix)
  average eigenvalue GAMMA=   1.5814
  1.5814

 Free energy of the ion-electron system (eV)
  ---------------------------------------------------
  alpha Z        PSCENC =         0.04144063
  Ewald energy   TEWEN  =       683.51905998
  -Hartree energ DENC   =     -1163.92797326
  -exchange      EXHF   =         0.00000000
  -V(xc)+E(xc)   XCENC  =        55.04510494
  PAW double counting   =      1381.82459236    -1384.63628636
  entropy T*S    EENTRO =         0.00000000
  eigenvalues    EBANDS =      -204.36257845
  atomic energy  EATOM  =       596.16534815
  Solvation  Ediel_sol  =         0.00000000
  ---------------------------------------------------
  free energy    TOTEN  =       -36.33129202 eV

  energy without entropy =      -36.33129202  energy(sigma->0) =      -36.33129202


--------------------------------------------------------------------------------------------------------




----------------------------------------- Iteration    2(   3)  ---------------------------------------


    POTLOK:  cpu time   23.0105: real time   22.9921
[...]
  Solvation  Ediel_sol  =         0.00000000
  ---------------------------------------------------
  free energy    TOTEN  =       -36.43130065 eV

  energy without entropy =      -36.43130065  energy(sigma->0) =      -36.43130065


--------------------------------------------------------------------------------------------------------




----------------------------------------- Iteration  135(   2)  ---------------------------------------


    POTLOK:  cpu time   24.2673: real time   24.2478
    SETDIJ:  cpu time    0.0080: real time    0.0084
     EDDAV:  cpu time   46.3040: real time   46.2669
       DOS:  cpu time    0.0000: real time    0.0002
    CHARGE:  cpu time    5.7821: real time    5.7778
    MIXING:  cpu time    0.6719: real time    0.6715
    --------------------------------------------
      LOOP:  cpu time   77.0363: real time   76.9773

 eigenvalue-minimisations  :    48
 total energy-change (2. order) :-0.1360058E-07  (-0.1775326E-07)
 number of electron      16.0000006 magnetization 
 augmentation part        0.4389509 magnetization 

 Broyden mixing:
  rms(total) = 0.24636E-04    rms(broyden)= 0.24594E-04
  rms(prec ) = 0.24925E-04
  weight for this iteration     100.00

 eigenvalues of (default mixing * dielectric matrix)
  average eigenvalue GAMMA=   1.3748
  1.3748

 Free energy of the ion-electron system (eV)
  ---------------------------------------------------
  alpha Z        PSCENC =         0.04144063
  Ewald energy   TEWEN  =       681.59612365
  -Hartree energ DENC   =     -1161.99156468
  -exchange      EXHF   =         0.00000000
  -V(xc)+E(xc)   XCENC  =        55.04175627
  PAW double counting   =      1382.99772730    -1385.80810841
  entropy T*S    EENTRO =         0.00000000
  eigenvalues    EBANDS =      -204.47402358
  atomic energy  EATOM  =       596.16534815
  Solvation  Ediel_sol  =         0.00000000
  ---------------------------------------------------
  free energy    TOTEN  =       -36.43130066 eV

  energy without entropy =      -36.43130066  energy(sigma->0) =      -36.43130066


--------------------------------------------------------------------------------------------------------




----------------------------------------- Iteration  135(   3)  ---------------------------------------


    POTLOK:  cpu time   23.4664: real time   23.4485
    SETDIJ:  cpu time    0.0080: real time    0.0083
     EDDAV:  cpu time   45.1171: real time   45.0791
       DOS:  cpu time    0.0000: real time    0.0002
    CHARGE:  cpu time    5.9281: real time    5.9234
    MIXING:  cpu time    0.8009: real time    0.8001
    --------------------------------------------
      LOOP:  cpu time   75.3225: real time   75.2645

 eigenvalue-minimisations  :    48
 total energy-change (2. order) :-0.3816922E-08  (-0.3821773E-08)
 number of electron      16.0000006 magnetization 
 augmentation part        0.4389512 magnetization 

 Broyden mixing:
  rms(total) = 0.13443E-04    rms(broyden)= 0.13428E-04
  rms(prec ) = 0.13653E-04
  weight for this iteration     100.00

 eigenvalues of (default mixing * dielectric matrix)
  average eigenvalue GAMMA=   1.6473
  1.0022  2.2925

 Free energy of the ion-electron system (eV)
  ---------------------------------------------------
  alpha Z        PSCENC =         0.04144063
  Ewald energy   TEWEN  =       681.59612365
  -Hartree energ DENC   =     -1161.99155685
  -exchange      EXHF   =         0.00000000
  -V(xc)+E(xc)   XCENC  =        55.04175574
  PAW double counting   =      1382.99865311    -1385.80903399
  entropy T*S    EENTRO =         0.00000000
  eigenvalues    EBANDS =      -204.47403111
  atomic energy  EATOM  =       596.16534815
  Solvation  Ediel_sol  =         0.00000000
  ---------------------------------------------------
  free energy    TOTEN  =       -36.43130067 eV

  energy without entropy =      -36.43130067  energy(sigma->0) =      -36.43130067


--------------------------------------------------------------------------------------------------------




----------------------------------------- Iteration  135(   4)  ---------------------------------------


    POTLOK:  cpu time   23.9404: real time   23.9221
    SETDIJ:  cpu time    0.0080: real time    0.0084
     EDDAV:  cpu time   45.8870: real time   45.8494
       DOS:  cpu time    0.0000: real time    0.0002
    CHARGE:  cpu time    5.9731: real time    5.9687
    MIXING:  cpu time    0.7359: real time    0.7353
    --------------------------------------------
      LOOP:  cpu time   76.5474: real time   76.4895

 eigenvalue-minimisations  :    48
 total energy-change (2. order) :-0.4724825E-09  (-0.2285433E-08)
 number of electron      16.0000006 magnetization 
 augmentation part        0.4389514 magnetization 

 Broyden mixing:
  rms(total) = 0.31520E-05    rms(broyden)= 0.31413E-05
  rms(prec ) = 0.32022E-05
  weight for this iteration     100.00

 eigenvalues of (default mixing * dielectric matrix)
  average eigenvalue GAMMA=   1.5670
  2.4666  0.9094  1.3250

 Free energy of the ion-electron system (eV)
  ---------------------------------------------------
  alpha Z        PSCENC =         0.04144063
  Ewald energy   TEWEN  =       681.59612365
  -Hartree energ DENC   =     -1161.99151305
  -exchange      EXHF   =         0.00000000
  -V(xc)+E(xc)   XCENC  =        55.04175368
  PAW double counting   =      1382.99961567    -1385.80999692
  entropy T*S    EENTRO =         0.00000000
  eigenvalues    EBANDS =      -204.47407248
  atomic energy  EATOM  =       596.16534815
  Solvation  Ediel_sol  =         0.00000000
  ---------------------------------------------------
  free energy    TOTEN  =       -36.43130067 eV

  energy without entropy =      -36.43130067  energy(sigma->0) =      -36.43130067


--------------------------------------------------------------------------------------------------------




----------------------------------------- Iteration  135(   5)  ---------------------------------------


    POTLOK:  cpu time   22.2196: real time   22.2012
    SETDIJ:  cpu time    0.0080: real time    0.0084
     EDDAV:  cpu time   44.6692: real time   44.6331
       DOS:  cpu time    0.0000: real time    0.0002
    CHARGE:  cpu time    6.3350: real time    6.3301
    MIXING:  cpu time    0.8739: real time    0.8736
    --------------------------------------------
      LOOP:  cpu time   74.1087: real time   74.0513

 eigenvalue-minimisations  :    48
 total energy-change (2. order) :-0.1336957E-09  (-0.1930509E-08)
 number of electron      16.0000006 magnetization 
 augmentation part        0.4389515 magnetization 

 Broyden mixing:
  rms(total) = 0.20668E-05    rms(broyden)= 0.20638E-05
  rms(prec ) = 0.21167E-05
  weight for this iteration     100.00

 eigenvalues of (default mixing * dielectric matrix)
  average eigenvalue GAMMA=   1.6649
  2.3981  2.3981  1.0403  0.8231

 Free energy of the ion-electron system (eV)
  ---------------------------------------------------
  alpha Z        PSCENC =         0.04144063
  Ewald energy   TEWEN  =       681.59612365
  -Hartree energ DENC   =     -1161.99149764
  -exchange      EXHF   =         0.00000000
  -V(xc)+E(xc)   XCENC  =        55.04175296
  PAW double counting   =      1382.99985802    -1385.81023973
  entropy T*S    EENTRO =         0.00000000
  eigenvalues    EBANDS =      -204.47408670
  atomic energy  EATOM  =       596.16534815
  Solvation  Ediel_sol  =         0.00000000
  ---------------------------------------------------
  free energy    TOTEN  =       -36.43130067 eV

  energy without entropy =      -36.43130067  energy(sigma->0) =      -36.43130067


--------------------------------------------------------------------------------------------------------




----------------------------------------- Iteration  135(   6)  ---------------------------------------


    POTLOK:  cpu time   23.0035: real time   22.9846
    SETDIJ:  cpu time    0.0080: real time    0.0084
     EDDAV:  cpu time   44.8892: real time   44.8530
       DOS:  cpu time    0.0000: real time    0.0002
    --------------------------------------------
      LOOP:  cpu time   67.9027: real time   67.8504

 eigenvalue-minimisations  :    48
 total energy-change (2. order) : 0.4349658E-09  (-0.1834800E-08)
 number of electron      16.0000006 magnetization 
 augmentation part        0.4389515 magnetization 

 Free energy of the ion-electron system (eV)
  ---------------------------------------------------
  alpha Z        PSCENC =         0.04144063
  Ewald energy   TEWEN  =       681.59612365
  -Hartree energ DENC   =     -1161.99148868
  -exchange      EXHF   =         0.00000000
  -V(xc)+E(xc)   XCENC  =        55.04175266
  PAW double counting   =      1383.00006547    -1385.81044777
  entropy T*S    EENTRO =         0.00000000
  eigenvalues    EBANDS =      -204.47409477
  atomic energy  EATOM  =       596.16534815
  Solvation  Ediel_sol  =         0.00000000
  ---------------------------------------------------
  free energy    TOTEN  =       -36.43130067 eV

  energy without entropy =      -36.43130067  energy(sigma->0) =      -36.43130067


--------------------------------------------------------------------------------------------------------




 average (electrostatic) potential at core
  the test charge radii are     0.5201  0.6991  0.7089
  (the norm of the test charge is              1.0000)
       1 -43.1372       2 -43.1373       3 -43.0987       4 -60.0120       5 -60.0377
       6 -73.2657
 
 
 
 E-fermi :  -6.9545     XC(G=0):  -0.0606     alpha+bet : -0.0137


 k-point     1 :       0.2500    0.2500    0.2500
  band No.  band energies     occupation 
      1     -22.6470      2.00000
      2     -19.2969      2.00000
      3     -12.6400      2.00000
      4     -11.5551      2.00000
      5     -11.4627      2.00000
      6      -8.6330      2.00000
      7      -8.1190      2.00000
      8      -7.8833      2.00000
      9      -1.4414      0.00000
     10      -0.4363      0.00000
     11      -0.4273      0.00000
     12       0.0245      0.00000

 k-point     2 :      -0.2500    0.2500    0.2500
  band No.  band energies     occupation 
      1     -22.6470      2.00000
      2     -19.2969      2.00000
      3     -12.6400      2.00000
      4     -11.5551      2.00000
      5     -11.4627      2.00000
      6      -8.6330      2.00000
      7      -8.1190      2.00000
      8      -7.8833      2.00000
      9      -1.4414      0.00000
     10      -0.4363      0.00000
     11      -0.4274      0.00000
     12       0.0218      0.00000

 k-point     3 :       0.2500   -0.2500    0.2500
  band No.  band energies     occupation 
      1     -22.6470      2.00000
      2     -19.2969      2.00000
      3     -12.6400      2.00000
      4     -11.5551      2.00000
      5     -11.4627      2.00000
      6      -8.6330      2.00000
      7      -8.1190      2.00000
      8      -7.8833      2.00000
      9      -1.4414      0.00000
     10      -0.4363      0.00000
     11      -0.4274      0.00000
     12       0.0239      0.00000

 k-point     4 :      -0.2500   -0.2500    0.2500
  band No.  band energies     occupation 
      1     -22.6470      2.00000
      2     -19.2969      2.00000
      3     -12.6400      2.00000
      4     -11.5551      2.00000
      5     -11.4627      2.00000
      6      -8.6330      2.00000
      7      -8.1190      2.00000
      8      -7.8833      2.00000
      9      -1.4414      0.00000
     10      -0.4363      0.00000
     11      -0.4273      0.00000
     12       0.0232      0.00000


--------------------------------------------------------------------------------------------------------


 soft charge-density along one line, spin component           1
         0         1         2         3         4         5         6         7         8         9
 total charge-density along one line
 
 pseudopotential strength for first ion, spin component:           1
 -2.364  -4.077  -0.002   0.000   0.000
 -4.077  -6.946  -0.006   0.000  -0.002
 -0.002  -0.006  -0.329   0.000   0.001
  0.000   0.000   0.000  -0.334   0.000
  0.000  -0.002   0.001   0.000  -0.333
 total augmentation occupancy for first ion, spin component:           1
  3.506  -0.631   0.428   0.013   0.115
 -0.631   0.129  -0.079  -0.003  -0.021
  0.428  -0.079   0.053   0.001   0.012
  0.013  -0.003   0.001   0.009   0.001
  0.115  -0.021   0.012   0.001   0.011


------------------------ aborting loop because EDIFF is reached ----------------------------------------


    CHARGE:  cpu time    6.1331: real time    6.1282
    FORLOC:  cpu time    2.8536: real time    2.8508
    FORNL :  cpu time   20.8338: real time   20.8166
    STRESS:  cpu time   60.7478: real time   60.6982
    FORCOR:  cpu time   21.7187: real time   21.7014
    FORHAR:  cpu time    7.6598: real time    7.6532
    MIXING:  cpu time    0.9369: real time    0.9361
    OFIELD:  cpu time    0.0000: real time    0.0000

  FORCE on cell =-STRESS in cart. coord.  units (eV):
  Direction    XX          YY          ZZ          XY          YZ          ZX
  --------------------------------------------------------------------------------------
  Alpha Z     0.04144     0.04144     0.04144
  Ewald     546.69486    69.33143    65.56957   117.16644    23.35674    75.19317
  Hartree   567.23557   299.55245   295.20345    59.42341     8.66509    28.24131
  E(xc)     -59.22230   -60.30096   -60.30890     0.30976     0.07751     0.27193
  Local   -1262.45335  -538.87706  -530.11532  -169.12016   -29.38796   -95.08793
  n-local   -27.69134   -25.12698   -25.14269    -1.18282    -0.44518    -1.67026
  augment     0.47976     0.37870     0.33937     0.00258    -0.02594    -0.04442
  Kinetic   236.13928   254.02511   253.24740    -6.23747    -2.30824    -6.96485
  Fock        0.00000     0.00000     0.00000     0.00000     0.00000     0.00000
  -------------------------------------------------------------------------------------
  Total       1.22392    -0.97588    -1.16567     0.36173    -0.06799    -0.06107
  in kB       0.07263    -0.05791    -0.06917     0.02147    -0.00403    -0.00362
  external pressure =       -0.02 kB  Pullay stress =        0.00 kB


 VOLUME and BASIS-vectors are now :
 -----------------------------------------------------------------------------
  energy-cutoff  :      400.00
  volume of cell :    27000.00
      direct lattice vectors                 reciprocal lattice vectors
    30.000000000  0.000000000  0.000000000     0.033333333  0.000000000  0.000000000
     0.000000000 30.000000000  0.000000000     0.000000000  0.033333333  0.000000000
     0.000000000  0.000000000 30.000000000     0.000000000  0.000000000  0.033333333

  length of vectors
    30.000000000 30.000000000 30.000000000     0.033333333  0.033333333  0.033333333


 FORCES acting on ions
    electron-ion (+dipol)            ewald-force                    non-local-force                 convergence-correction
 -----------------------------------------------------------------------------------------------
   0.266E+02 0.596E+02 0.234E+01   -.282E+02 -.651E+02 -.264E+01   0.146E+01 0.548E+01 0.148E+00   -.688E-06 0.119E-07 0.705E-06
   0.422E+02 -.304E+02 0.395E+02   -.453E+02 0.334E+02 -.433E+02   0.295E+01 -.312E+01 0.370E+01   -.892E-06 -.692E-06 0.302E-06
   0.262E+02 -.189E+02 -.566E+02   -.274E+02 0.208E+02 0.617E+02   0.882E+00 -.197E+01 -.515E+01   -.433E-06 -.464E-06 0.159E-06
   0.102E+03 0.194E+02 0.476E+01   -.107E+03 -.201E+02 -.440E+01   0.482E+01 0.683E+00 -.359E+00   -.438E-05 -.238E-05 0.244E-05
   0.465E+02 0.416E+02 0.831E+02   -.485E+02 -.429E+02 -.853E+02   0.181E+01 0.157E+01 0.312E+01   -.429E-05 -.822E-05 0.601E-05
   -.220E+03 -.620E+02 -.599E+02   0.256E+03 0.739E+02 0.739E+02   -.351E+02 -.120E+02 -.147E+02   -.599E-05 -.105E-04 0.105E-04
 -----------------------------------------------------------------------------------------------
   0.232E+02 0.933E+01 0.132E+02   -.284E-13 0.000E+00 0.000E+00   -.232E+02 -.933E+01 -.132E+02   -.167E-04 -.223E-04 0.201E-04
 
 
 POSITION                                       TOTAL-FORCE (eV/Angst)
 -----------------------------------------------------------------------------------
     14.24129     13.83507     14.90226        -0.128355     -0.040123     -0.147392
     13.95414     15.49095     14.21778        -0.115510     -0.110409     -0.118991
     14.33701     15.28023     15.95345        -0.385938     -0.086319     -0.048910
     14.52032     14.89317     14.93935        -0.101253     -0.017877     -0.002731
     15.94954     15.08331     14.80279        -0.164345      0.345913      0.918620
     16.99800     15.41782     15.18436         0.895401     -0.091184     -0.600597
 -----------------------------------------------------------------------------------
    total drift:                               -0.009483      0.000968     -0.002008


--------------------------------------------------------------------------------------------------------



  FREE ENERGIE OF THE ION-ELECTRON SYSTEM (eV)
  ---------------------------------------------------
  free  energy   TOTEN  =       -36.43130067 eV

  energy  without entropy=      -36.43130067  energy(sigma->0) =      -36.43130067
 
 d Force = 0.4233852E-04[ 0.423E-04, 0.423E-04]  d Energy = 0.4233983E-04-0.131E-08
 d Force = 0.5855487E-03[ 0.586E-03, 0.585E-03]  d Ewald  = 0.5855488E-03-0.662E-10


--------------------------------------------------------------------------------------------------------


    POTLOK:  cpu time   22.3056: real time   22.2879


--------------------------------------------------------------------------------------------------------


 NEB: the previous image is higher in energy: T
 NEB: the next image is higher in energy    : F
 NEB: only prev energy greater

 NEB: Tangent
 ----------------------------------------------
     -0.08639     -0.02426     -0.09181
     -0.07155     -0.07069     -0.07902
     -0.24855     -0.05095     -0.03269
     -0.06548     -0.01099     -0.00147
     -0.10560      0.21752      0.59268
      0.57757     -0.06063     -0.38768

 NEB: forces: par spring, perp REAL, dneb     0.008658    0.015319    0.000000
 NEB: distance to prev, next image, angle between     0.346565    0.348296  143.771863
 NEB: projections on to tangent (spring, REAL)     0.008658    1.552398

 stress matrix after NEB project (eV)
      1.22392      0.36173     -0.06107
      0.36173     -0.97588     -0.06799
     -0.06107     -0.06799     -1.16567
  FORCES: max atom, RMS     0.010840    0.007184
  FORCE total and by dimension    0.017596    0.010111
  Stress total and by dimension    2.021758    1.223917
 OPT: skip step - force has converged


--------------------------------------------------------------------------------------------------------


  
 reached required accuracy - stopping structural energy minimisation
     LOOP+:  cpu time  682.7772: real time  682.2598
    4ORBIT:  cpu time    0.0000: real time    0.0000

 total amount of memory used by VASP on root node  3203887. kBytes
========================================================================

   base      :      30000. kBytes
   nonlr-proj:        691. kBytes
   fftplans  :     924480. kBytes
   grid      :    1872000. kBytes
   one-center:         18. kBytes
   wavefun   :     376698. kBytes
 
  
  
 General timing and accounting informations for this job:
 ========================================================
  
                  Total CPU time used (sec):    97153.055
                            User time (sec):    95663.876
                          System time (sec):     1489.179
                         Elapsed time (sec):    97128.524
  
                   Maximum memory used (kb):     4765164.
                   Average memory used (kb):           0.
  
                          Minor page faults:    112242113
                          Major page faults:            5
                 Voluntary context switches:        15919
