 vasp.5.4.1 24Jun15 (build Jan 13 2020 12:58:22) complex                        
  
 POSCAR found type information on POSCAR  H  C  N 
 11/POSCAR found :  3 types and       6 ions
 scaLAPACK will be used

 ----------------------------------------------------------------------------- 
|                                                                             |
|  ADVICE TO THIS USER RUNNING 'VASP/VAMP'   (HEAR YOUR MASTER'S VOICE ...):  |
|                                                                             |
|      You have a (more or less) 'small supercell' and for smaller cells      |
|      it is recommended  to use the reciprocal-space projection scheme!      |
|      The real space optimization is not  efficient for small cells and it   |
|      is also less accurate ...                                              |
|      Therefore set LREAL=.FALSE. in the  INCAR file                         |
|                                                                             |
 ----------------------------------------------------------------------------- 

 LDA part: xc-table for Pade appr. of Perdew
 POSCAR found type information on POSCAR  H  C  N 
 00/POSCAR found :  3 types and       6 ions
 POSCAR found type information on POSCAR  H  C  N 
 16/POSCAR found :  3 types and       6 ions
 Jacobian:    40.4401846379183     
 POSCAR, INCAR and KPOINTS ok, starting setup
 WARNING: small aliasing (wrap around) errors must be expected
 FFT: planning ...
 WAVECAR not read
 entering main loop
       N       E                     dE             d eps       ncg     rms          rms(c)
DAV:   1     0.115462869373E+03    0.11546E+03   -0.21320E+03   160   0.366E+02
DAV:   2    -0.230041113737E+01   -0.11776E+03   -0.11533E+03   192   0.106E+02
DAV:   3    -0.374479664414E+02   -0.35148E+02   -0.34940E+02   128   0.966E+01
DAV:   4    -0.404543046614E+02   -0.30063E+01   -0.29531E+01   128   0.295E+01
DAV:   5    -0.405157509213E+02   -0.61446E-01   -0.60645E-01   112   0.474E+00    0.110E+01
DAV:   6    -0.371770147849E+02    0.33387E+01   -0.63029E+00   128   0.179E+01    0.602E+00
DAV:   7    -0.365154117933E+02    0.66160E+00   -0.15627E+00   112   0.904E+00    0.310E+00
DAV:   8    -0.363390352471E+02    0.17638E+00   -0.41566E-01   128   0.502E+00    0.117E+00
DAV:   9    -0.363117335101E+02    0.27302E-01   -0.41938E-02   128   0.167E+00    0.340E-01
DAV:  10    -0.363078513047E+02    0.38822E-02   -0.49376E-03   128   0.606E-01    0.147E-01
DAV:  11    -0.363088803011E+02   -0.10290E-02   -0.18297E-03   120   0.322E-01    0.966E-02
DAV:  12    -0.363151864219E+02   -0.63061E-02   -0.42977E-03    96   0.515E-01    0.477E-02
DAV:  13    -0.363191061851E+02   -0.39198E-02   -0.12558E-03   144   0.234E-01    0.357E-02
DAV:  14    -0.363234254401E+02   -0.43193E-02   -0.60993E-04   120   0.156E-01    0.262E-02
DAV:  15    -0.363264105925E+02   -0.29852E-02   -0.29119E-04   128   0.923E-02    0.154E-02
DAV:  16    -0.363283534189E+02   -0.19428E-02   -0.15467E-04    96   0.867E-02    0.820E-03
DAV:  17    -0.363296451930E+02   -0.12918E-02   -0.17707E-04   128   0.603E-02    0.698E-03
DAV:  18    -0.363300796000E+02   -0.43441E-03   -0.18136E-05    96   0.337E-02    0.280E-03
DAV:  19    -0.363303838205E+02   -0.30422E-03   -0.13990E-05    72   0.228E-02    0.306E-03
DAV:  20    -0.363304845905E+02   -0.10077E-03   -0.33802E-06    96   0.132E-02    0.113E-03
DAV:  21    -0.363305746760E+02   -0.90085E-04   -0.27643E-06    68   0.116E-02
   1 F= -.36330575E+02 E0= -.36330575E+02  d E =-.363306E+02
damped:  g(F)=  0.000E+00 g(S)=  0.000E+00 dE (1.order)= 0.000E+00
 bond charge predicted
       N       E                     dE             d eps       ncg     rms          rms(c)
DAV:   1    -0.363312845699E+02   -0.79998E-03   -0.33973E-04   128   0.164E-01    0.414E-03
DAV:   2    -0.363312920191E+02   -0.74491E-05   -0.28497E-06    92   0.149E-02    0.244E-03
DAV:   3    -0.363313009323E+02   -0.89133E-05   -0.48709E-07    88   0.584E-03    0.843E-04
DAV:   4    -0.363313076435E+02   -0.67112E-05   -0.13138E-07    64   0.279E-03    0.254E-04
DAV:   5    -0.363313123289E+02   -0.46854E-05   -0.45067E-08    88   0.148E-03    0.136E-04
DAV:   6    -0.363313158847E+02   -0.35558E-05   -0.22867E-08    64   0.886E-04
   2 F= -.36331316E+02 E0= -.36331316E+02  d E =-.741209E-03
damped:  g(F)=  0.000E+00 g(S)=  0.000E+00 dE (1.order)= 0.000E+00
 bond charge predicted
       N       E                     dE             d eps       ncg     rms          rms(c)
DAV:   1    -0.363326010330E+02   -0.12887E-02   -0.12145E-03    96   0.312E-01    0.792E-03
DAV:   2    -0.363326017329E+02   -0.69986E-06   -0.98713E-06    84   0.277E-02    0.468E-03
DAV:   3    -0.363326028672E+02   -0.11343E-05   -0.16109E-06    64   0.105E-02    0.180E-03
DAV:   4    -0.363326038368E+02   -0.96964E-06   -0.40489E-07    80   0.498E-03    0.426E-04
DAV:   5    -0.363326043795E+02   -0.54269E-06   -0.11952E-07    80   0.237E-03    0.211E-04
DAV:   6    -0.363326048234E+02   -0.44392E-06   -0.52152E-08    64   0.129E-03
   3 F= -.36332605E+02 E0= -.36332605E+02  d E =-.128894E-02
damped:  g(F)=  0.000E+00 g(S)=  0.000E+00 dE (1.order)= 0.000E+00
 bond charge predicted
       N       E                     dE             d eps       ncg     rms          rms(c)
DAV:   1    -0.363343070329E+02   -0.17027E-02   -0.22282E-03    96   0.420E-01    0.105E-02
DAV:   2    -0.363343072063E+02   -0.17339E-06   -0.18719E-05    76   0.369E-02    0.638E-03
DAV:   3    -0.363343078811E+02   -0.67479E-06   -0.30082E-06    80   0.143E-02    0.198E-03
DAV:   4    -0.363343081637E+02   -0.28259E-06   -0.71708E-07    80   0.644E-03    0.584E-04
DAV:   5    -0.363343082703E+02   -0.10657E-06   -0.20599E-07    76   0.322E-03    0.269E-04
DAV:   6    -0.363343083620E+02   -0.91727E-07   -0.81742E-08    64   0.178E-03
   4 F= -.36334308E+02 E0= -.36334308E+02  d E =-.170354E-02
damped:  g(F)=  0.000E+00 g(S)=  0.000E+00 dE (1.order)= 0.000E+00
 bond charge predicted
       N       E                     dE             d eps       ncg     rms          rms(c)
DAV:   1    -0.363361640206E+02   -0.18558E-02   -0.29374E-03    96   0.482E-01    0.120E-02
DAV:   2    -0.363361642549E+02   -0.23429E-06   -0.26217E-05    80   0.431E-02    0.737E-03
DAV:   3    -0.363361648882E+02   -0.63330E-06   -0.40926E-06    64   0.168E-02    0.235E-03
DAV:   4    -0.363361651300E+02   -0.24189E-06   -0.94949E-07    64   0.751E-03    0.695E-04
DAV:   5    -0.363361651749E+02   -0.44892E-07   -0.26774E-07    48   0.365E-03    0.292E-04
DAV:   6    -0.363361652352E+02   -0.60217E-07   -0.10782E-07    48   0.200E-03
   5 F= -.36336165E+02 E0= -.36336165E+02  d E =-.185687E-02
damped:  g(F)=  0.000E+00 g(S)=  0.000E+00 dE (1.order)= 0.000E+00
 bond charge predicted
       N       E                     dE             d eps       ncg     rms          rms(c)
DAV:   1    -0.363379352755E+02   -0.17701E-02   -0.31426E-03    96   0.499E-01    0.123E-02
DAV:   2    -0.363379358617E+02   -0.58622E-06   -0.30051E-05    64   0.456E-02    0.769E-03
DAV:   3    -0.363379364868E+02   -0.62507E-06   -0.44794E-06    48   0.178E-02    0.243E-03
DAV:   4    -0.363379367521E+02   -0.26536E-06   -0.10155E-06    48   0.785E-03    0.796E-04
DAV:   5    -0.363379368169E+02   -0.64754E-07   -0.27948E-07    48   0.375E-03    0.305E-04
DAV:   6    -0.363379368922E+02   -0.75272E-07   -0.11458E-07    48   0.204E-03
   6 F= -.36337937E+02 E0= -.36337937E+02  d E =-.177166E-02
damped:  g(F)=  0.000E+00 g(S)=  0.000E+00 dE (1.order)= 0.000E+00
 bond charge predicted
       N       E                     dE             d eps       ncg     rms          rms(c)
DAV:   1    -0.363393556894E+02   -0.14189E-02   -0.26715E-03    96   0.465E-01    0.111E-02
DAV:   2    -0.363393564691E+02   -0.77969E-06   -0.26677E-05    48   0.428E-02    0.715E-03
DAV:   3    -0.363393570001E+02   -0.53100E-06   -0.38400E-06    48   0.170E-02    0.178E-03
DAV:   4    -0.363393571857E+02   -0.18565E-06   -0.83099E-07    48   0.719E-03    0.711E-04
DAV:   5    -0.363393572559E+02   -0.70208E-07   -0.22015E-07    48   0.334E-03    0.344E-04
DAV:   6    -0.363393573478E+02   -0.91835E-07   -0.98754E-08    48   0.195E-03
   7 F= -.36339357E+02 E0= -.36339357E+02  d E =-.142046E-02
damped:  g(F)=  0.000E+00 g(S)=  0.000E+00 dE (1.order)= 0.000E+00
 bond charge predicted
       N       E                     dE             d eps       ncg     rms          rms(c)
DAV:   1    -0.363393180620E+02    0.39194E-04   -0.19575E-06    48   0.125E-02    0.433E-04
DAV:   2    -0.363393181380E+02   -0.76031E-07   -0.11544E-07    48   0.296E-03    0.269E-04
DAV:   3    -0.363393182263E+02   -0.88230E-07   -0.27668E-08    48   0.980E-04    0.155E-04
DAV:   4    -0.363393183424E+02   -0.11608E-06   -0.21411E-08    48   0.603E-04    0.697E-05
DAV:   5    -0.363393184181E+02   -0.75704E-07   -0.17681E-08    48   0.325E-04    0.476E-05
DAV:   6    -0.363393185681E+02   -0.15006E-06   -0.18391E-08    64   0.248E-04
   8 F= -.36339319E+02 E0= -.36339319E+02  d E =0.387796E-04
damped:  g(F)=  0.000E+00 g(S)=  0.000E+00 dE (1.order)= 0.000E+00
 bond charge predicted
       N       E                     dE             d eps       ncg     rms          rms(c)
DAV:   1    -0.363392829482E+02    0.35470E-04   -0.24294E-06    48   0.142E-02    0.452E-04
DAV:   2    -0.363392829970E+02   -0.48801E-07   -0.12986E-07    48   0.319E-03    0.273E-04
DAV:   3    -0.363392830417E+02   -0.44687E-07   -0.28015E-08    48   0.105E-03    0.165E-04
DAV:   4    -0.363392830902E+02   -0.48540E-07   -0.18756E-08    48   0.579E-04    0.814E-05
DAV:   5    -0.363392831298E+02   -0.39551E-07   -0.15836E-08    48   0.278E-04    0.428E-05
DAV:   6    -0.363392831777E+02   -0.47912E-07   -0.15593E-08    64   0.163E-04
   9 F= -.36339283E+02 E0= -.36339283E+02  d E =0.353905E-04
damped:  g(F)=  0.000E+00 g(S)=  0.000E+00 dE (1.order)= 0.000E+00
 bond charge predicted
       N       E                     dE             d eps       ncg     rms          rms(c)
DAV:   1    -0.363392970398E+02   -0.13910E-04   -0.19954E-07    48   0.416E-03    0.119E-04
DAV:   2    -0.363392970516E+02   -0.11804E-07   -0.22692E-08    48   0.878E-04    0.773E-05
DAV:   3    -0.363392970666E+02   -0.14915E-07   -0.16456E-08    48   0.258E-04    0.324E-05
DAV:   4    -0.363392970797E+02   -0.13181E-07   -0.16184E-08    48   0.132E-04    0.133E-05
DAV:   5    -0.363392970879E+02   -0.81827E-08   -0.16297E-08    48   0.642E-05    0.813E-06
DAV:   6    -0.363392970983E+02   -0.10433E-07   -0.16788E-08    48   0.428E-05
  10 F= -.36339297E+02 E0= -.36339297E+02  d E =-.139207E-04
damped:  g(F)=  0.000E+00 g(S)=  0.000E+00 dE (1.order)= 0.000E+00
 bond charge predicted
       N       E                     dE             d eps       ncg     rms          rms(c)
DAV:   1    -0.363393422056E+02   -0.45118E-04   -0.16831E-06    48   0.124E-02    0.339E-04
DAV:   2    -0.363393422110E+02   -0.54547E-08   -0.82855E-08    48   0.261E-03    0.211E-04
DAV:   3    -0.363393422135E+02   -0.24638E-08   -0.24452E-08    48   0.776E-04    0.855E-05
DAV:   4    -0.363393422153E+02   -0.18538E-08   -0.19314E-08    48   0.363E-04    0.394E-05
DAV:   5    -0.363393422170E+02   -0.17085E-08   -0.18102E-08    48   0.171E-04    0.209E-05
DAV:   6    -0.363393422189E+02   -0.18786E-08   -0.17924E-08    48   0.975E-05
  11 F= -.36339342E+02 E0= -.36339342E+02  d E =-.451206E-04
damped:  g(F)=  0.000E+00 g(S)=  0.000E+00 dE (1.order)= 0.000E+00
 bond charge predicted
       N       E                     dE             d eps       ncg     rms          rms(c)
DAV:   1    -0.363394272271E+02   -0.85010E-04   -0.58056E-06    48   0.232E-02    0.618E-04
DAV:   2    -0.363394272402E+02   -0.13118E-07   -0.24461E-07    48   0.489E-03    0.377E-04
DAV:   3    -0.363394272404E+02   -0.19281E-09   -0.42870E-08    48   0.145E-03    0.150E-04
DAV:   4    -0.363394272400E+02    0.43087E-09   -0.24348E-08    48   0.673E-04    0.679E-05
DAV:   5    -0.363394272402E+02   -0.29149E-09   -0.19643E-08    48   0.319E-04    0.362E-05
DAV:   6    -0.363394272405E+02   -0.24102E-09   -0.18409E-08    48   0.182E-04
  12 F= -.36339427E+02 E0= -.36339427E+02  d E =-.850216E-04
damped:  g(F)=  0.000E+00 g(S)=  0.000E+00 dE (1.order)= 0.000E+00
 bond charge predicted
       N       E                     dE             d eps       ncg     rms          rms(c)
DAV:   1    -0.363395666495E+02   -0.13941E-03   -0.15447E-05    48   0.380E-02    0.984E-04
DAV:   2    -0.363395666872E+02   -0.37640E-07   -0.61448E-07    48   0.802E-03    0.582E-04
DAV:   3    -0.363395666905E+02   -0.33390E-08   -0.84614E-08    48   0.237E-03    0.236E-04
DAV:   4    -0.363395666895E+02    0.10655E-08   -0.34643E-08    48   0.110E-03    0.999E-05
DAV:   5    -0.363395666894E+02    0.62755E-10   -0.22492E-08    48   0.522E-04    0.548E-05
DAV:   6    -0.363395666895E+02   -0.10527E-09   -0.19160E-08    48   0.298E-04
  13 F= -.36339567E+02 E0= -.36339567E+02  d E =-.139449E-03
damped:  g(F)=  0.000E+00 g(S)=  0.000E+00 dE (1.order)= 0.000E+00
 bond charge predicted
       N       E                     dE             d eps       ncg     rms          rms(c)
DAV:   1    -0.363397823281E+02   -0.21564E-03   -0.36652E-05    48   0.588E-02    0.148E-03
DAV:   2    -0.363397824206E+02   -0.92441E-07   -0.14112E-06    48   0.124E-02    0.842E-04
DAV:   3    -0.363397824345E+02   -0.13979E-07   -0.17701E-07    48   0.366E-03    0.364E-04
DAV:   4    -0.363397824333E+02    0.12310E-08   -0.57056E-08    48   0.169E-03    0.139E-04
DAV:   5    -0.363397824336E+02   -0.31719E-09   -0.28875E-08    48   0.807E-04    0.803E-05
DAV:   6    -0.363397824353E+02   -0.16908E-08   -0.20966E-08    48   0.461E-04
  14 F= -.36339782E+02 E0= -.36339782E+02  d E =-.215746E-03
damped:  g(F)=  0.000E+00 g(S)=  0.000E+00 dE (1.order)= 0.000E+00
 bond charge predicted
       N       E                     dE             d eps       ncg     rms          rms(c)
DAV:   1    -0.363401043085E+02   -0.32187E-03   -0.81179E-05    48   0.875E-02    0.218E-03
DAV:   2    -0.363401045130E+02   -0.20456E-06   -0.30745E-06    48   0.184E-02    0.119E-03
DAV:   3    -0.363401045518E+02   -0.38762E-07   -0.37413E-07    48   0.548E-03    0.552E-04
DAV:   4    -0.363401045524E+02   -0.60231E-09   -0.10422E-07    48   0.250E-03    0.198E-04
DAV:   5    -0.363401045540E+02   -0.15482E-08   -0.42644E-08    48   0.120E-03    0.114E-04
DAV:   6    -0.363401045592E+02   -0.52735E-08   -0.25073E-08    48   0.687E-04
  15 F= -.36340105E+02 E0= -.36340105E+02  d E =-.322124E-03
damped:  g(F)=  0.000E+00 g(S)=  0.000E+00 dE (1.order)= 0.000E+00
 bond charge predicted
       N       E                     dE             d eps       ncg     rms          rms(c)
DAV:   1    -0.363406334310E+02   -0.52888E-03   -0.22407E-04    96   0.143E-01    0.343E-03
DAV:   2    -0.363406333310E+02    0.99981E-07   -0.17442E-06    64   0.122E-02    0.197E-03
DAV:   3    -0.363406333584E+02   -0.27314E-07   -0.27547E-07    48   0.447E-03    0.729E-04
DAV:   4    -0.363406333604E+02   -0.20445E-08   -0.89600E-08    48   0.223E-03    0.226E-04
DAV:   5    -0.363406333626E+02   -0.21632E-08   -0.35350E-08    48   0.112E-03    0.785E-05
DAV:   6    -0.363406333735E+02   -0.10897E-07   -0.23605E-08    48   0.593E-04
  16 F= -.36340633E+02 E0= -.36340633E+02  d E =-.528814E-03
damped:  g(F)=  0.000E+00 g(S)=  0.000E+00 dE (1.order)= 0.000E+00
 bond charge predicted
       N       E                     dE             d eps       ncg     rms          rms(c)
DAV:   1    -0.363414912467E+02   -0.85788E-03   -0.57287E-04    96   0.228E-01    0.549E-03
DAV:   2    -0.363414910178E+02    0.22883E-06   -0.42266E-06    64   0.192E-02    0.309E-03
DAV:   3    -0.363414911039E+02   -0.86077E-07   -0.62082E-07    48   0.680E-03    0.126E-03
DAV:   4    -0.363414911277E+02   -0.23775E-07   -0.18821E-07    48   0.344E-03    0.341E-04
DAV:   5    -0.363414911325E+02   -0.47728E-08   -0.58398E-08    48   0.170E-03    0.129E-04
DAV:   6    -0.363414911521E+02   -0.19662E-07   -0.30361E-08    48   0.906E-04
  17 F= -.36341491E+02 E0= -.36341491E+02  d E =-.857779E-03
damped:  g(F)=  0.000E+00 g(S)=  0.000E+00 dE (1.order)= 0.000E+00
 bond charge predicted
       N       E                     dE             d eps       ncg     rms          rms(c)
DAV:   1    -0.363427574072E+02   -0.12663E-02   -0.12222E-03    96   0.332E-01    0.805E-03
DAV:   2    -0.363427569245E+02    0.48273E-06   -0.85085E-06    64   0.278E-02    0.440E-03
DAV:   3    -0.363427571282E+02   -0.20369E-06   -0.12260E-06    48   0.953E-03    0.195E-03
DAV:   4    -0.363427572132E+02   -0.85003E-07   -0.35831E-07    48   0.483E-03    0.448E-04
DAV:   5    -0.363427572281E+02   -0.14944E-07   -0.10071E-07    48   0.236E-03    0.204E-04
DAV:   6    -0.363427572657E+02   -0.37552E-07   -0.43277E-08    48   0.127E-03
  18 F= -.36342757E+02 E0= -.36342757E+02  d E =-.126611E-02
damped:  g(F)=  0.000E+00 g(S)=  0.000E+00 dE (1.order)= 0.000E+00
 bond charge predicted
       N       E                     dE             d eps       ncg     rms          rms(c)
DAV:   1    -0.363445217844E+02   -0.17646E-02   -0.23381E-03    96   0.458E-01    0.113E-02
DAV:   2    -0.363445207328E+02    0.10516E-05   -0.15400E-05    64   0.383E-02    0.596E-03
DAV:   3    -0.363445211424E+02   -0.40958E-06   -0.22746E-06    56   0.129E-02    0.284E-03
DAV:   4    -0.363445213555E+02   -0.21317E-06   -0.64001E-07    48   0.648E-03    0.548E-04
DAV:   5    -0.363445213872E+02   -0.31687E-07   -0.17510E-07    48   0.313E-03    0.308E-04
DAV:   6    -0.363445214528E+02   -0.65618E-07   -0.67541E-08    48   0.168E-03
  19 F= -.36344521E+02 E0= -.36344521E+02  d E =-.176419E-02
damped:  g(F)=  0.000E+00 g(S)=  0.000E+00 dE (1.order)= 0.000E+00
 bond charge predicted
       N       E                     dE             d eps       ncg     rms          rms(c)
DAV:   1    -0.363468825992E+02   -0.23612E-02   -0.41549E-03    96   0.609E-01    0.153E-02
DAV:   2    -0.363468804338E+02    0.21654E-05   -0.26427E-05    64   0.511E-02    0.790E-03
DAV:   3    -0.363468811573E+02   -0.72354E-06   -0.40831E-06    64   0.172E-02    0.391E-03
DAV:   4    -0.363468815985E+02   -0.44115E-06   -0.11273E-06    48   0.862E-03    0.673E-04
DAV:   5    -0.363468816532E+02   -0.54676E-07   -0.30380E-07    48   0.414E-03    0.435E-04
DAV:   6    -0.363468817587E+02   -0.10559E-06   -0.11003E-07    48   0.218E-03
  20 F= -.36346882E+02 E0= -.36346882E+02  d E =-.236031E-02
damped:  g(F)=  0.000E+00 g(S)=  0.000E+00 dE (1.order)= 0.000E+00
 bond charge predicted
       N       E                     dE             d eps       ncg     rms          rms(c)
DAV:   1    -0.363499449054E+02   -0.30633E-02   -0.69582E-03    96   0.786E-01    0.201E-02
DAV:   2    -0.363499410864E+02    0.38189E-05   -0.43592E-05    64   0.661E-02    0.103E-02
DAV:   3    -0.363499422645E+02   -0.11780E-05   -0.69468E-06    64   0.223E-02    0.511E-03
DAV:   4    -0.363499430454E+02   -0.78095E-06   -0.19188E-06    56   0.113E-02    0.849E-04
DAV:   5    -0.363499431378E+02   -0.92432E-07   -0.51213E-07    48   0.541E-03    0.569E-04
DAV:   6    -0.363499433064E+02   -0.16855E-06   -0.17919E-07    48   0.282E-03
  21 F= -.36349943E+02 E0= -.36349943E+02  d E =-.306155E-02
damped:  g(F)=  0.000E+00 g(S)=  0.000E+00 dE (1.order)= 0.000E+00
 bond charge predicted
       N       E                     dE             d eps       ncg     rms          rms(c)
DAV:   1    -0.363538129147E+02   -0.38698E-02   -0.11000E-02    96   0.984E-01    0.251E-02
DAV:   2    -0.363538074495E+02    0.54652E-05   -0.68717E-05    64   0.820E-02    0.130E-02
DAV:   3    -0.363538093446E+02   -0.18951E-05   -0.11005E-05    64   0.279E-02    0.632E-03
DAV:   4    -0.363538105211E+02   -0.11766E-05   -0.30301E-06    64   0.140E-02    0.109E-03
DAV:   5    -0.363538106874E+02   -0.16630E-06   -0.81688E-07    48   0.679E-03    0.702E-04
DAV:   6    -0.363538109631E+02   -0.27569E-06   -0.28545E-07    48   0.356E-03
  22 F= -.36353811E+02 E0= -.36353811E+02  d E =-.386766E-02
damped:  g(F)=  0.000E+00 g(S)=  0.000E+00 dE (1.order)= 0.000E+00
 bond charge predicted
       N       E                     dE             d eps       ncg     rms          rms(c)
DAV:   1    -0.363585653552E+02   -0.47547E-02   -0.16398E-02    96   0.120E+00    0.301E-02
DAV:   2    -0.363585589984E+02    0.63567E-05   -0.10436E-04    80   0.983E-02    0.162E-02
DAV:   3    -0.363585619812E+02   -0.29828E-05   -0.16602E-05    64   0.339E-02    0.735E-03
DAV:   4    -0.363585635797E+02   -0.15985E-05   -0.45376E-06    64   0.169E-02    0.145E-03
DAV:   5    -0.363585638705E+02   -0.29072E-06   -0.12537E-06    48   0.841E-03    0.820E-04
DAV:   6    -0.363585642722E+02   -0.40178E-06   -0.44662E-07    48   0.449E-03
  23 F= -.36358564E+02 E0= -.36358564E+02  d E =-.475331E-02
damped:  g(F)=  0.000E+00 g(S)=  0.000E+00 dE (1.order)= 0.000E+00
 bond charge predicted
       N       E                     dE             d eps       ncg     rms          rms(c)
DAV:   1    -0.363642046993E+02   -0.56408E-02   -0.22780E-02    96   0.140E+00    0.354E-02
DAV:   2    -0.363641998480E+02    0.48513E-05   -0.17243E-04   112   0.114E-01    0.200E-02
DAV:   3    -0.363642020600E+02   -0.22120E-05   -0.79024E-06    64   0.249E-02    0.897E-03
DAV:   4    -0.363642038816E+02   -0.18216E-05   -0.24951E-06    64   0.136E-02    0.183E-03
DAV:   5    -0.363642042415E+02   -0.35991E-06   -0.44349E-07    48   0.587E-03    0.807E-04
DAV:   6    -0.363642047996E+02   -0.55809E-06   -0.14777E-07    48   0.299E-03
  24 F= -.36364205E+02 E0= -.36364205E+02  d E =-.564053E-02
damped:  g(F)=  0.000E+00 g(S)=  0.000E+00 dE (1.order)= 0.000E+00
 bond charge predicted
       N       E                     dE             d eps       ncg     rms          rms(c)
DAV:   1    -0.363705946989E+02   -0.63905E-02   -0.28787E-02    96   0.156E+00    0.401E-02
DAV:   2    -0.363705881750E+02    0.65239E-05   -0.21613E-04   128   0.127E-01    0.227E-02
DAV:   3    -0.363705912505E+02   -0.30755E-05   -0.10125E-05    64   0.284E-02    0.102E-02
DAV:   4    -0.363705938259E+02   -0.25753E-05   -0.29997E-06    64   0.153E-02    0.204E-03
DAV:   5    -0.363705943222E+02   -0.49629E-06   -0.54503E-07    48   0.650E-03    0.913E-04
DAV:   6    -0.363705950011E+02   -0.67898E-06   -0.17365E-07    48   0.320E-03
  25 F= -.36370595E+02 E0= -.36370595E+02  d E =-.639020E-02
damped:  g(F)=  0.000E+00 g(S)=  0.000E+00 dE (1.order)= 0.000E+00
 bond charge predicted
       N       E                     dE             d eps       ncg     rms          rms(c)
DAV:   1    -0.363773787579E+02   -0.67844E-02   -0.32474E-02    96   0.165E+00    0.430E-02
DAV:   2    -0.363773721487E+02    0.66092E-05   -0.25078E-04   128   0.137E-01    0.246E-02
DAV:   3    -0.363773757023E+02   -0.35537E-05   -0.11566E-05    64   0.308E-02    0.110E-02
DAV:   4    -0.363773788451E+02   -0.31428E-05   -0.33805E-06    64   0.166E-02    0.219E-03
DAV:   5    -0.363773794282E+02   -0.58305E-06   -0.63631E-07    48   0.707E-03    0.100E-03
DAV:   6    -0.363773801666E+02   -0.73848E-06   -0.19168E-07    48   0.336E-03
  26 F= -.36377380E+02 E0= -.36377380E+02  d E =-.678517E-02
damped:  g(F)=  0.000E+00 g(S)=  0.000E+00 dE (1.order)= 0.000E+00
 bond charge predicted
       N       E                     dE             d eps       ncg     rms          rms(c)
DAV:   1    -0.363839851574E+02   -0.66057E-02   -0.31394E-02    96   0.162E+00    0.415E-02
DAV:   2    -0.363839850767E+02    0.80761E-07   -0.26424E-04   128   0.135E-01    0.250E-02
DAV:   3    -0.363839894050E+02   -0.43283E-05   -0.11146E-05    64   0.308E-02    0.930E-03
DAV:   4    -0.363839918468E+02   -0.24419E-05   -0.29754E-06    64   0.151E-02    0.235E-03
DAV:   5    -0.363839925006E+02   -0.65375E-06   -0.55992E-07    48   0.721E-03    0.928E-04
DAV:   6    -0.363839931732E+02   -0.67262E-06   -0.20997E-07    48   0.356E-03
  27 F= -.36383993E+02 E0= -.36383993E+02  d E =-.661301E-02
damped:  g(F)=  0.000E+00 g(S)=  0.000E+00 dE (1.order)= 0.000E+00
 bond charge predicted
       N       E                     dE             d eps       ncg     rms          rms(c)
DAV:   1    -0.363838795063E+02    0.11299E-03   -0.24431E-05    48   0.486E-02    0.132E-03
DAV:   2    -0.363838800927E+02   -0.58637E-06   -0.95125E-07    48   0.105E-02    0.668E-04
DAV:   3    -0.363838806590E+02   -0.56629E-06   -0.13320E-07    48   0.336E-03    0.408E-04
DAV:   4    -0.363838813847E+02   -0.72577E-06   -0.51217E-08    56   0.158E-03    0.152E-04
DAV:   5    -0.363838819657E+02   -0.58102E-06   -0.33904E-08    72   0.939E-04    0.706E-05
DAV:   6    -0.363838824937E+02   -0.52798E-06   -0.28348E-08    64   0.676E-04
  28 F= -.36383882E+02 E0= -.36383882E+02  d E =0.110679E-03
damped:  g(F)=  0.000E+00 g(S)=  0.000E+00 dE (1.order)= 0.000E+00
 bond charge predicted
       N       E                     dE             d eps       ncg     rms          rms(c)
DAV:   1    -0.363836588017E+02    0.22316E-03   -0.94140E-05    80   0.954E-02    0.251E-03
DAV:   2    -0.363836591740E+02   -0.37231E-06   -0.37009E-06    48   0.207E-02    0.116E-03
DAV:   3    -0.363836593441E+02   -0.17003E-06   -0.46550E-07    48   0.651E-03    0.707E-04
DAV:   4    -0.363836594936E+02   -0.14953E-06   -0.11295E-07    48   0.289E-03    0.277E-04
DAV:   5    -0.363836596130E+02   -0.11935E-06   -0.40269E-08    80   0.139E-03    0.854E-05
DAV:   6    -0.363836596942E+02   -0.81280E-07   -0.21262E-08    48   0.751E-04
  29 F= -.36383660E+02 E0= -.36383660E+02  d E =0.222799E-03
damped:  g(F)=  0.000E+00 g(S)=  0.000E+00 dE (1.order)= 0.000E+00
 bond charge predicted
       N       E                     dE             d eps       ncg     rms          rms(c)
DAV:   1    -0.363833317487E+02    0.32786E-03   -0.20775E-04    96   0.139E-01    0.347E-03
DAV:   2    -0.363833316960E+02    0.52700E-07   -0.16349E-06    64   0.127E-02    0.178E-03
DAV:   3    -0.363833317696E+02   -0.73576E-07   -0.22855E-07    48   0.427E-03    0.892E-04
DAV:   4    -0.363833318323E+02   -0.62719E-07   -0.78589E-08    64   0.220E-03    0.159E-04
DAV:   5    -0.363833318513E+02   -0.18931E-07   -0.32394E-08    48   0.101E-03    0.101E-04
DAV:   6    -0.363833318720E+02   -0.20724E-07   -0.23246E-08    48   0.524E-04
  30 F= -.36383332E+02 E0= -.36383332E+02  d E =0.327822E-03
damped:  g(F)=  0.000E+00 g(S)=  0.000E+00 dE (1.order)= 0.000E+00
 bond charge predicted
       N       E                     dE             d eps       ncg     rms          rms(c)
DAV:   1    -0.363829080740E+02    0.42378E-03   -0.34244E-04    96   0.179E-01    0.444E-03
DAV:   2    -0.363829079255E+02    0.14852E-06   -0.26823E-06    64   0.163E-02    0.228E-03
DAV:   3    -0.363829079972E+02   -0.71677E-07   -0.36395E-07    48   0.543E-03    0.114E-03
DAV:   4    -0.363829080343E+02   -0.37161E-07   -0.11923E-07    52   0.277E-03    0.203E-04
DAV:   5    -0.363829080402E+02   -0.58808E-08   -0.44703E-08    48   0.127E-03    0.128E-04
DAV:   6    -0.363829080556E+02   -0.15369E-07   -0.29017E-08    48   0.651E-04
  31 F= -.36382908E+02 E0= -.36382908E+02  d E =0.423816E-03
damped:  g(F)=  0.000E+00 g(S)=  0.000E+00 dE (1.order)= 0.000E+00
 bond charge predicted
       N       E                     dE             d eps       ncg     rms          rms(c)
DAV:   1    -0.363824004443E+02    0.50760E-03   -0.48570E-04    96   0.213E-01    0.529E-03
DAV:   2    -0.363824002606E+02    0.18375E-06   -0.38161E-06    64   0.194E-02    0.273E-03
DAV:   3    -0.363824003556E+02   -0.94977E-07   -0.50589E-07    48   0.645E-03    0.136E-03
DAV:   4    -0.363824004083E+02   -0.52765E-07   -0.15907E-07    48   0.328E-03    0.239E-04
DAV:   5    -0.363824004195E+02   -0.11158E-07   -0.55203E-08    48   0.150E-03    0.149E-04
DAV:   6    -0.363824004439E+02   -0.24445E-07   -0.33413E-08    48   0.766E-04
  32 F= -.36382400E+02 E0= -.36382400E+02  d E =0.507612E-03
damped:  g(F)=  0.000E+00 g(S)=  0.000E+00 dE (1.order)= 0.000E+00
 bond charge predicted
       N       E                     dE             d eps       ncg     rms          rms(c)
DAV:   1    -0.363818270794E+02    0.57334E-03   -0.61708E-04    96   0.240E-01    0.598E-03
DAV:   2    -0.363818268750E+02    0.20440E-06   -0.48753E-06    64   0.220E-02    0.308E-03
DAV:   3    -0.363818269972E+02   -0.12220E-06   -0.63449E-07    48   0.727E-03    0.153E-03
DAV:   4    -0.363818270705E+02   -0.73336E-07   -0.19373E-07    48   0.368E-03    0.267E-04
DAV:   5    -0.363818270886E+02   -0.18100E-07   -0.63987E-08    48   0.167E-03    0.166E-04
DAV:   6    -0.363818271222E+02   -0.33599E-07   -0.36780E-08    48   0.856E-04
  33 F= -.36381827E+02 E0= -.36381827E+02  d E =0.573322E-03
damped:  g(F)=  0.000E+00 g(S)=  0.000E+00 dE (1.order)= 0.000E+00
 bond charge predicted
       N       E                     dE             d eps       ncg     rms          rms(c)
DAV:   1    -0.363811505134E+02    0.67658E-03   -0.87602E-04    96   0.286E-01    0.716E-03
DAV:   2    -0.363811502440E+02    0.26937E-06   -0.69869E-06    64   0.263E-02    0.368E-03
DAV:   3    -0.363811504192E+02   -0.17518E-06   -0.89029E-07    48   0.869E-03    0.184E-03
DAV:   4    -0.363811505249E+02   -0.10575E-06   -0.26099E-07    48   0.437E-03    0.313E-04
DAV:   5    -0.363811505487E+02   -0.23756E-07   -0.80169E-08    48   0.199E-03    0.196E-04
DAV:   6    -0.363811505907E+02   -0.41990E-07   -0.42100E-08    48   0.101E-03
  34 F= -.36381151E+02 E0= -.36381151E+02  d E =0.676532E-03
damped:  g(F)=  0.000E+00 g(S)=  0.000E+00 dE (1.order)= 0.000E+00
 bond charge predicted
       N       E                     dE             d eps       ncg     rms          rms(c)
DAV:   1    -0.363804206775E+02    0.72987E-03   -0.11184E-03    96   0.324E-01    0.819E-03
DAV:   2    -0.363804203336E+02    0.34388E-06   -0.91386E-06    64   0.302E-02    0.418E-03
DAV:   3    -0.363804205656E+02   -0.23192E-06   -0.11417E-06    48   0.996E-03    0.213E-03
DAV:   4    -0.363804207135E+02   -0.14792E-06   -0.32281E-07    48   0.498E-03    0.344E-04
DAV:   5    -0.363804207460E+02   -0.32514E-07   -0.95390E-08    48   0.227E-03    0.223E-04
DAV:   6    -0.363804207969E+02   -0.50855E-07   -0.46836E-08    48   0.114E-03
  35 F= -.36380421E+02 E0= -.36380421E+02  d E =0.729794E-03
damped:  g(F)=  0.000E+00 g(S)=  0.000E+00 dE (1.order)= 0.000E+00
 bond charge predicted
       N       E                     dE             d eps       ncg     rms          rms(c)
DAV:   1    -0.363798427769E+02    0.57797E-03   -0.10956E-03    96   0.321E-01    0.815E-03
DAV:   2    -0.363798425731E+02    0.20376E-06   -0.96632E-06    64   0.306E-02    0.423E-03
DAV:   3    -0.363798428237E+02   -0.25059E-06   -0.11429E-06    48   0.102E-02    0.214E-03
DAV:   4    -0.363798429887E+02   -0.16503E-06   -0.31439E-07    48   0.506E-03    0.318E-04
DAV:   5    -0.363798430324E+02   -0.43677E-07   -0.93018E-08    48   0.226E-03    0.205E-04
DAV:   6    -0.363798430850E+02   -0.52605E-07   -0.45737E-08    48   0.113E-03
  36 F= -.36379843E+02 E0= -.36379843E+02  d E =0.577712E-03
damped:  g(F)=  0.000E+00 g(S)=  0.000E+00 dE (1.order)= 0.000E+00
 bond charge predicted
       N       E                     dE             d eps       ncg     rms          rms(c)
DAV:   1    -0.363798710816E+02   -0.28049E-04   -0.70089E-07    48   0.782E-03    0.210E-04
DAV:   2    -0.363798711327E+02   -0.51094E-07   -0.50437E-08    48   0.168E-03    0.107E-04
DAV:   3    -0.363798711896E+02   -0.56935E-07   -0.28782E-08    48   0.557E-04    0.556E-05
DAV:   4    -0.363798712591E+02   -0.69483E-07   -0.26130E-08    48   0.274E-04    0.196E-05
DAV:   5    -0.363798713156E+02   -0.56499E-07   -0.24990E-08    48   0.172E-04    0.122E-05
DAV:   6    -0.363798714154E+02   -0.99860E-07   -0.24358E-08    80   0.173E-04
  37 F= -.36379871E+02 E0= -.36379871E+02  d E =-.283304E-04
damped:  g(F)=  0.000E+00 g(S)=  0.000E+00 dE (1.order)= 0.000E+00
 bond charge predicted
       N       E                     dE             d eps       ncg     rms          rms(c)
DAV:   1    -0.363799478177E+02   -0.76502E-04   -0.48246E-06    60   0.207E-02    0.520E-04
DAV:   2    -0.363799478436E+02   -0.25898E-07   -0.19105E-07    48   0.430E-03    0.273E-04
DAV:   3    -0.363799478627E+02   -0.19173E-07   -0.42136E-08    48   0.128E-03    0.132E-04
DAV:   4    -0.363799478779E+02   -0.15212E-07   -0.25762E-08    48   0.564E-04    0.399E-05
DAV:   5    -0.363799478872E+02   -0.92887E-08   -0.21621E-08    48   0.271E-04    0.204E-05
DAV:   6    -0.363799478961E+02   -0.88202E-08   -0.20032E-08    48   0.157E-04
  38 F= -.36379948E+02 E0= -.36379948E+02  d E =-.764806E-04
damped:  g(F)=  0.000E+00 g(S)=  0.000E+00 dE (1.order)= 0.000E+00
 bond charge predicted
       N       E                     dE             d eps       ncg     rms          rms(c)
DAV:   1    -0.363800957825E+02   -0.14790E-03   -0.17722E-05    48   0.394E-02    0.999E-04
DAV:   2    -0.363800958274E+02   -0.44859E-07   -0.65333E-07    48   0.822E-03    0.536E-04
DAV:   3    -0.363800958406E+02   -0.13179E-07   -0.95651E-08    48   0.244E-03    0.253E-04
DAV:   4    -0.363800958428E+02   -0.22125E-08   -0.37583E-08    48   0.108E-03    0.829E-05
DAV:   5    -0.363800958427E+02    0.98908E-10   -0.24105E-08    48   0.516E-04    0.452E-05
DAV:   6    -0.363800958424E+02    0.24829E-09   -0.20025E-08    48   0.296E-04
  39 F= -.36380096E+02 E0= -.36380096E+02  d E =-.147946E-03
damped:  g(F)=  0.000E+00 g(S)=  0.000E+00 dE (1.order)= 0.000E+00
 bond charge predicted
       N       E                     dE             d eps       ncg     rms          rms(c)
DAV:   1    -0.363803394958E+02   -0.24365E-03   -0.47715E-05    48   0.643E-02    0.165E-03
DAV:   2    -0.363803396145E+02   -0.11867E-06   -0.17461E-06    48   0.135E-02    0.891E-04
DAV:   3    -0.363803396416E+02   -0.27146E-07   -0.22574E-07    48   0.400E-03    0.417E-04
DAV:   4    -0.363803396428E+02   -0.11894E-08   -0.69507E-08    48   0.177E-03    0.145E-04
DAV:   5    -0.363803396409E+02    0.19377E-08   -0.33112E-08    48   0.849E-04    0.796E-05
DAV:   6    -0.363803396388E+02    0.20900E-08   -0.22528E-08    48   0.492E-04
  40 F= -.36380340E+02 E0= -.36380340E+02  d E =-.243796E-03
damped:  g(F)=  0.000E+00 g(S)=  0.000E+00 dE (1.order)= 0.000E+00
 bond charge predicted
       N       E                     dE             d eps       ncg     rms          rms(c)
DAV:   1    -0.363806898645E+02   -0.35022E-03   -0.10115E-04    80   0.917E-02    0.223E-03
DAV:   2    -0.363806898107E+02    0.53777E-07   -0.73447E-07    48   0.752E-03    0.133E-03
DAV:   3    -0.363806898246E+02   -0.13958E-07   -0.13838E-07    48   0.285E-03    0.431E-04
DAV:   4    -0.363806898250E+02   -0.30263E-09   -0.46913E-08    48   0.131E-03    0.149E-04
DAV:   5    -0.363806898233E+02    0.16953E-08   -0.25474E-08    48   0.672E-04    0.610E-05
DAV:   6    -0.363806898273E+02   -0.40150E-08   -0.20456E-08    48   0.370E-04
  41 F= -.36380690E+02 E0= -.36380690E+02  d E =-.350188E-03
damped:  g(F)=  0.000E+00 g(S)=  0.000E+00 dE (1.order)= 0.000E+00
 bond charge predicted
       N       E                     dE             d eps       ncg     rms          rms(c)
DAV:   1    -0.363811436107E+02   -0.45379E-03   -0.16856E-04    96   0.118E-01    0.287E-03
DAV:   2    -0.363811435290E+02    0.81786E-07   -0.11842E-06    64   0.964E-03    0.170E-03
DAV:   3    -0.363811435553E+02   -0.26333E-07   -0.21085E-07    48   0.359E-03    0.574E-04
DAV:   4    -0.363811435597E+02   -0.43819E-08   -0.64594E-08    48   0.165E-03    0.184E-04
DAV:   5    -0.363811435606E+02   -0.87471E-09   -0.30268E-08    48   0.842E-04    0.791E-05
DAV:   6    -0.363811435685E+02   -0.79808E-08   -0.22248E-08    48   0.463E-04
  42 F= -.36381144E+02 E0= -.36381144E+02  d E =-.453741E-03
damped:  g(F)=  0.000E+00 g(S)=  0.000E+00 dE (1.order)= 0.000E+00
 bond charge predicted
       N       E                     dE             d eps       ncg     rms          rms(c)
DAV:   1    -0.363817634689E+02   -0.61991E-03   -0.31323E-04    96   0.161E-01    0.391E-03
DAV:   2    -0.363817633378E+02    0.13116E-06   -0.21495E-06    64   0.131E-02    0.229E-03
DAV:   3    -0.363817633923E+02   -0.54560E-07   -0.36778E-07    48   0.481E-03    0.822E-04
DAV:   4    -0.363817634065E+02   -0.14128E-07   -0.10385E-07    48   0.224E-03    0.232E-04
DAV:   5    -0.363817634085E+02   -0.20523E-08   -0.40821E-08    48   0.112E-03    0.109E-04
DAV:   6    -0.363817634203E+02   -0.11832E-07   -0.25794E-08    48   0.617E-04
  43 F= -.36381763E+02 E0= -.36381763E+02  d E =-.619852E-03
damped:  g(F)=  0.000E+00 g(S)=  0.000E+00 dE (1.order)= 0.000E+00
 bond charge predicted
       N       E                     dE             d eps       ncg     rms          rms(c)
DAV:   1    -0.363825840080E+02   -0.82060E-03   -0.54864E-04    96   0.213E-01    0.519E-03
DAV:   2    -0.363825837983E+02    0.20976E-06   -0.37153E-06    64   0.175E-02    0.300E-03
DAV:   3    -0.363825838991E+02   -0.10083E-06   -0.62551E-07    48   0.631E-03    0.115E-03
DAV:   4    -0.363825839343E+02   -0.35141E-07   -0.16818E-07    48   0.297E-03    0.284E-04
DAV:   5    -0.363825839386E+02   -0.43158E-08   -0.57573E-08    48   0.146E-03    0.145E-04
DAV:   6    -0.363825839552E+02   -0.16679E-07   -0.31048E-08    48   0.799E-04
  44 F= -.36382584E+02 E0= -.36382584E+02  d E =-.820535E-03
damped:  g(F)=  0.000E+00 g(S)=  0.000E+00 dE (1.order)= 0.000E+00
 bond charge predicted
       N       E                     dE             d eps       ncg     rms          rms(c)
DAV:   1    -0.363836432737E+02   -0.10593E-02   -0.91826E-04    96   0.275E-01    0.676E-03
DAV:   2    -0.363836429409E+02    0.33280E-06   -0.62279E-06    64   0.228E-02    0.387E-03
DAV:   3    -0.363836431103E+02   -0.16936E-06   -0.10481E-06    48   0.822E-03    0.157E-03
DAV:   4    -0.363836431840E+02   -0.73670E-07   -0.27454E-07    48   0.391E-03    0.349E-04
DAV:   5    -0.363836431921E+02   -0.81104E-08   -0.85364E-08    48   0.189E-03    0.188E-04
DAV:   6    -0.363836432154E+02   -0.23311E-07   -0.40134E-08    48   0.102E-03
  45 F= -.36383643E+02 E0= -.36383643E+02  d E =-.105926E-02
damped:  g(F)=  0.000E+00 g(S)=  0.000E+00 dE (1.order)= 0.000E+00
 bond charge predicted
       N       E                     dE             d eps       ncg     rms          rms(c)
DAV:   1    -0.363849820148E+02   -0.13388E-02   -0.14764E-03    96   0.348E-01    0.862E-03
DAV:   2    -0.363849815162E+02    0.49858E-06   -0.10138E-05    64   0.292E-02    0.492E-03
DAV:   3    -0.363849817754E+02   -0.25916E-06   -0.17131E-06    48   0.105E-02    0.204E-03
DAV:   4    -0.363849819076E+02   -0.13223E-06   -0.44184E-07    48   0.506E-03    0.434E-04
DAV:   5    -0.363849819224E+02   -0.14790E-07   -0.12946E-07    48   0.242E-03    0.236E-04
DAV:   6    -0.363849819553E+02   -0.32959E-07   -0.55362E-08    48   0.130E-03
  46 F= -.36384982E+02 E0= -.36384982E+02  d E =-.133874E-02
damped:  g(F)=  0.000E+00 g(S)=  0.000E+00 dE (1.order)= 0.000E+00
 bond charge predicted
       N       E                     dE             d eps       ncg     rms          rms(c)
DAV:   1    -0.363866412711E+02   -0.16593E-02   -0.22820E-03    96   0.432E-01    0.107E-02
DAV:   2    -0.363866406200E+02    0.65110E-06   -0.15904E-05    64   0.362E-02    0.614E-03
DAV:   3    -0.363866410145E+02   -0.39441E-06   -0.26851E-06    56   0.132E-02    0.249E-03
DAV:   4    -0.363866412182E+02   -0.20374E-06   -0.68052E-07    48   0.629E-03    0.542E-04
DAV:   5    -0.363866412438E+02   -0.25605E-07   -0.19581E-07    48   0.302E-03    0.290E-04
DAV:   6    -0.363866412928E+02   -0.48959E-07   -0.79521E-08    48   0.163E-03
  47 F= -.36386641E+02 E0= -.36386641E+02  d E =-.165934E-02
damped:  g(F)=  0.000E+00 g(S)=  0.000E+00 dE (1.order)= 0.000E+00
 bond charge predicted
       N       E                     dE             d eps       ncg     rms          rms(c)
DAV:   1    -0.363886558661E+02   -0.20146E-02   -0.33831E-03    96   0.523E-01    0.128E-02
DAV:   2    -0.363886551827E+02    0.68339E-06   -0.24060E-05    64   0.437E-02    0.752E-03
DAV:   3    -0.363886557970E+02   -0.61426E-06   -0.40383E-06    64   0.162E-02    0.279E-03
DAV:   4    -0.363886560682E+02   -0.27126E-06   -0.99908E-07    48   0.751E-03    0.683E-04
DAV:   5    -0.363886561148E+02   -0.46572E-07   -0.29079E-07    48   0.368E-03    0.348E-04
DAV:   6    -0.363886561918E+02   -0.76986E-07   -0.11637E-07    48   0.203E-03
  48 F= -.36388656E+02 E0= -.36388656E+02  d E =-.201490E-02
damped:  g(F)=  0.000E+00 g(S)=  0.000E+00 dE (1.order)= 0.000E+00
 bond charge predicted
       N       E                     dE             d eps       ncg     rms          rms(c)
DAV:   1    -0.363910406524E+02   -0.23845E-02   -0.47958E-03    96   0.620E-01    0.151E-02
DAV:   2    -0.363910400921E+02    0.56035E-06   -0.35259E-05    64   0.517E-02    0.903E-03
DAV:   3    -0.363910410150E+02   -0.92288E-06   -0.59075E-06    64   0.196E-02    0.296E-03
DAV:   4    -0.363910413446E+02   -0.32958E-06   -0.14271E-06    48   0.884E-03    0.861E-04
DAV:   5    -0.363910414226E+02   -0.78036E-07   -0.41841E-07    48   0.447E-03    0.413E-04
DAV:   6    -0.363910415392E+02   -0.11657E-06   -0.16798E-07    48   0.250E-03
  49 F= -.36391042E+02 E0= -.36391042E+02  d E =-.238535E-02
damped:  g(F)=  0.000E+00 g(S)=  0.000E+00 dE (1.order)= 0.000E+00
 bond charge predicted
       N       E                     dE             d eps       ncg     rms          rms(c)
DAV:   1    -0.363937705324E+02   -0.27291E-02   -0.64201E-03    96   0.714E-01    0.174E-02
DAV:   2    -0.363937701444E+02    0.38799E-06   -0.48921E-05    64   0.602E-02    0.105E-02
DAV:   3    -0.363937714225E+02   -0.12781E-05   -0.81619E-06    64   0.231E-02    0.326E-03
DAV:   4    -0.363937718561E+02   -0.43361E-06   -0.19423E-06    48   0.103E-02    0.100E-03
DAV:   5    -0.363937719756E+02   -0.11958E-06   -0.56873E-07    48   0.522E-03    0.481E-04
DAV:   6    -0.363937721415E+02   -0.16590E-06   -0.22772E-07    48   0.293E-03
  50 F= -.36393772E+02 E0= -.36393772E+02  d E =-.273060E-02
damped:  g(F)=  0.000E+00 g(S)=  0.000E+00 dE (1.order)= 0.000E+00
 bond charge predicted
       N       E                     dE             d eps       ncg     rms          rms(c)
DAV:   1    -0.363967518710E+02   -0.29799E-02   -0.79600E-03    96   0.793E-01    0.193E-02
DAV:   2    -0.363967517788E+02    0.92118E-07   -0.63708E-05    64   0.686E-02    0.118E-02
DAV:   3    -0.363967533327E+02   -0.15538E-05   -0.10470E-05    64   0.262E-02    0.383E-03
DAV:   4    -0.363967539548E+02   -0.62213E-06   -0.24633E-06    48   0.117E-02    0.111E-03
DAV:   5    -0.363967541134E+02   -0.15860E-06   -0.71126E-07    48   0.577E-03    0.536E-04
DAV:   6    -0.363967543229E+02   -0.20947E-06   -0.28051E-07    48   0.321E-03
  51 F= -.36396754E+02 E0= -.36396754E+02  d E =-.298218E-02
damped:  g(F)=  0.000E+00 g(S)=  0.000E+00 dE (1.order)= 0.000E+00
 bond charge predicted
       N       E                     dE             d eps       ncg     rms          rms(c)
DAV:   1    -0.363998119772E+02   -0.30579E-02   -0.89115E-03    96   0.837E-01    0.203E-02
DAV:   2    -0.363998128773E+02   -0.90013E-06   -0.77041E-05    64   0.741E-02    0.127E-02
DAV:   3    -0.363998146528E+02   -0.17755E-05   -0.12249E-05    64   0.287E-02    0.390E-03
DAV:   4    -0.363998153421E+02   -0.68932E-06   -0.28149E-06    48   0.126E-02    0.120E-03
DAV:   5    -0.363998155324E+02   -0.19031E-06   -0.79942E-07    48   0.618E-03    0.566E-04
DAV:   6    -0.363998157577E+02   -0.22533E-06   -0.31511E-07    48   0.341E-03
  52 F= -.36399816E+02 E0= -.36399816E+02  d E =-.306143E-02
damped:  g(F)=  0.000E+00 g(S)=  0.000E+00 dE (1.order)= 0.000E+00
 bond charge predicted
       N       E                     dE             d eps       ncg     rms          rms(c)
DAV:   1    -0.364027134119E+02   -0.28979E-02   -0.88572E-03    96   0.834E-01    0.203E-02
DAV:   2    -0.364027155127E+02   -0.21008E-05   -0.83112E-05    64   0.753E-02    0.129E-02
DAV:   3    -0.364027173177E+02   -0.18051E-05   -0.12786E-05    52   0.300E-02    0.344E-03
DAV:   4    -0.364027179178E+02   -0.60003E-06   -0.28508E-06    48   0.129E-02    0.125E-03
DAV:   5    -0.364027181134E+02   -0.19565E-06   -0.77295E-07    48   0.628E-03    0.640E-04
DAV:   6    -0.364027183611E+02   -0.24764E-06   -0.31921E-07    48   0.363E-03
  53 F= -.36402718E+02 E0= -.36402718E+02  d E =-.290260E-02
damped:  g(F)=  0.000E+00 g(S)=  0.000E+00 dE (1.order)= 0.000E+00
 bond charge predicted
       N       E                     dE             d eps       ncg     rms          rms(c)
DAV:   1    -0.364026769114E+02    0.41202E-04   -0.27850E-06    48   0.161E-02    0.482E-04
DAV:   2    -0.364026770932E+02   -0.18179E-06   -0.16660E-07    48   0.383E-03    0.273E-04
DAV:   3    -0.364026773154E+02   -0.22226E-06   -0.40688E-08    48   0.135E-03    0.150E-04
DAV:   4    -0.364026775383E+02   -0.22290E-06   -0.25519E-08    48   0.716E-04    0.797E-05
DAV:   5    -0.364026777803E+02   -0.24199E-06   -0.22919E-08    48   0.489E-04    0.424E-05
DAV:   6    -0.364026780815E+02   -0.30118E-06   -0.23591E-08    64   0.407E-04
  54 F= -.36402678E+02 E0= -.36402678E+02  d E =0.402796E-04
damped:  g(F)=  0.000E+00 g(S)=  0.000E+00 dE (1.order)= 0.000E+00
 bond charge predicted
       N       E                     dE             d eps       ncg     rms          rms(c)
DAV:   1    -0.364026270679E+02    0.50712E-04   -0.64222E-06    48   0.250E-02    0.632E-04
DAV:   2    -0.364026271533E+02   -0.85453E-07   -0.29282E-07    48   0.557E-03    0.336E-04
DAV:   3    -0.364026272269E+02   -0.73635E-07   -0.46432E-08    48   0.173E-03    0.183E-04
DAV:   4    -0.364026273087E+02   -0.81800E-07   -0.22479E-08    64   0.814E-04    0.585E-05
DAV:   5    -0.364026273615E+02   -0.52749E-07   -0.17090E-08    48   0.405E-04    0.342E-05
DAV:   6    -0.364026274334E+02   -0.71918E-07   -0.15871E-08    64   0.240E-04
  55 F= -.36402627E+02 E0= -.36402627E+02  d E =0.506481E-04
damped:  g(F)=  0.000E+00 g(S)=  0.000E+00 dE (1.order)= 0.000E+00
 bond charge predicted
       N       E                     dE             d eps       ncg     rms          rms(c)
DAV:   1    -0.364026141520E+02    0.13210E-04   -0.79164E-06    48   0.274E-02    0.688E-04
DAV:   2    -0.364026141975E+02   -0.45482E-07   -0.36944E-07    48   0.631E-03    0.350E-04
DAV:   3    -0.364026142194E+02   -0.21906E-07   -0.54546E-08    48   0.194E-03    0.227E-04
DAV:   4    -0.364026142426E+02   -0.23238E-07   -0.24305E-08    48   0.878E-04    0.741E-05
DAV:   5    -0.364026142573E+02   -0.14734E-07   -0.18612E-08    48   0.415E-04    0.334E-05
DAV:   6    -0.364026142698E+02   -0.12483E-07   -0.17466E-08    48   0.212E-04
  56 F= -.36402614E+02 E0= -.36402614E+02  d E =0.131636E-04
damped:  g(F)=  0.000E+00 g(S)=  0.000E+00 dE (1.order)= 0.000E+00
 bond charge predicted
       N       E                     dE             d eps       ncg     rms          rms(c)
DAV:   1    -0.364026901907E+02   -0.75933E-04   -0.16787E-05    48   0.389E-02    0.962E-04
DAV:   2    -0.364026902475E+02   -0.56799E-07   -0.75043E-07    48   0.894E-03    0.575E-04
DAV:   3    -0.364026902588E+02   -0.11297E-07   -0.96602E-08    48   0.265E-03    0.342E-04
DAV:   4    -0.364026902645E+02   -0.57557E-08   -0.36745E-08    48   0.124E-03    0.107E-04
DAV:   5    -0.364026902670E+02   -0.24525E-08   -0.22878E-08    48   0.584E-04    0.748E-05
DAV:   6    -0.364026902690E+02   -0.20000E-08   -0.19180E-08    48   0.302E-04
  57 F= -.36402690E+02 E0= -.36402690E+02  d E =-.759992E-04
damped:  g(F)=  0.000E+00 g(S)=  0.000E+00 dE (1.order)= 0.000E+00
 bond charge predicted
       N       E                     dE             d eps       ncg     rms          rms(c)
DAV:   1    -0.364029024254E+02   -0.21216E-03   -0.54611E-05    48   0.676E-02    0.176E-03
DAV:   2    -0.364029025941E+02   -0.16867E-06   -0.22800E-06    48   0.152E-02    0.107E-03
DAV:   3    -0.364029026224E+02   -0.28288E-07   -0.27193E-07    48   0.454E-03    0.519E-04
DAV:   4    -0.364029026279E+02   -0.54890E-08   -0.83489E-08    48   0.210E-03    0.194E-04
DAV:   5    -0.364029026277E+02    0.13415E-09   -0.36217E-08    48   0.996E-04    0.129E-04
DAV:   6    -0.364029026243E+02    0.34083E-08   -0.23109E-08    48   0.572E-04
  58 F= -.36402903E+02 E0= -.36402903E+02  d E =-.212355E-03
damped:  g(F)=  0.000E+00 g(S)=  0.000E+00 dE (1.order)= 0.000E+00
 bond charge predicted
       N       E                     dE             d eps       ncg     rms          rms(c)
DAV:   1    -0.364032427282E+02   -0.34010E-03   -0.12129E-04    80   0.980E-02    0.248E-03
DAV:   2    -0.364032427145E+02    0.13723E-07   -0.11708E-06    48   0.889E-03    0.158E-03
DAV:   3    -0.364032427299E+02   -0.15367E-07   -0.21200E-07    48   0.382E-03    0.414E-04
DAV:   4    -0.364032427334E+02   -0.35218E-08   -0.59466E-08    48   0.167E-03    0.201E-04
DAV:   5    -0.364032427317E+02    0.17317E-08   -0.27061E-08    48   0.775E-04    0.114E-04
DAV:   6    -0.364032427315E+02    0.21510E-09   -0.22004E-08    48   0.536E-04
  59 F= -.36403243E+02 E0= -.36403243E+02  d E =-.340107E-03
damped:  g(F)=  0.000E+00 g(S)=  0.000E+00 dE (1.order)= 0.000E+00
 bond charge predicted
       N       E                     dE             d eps       ncg     rms          rms(c)
DAV:   1    -0.364037603654E+02   -0.51763E-03   -0.25968E-04    96   0.143E-01    0.350E-03
DAV:   2    -0.364037603447E+02    0.20757E-07   -0.22514E-06    48   0.126E-02    0.220E-03
DAV:   3    -0.364037603971E+02   -0.52467E-07   -0.37940E-07    48   0.505E-03    0.555E-04
DAV:   4    -0.364037604065E+02   -0.93522E-08   -0.97854E-08    48   0.217E-03    0.221E-04
DAV:   5    -0.364037604037E+02    0.27761E-08   -0.38992E-08    48   0.108E-03    0.114E-04
DAV:   6    -0.364037604077E+02   -0.39532E-08   -0.26141E-08    48   0.628E-04
  60 F= -.36403760E+02 E0= -.36403760E+02  d E =-.517676E-03
damped:  g(F)=  0.000E+00 g(S)=  0.000E+00 dE (1.order)= 0.000E+00
 bond charge predicted
       N       E                     dE             d eps       ncg     rms          rms(c)
DAV:   1    -0.364044882314E+02   -0.72783E-03   -0.50047E-04    96   0.200E-01    0.484E-03
DAV:   2    -0.364044881782E+02    0.53177E-07   -0.41168E-06    64   0.175E-02    0.298E-03
DAV:   3    -0.364044882880E+02   -0.10985E-06   -0.67831E-07    48   0.667E-03    0.969E-04
DAV:   4    -0.364044883219E+02   -0.33835E-07   -0.17161E-07    48   0.300E-03    0.267E-04
DAV:   5    -0.364044883216E+02    0.27057E-09   -0.60450E-08    48   0.146E-03    0.124E-04
DAV:   6    -0.364044883308E+02   -0.91428E-08   -0.33425E-08    48   0.799E-04
  61 F= -.36404488E+02 E0= -.36404488E+02  d E =-.727923E-03
damped:  g(F)=  0.000E+00 g(S)=  0.000E+00 dE (1.order)= 0.000E+00
 bond charge predicted
       N       E                     dE             d eps       ncg     rms          rms(c)
DAV:   1    -0.364054596548E+02   -0.97133E-03   -0.88984E-04    96   0.268E-01    0.653E-03
DAV:   2    -0.364054595322E+02    0.12262E-06   -0.72129E-06    64   0.235E-02    0.398E-03
DAV:   3    -0.364054597100E+02   -0.17779E-06   -0.12043E-06    48   0.892E-03    0.149E-03
DAV:   4    -0.364054597906E+02   -0.80617E-07   -0.30108E-07    48   0.418E-03    0.364E-04
DAV:   5    -0.364054597935E+02   -0.28535E-08   -0.93840E-08    48   0.196E-03    0.170E-04
DAV:   6    -0.364054598082E+02   -0.14697E-07   -0.44747E-08    48   0.106E-03
  62 F= -.36405460E+02 E0= -.36405460E+02  d E =-.971477E-03
damped:  g(F)=  0.000E+00 g(S)=  0.000E+00 dE (1.order)= 0.000E+00
 bond charge predicted
       N       E                     dE             d eps       ncg     rms          rms(c)
DAV:   1    -0.364067059575E+02   -0.12462E-02   -0.14508E-03    96   0.341E-01    0.827E-03
DAV:   2    -0.364067058210E+02    0.13654E-06   -0.11520E-05    64   0.296E-02    0.506E-03
DAV:   3    -0.364067061198E+02   -0.29879E-06   -0.19255E-06    48   0.113E-02    0.176E-03
DAV:   4    -0.364067062339E+02   -0.11408E-06   -0.46736E-07    48   0.515E-03    0.460E-04
DAV:   5    -0.364067062418E+02   -0.79082E-08   -0.14203E-07    48   0.246E-03    0.218E-04
DAV:   6    -0.364067062672E+02   -0.25474E-07   -0.62922E-08    48   0.135E-03
  63 F= -.36406706E+02 E0= -.36406706E+02  d E =-.124646E-02
damped:  g(F)=  0.000E+00 g(S)=  0.000E+00 dE (1.order)= 0.000E+00
 bond charge predicted
       N       E                     dE             d eps       ncg     rms          rms(c)
DAV:   1    -0.364082405223E+02   -0.15343E-02   -0.21846E-03    96   0.418E-01    0.101E-02
DAV:   2    -0.364082405010E+02    0.21287E-07   -0.17362E-05    64   0.355E-02    0.625E-03
DAV:   3    -0.364082409845E+02   -0.48348E-06   -0.28899E-06    48   0.139E-02    0.170E-03
DAV:   4    -0.364082410997E+02   -0.11523E-06   -0.68387E-07    48   0.604E-03    0.580E-04
DAV:   5    -0.364082411178E+02   -0.18133E-07   -0.20886E-07    48   0.308E-03    0.282E-04
DAV:   6    -0.364082411597E+02   -0.41902E-07   -0.90234E-08    48   0.174E-03
  64 F= -.36408241E+02 E0= -.36408241E+02  d E =-.153489E-02
damped:  g(F)=  0.000E+00 g(S)=  0.000E+00 dE (1.order)= 0.000E+00
 bond charge predicted
       N       E                     dE             d eps       ncg     rms          rms(c)
DAV:   1    -0.364100469570E+02   -0.18058E-02   -0.30704E-03    96   0.495E-01    0.119E-02
DAV:   2    -0.364100470482E+02   -0.91274E-07   -0.24817E-05    64   0.422E-02    0.746E-03
DAV:   3    -0.364100477428E+02   -0.69458E-06   -0.41418E-06    48   0.167E-02    0.190E-03
DAV:   4    -0.364100479015E+02   -0.15871E-06   -0.97024E-07    48   0.722E-03    0.705E-04
DAV:   5    -0.364100479405E+02   -0.39005E-07   -0.28997E-07    48   0.372E-03    0.351E-04
DAV:   6    -0.364100480064E+02   -0.65903E-07   -0.12354E-07    48   0.213E-03
  65 F= -.36410048E+02 E0= -.36410048E+02  d E =-.180685E-02
damped:  g(F)=  0.000E+00 g(S)=  0.000E+00 dE (1.order)= 0.000E+00
 bond charge predicted
       N       E                     dE             d eps       ncg     rms          rms(c)
DAV:   1    -0.364120061083E+02   -0.19582E-02   -0.37637E-03    96   0.551E-01    0.134E-02
DAV:   2    -0.364120060721E+02    0.36136E-07   -0.31176E-05    64   0.485E-02    0.828E-03
DAV:   3    -0.364120068175E+02   -0.74541E-06   -0.51657E-06    56   0.186E-02    0.296E-03
DAV:   4    -0.364120071779E+02   -0.36033E-06   -0.12229E-06    48   0.853E-03    0.788E-04
DAV:   5    -0.364120072433E+02   -0.65410E-07   -0.34838E-07    48   0.400E-03    0.345E-04
DAV:   6    -0.364120073307E+02   -0.87474E-07   -0.13977E-07    48   0.218E-03
  66 F= -.36412007E+02 E0= -.36412007E+02  d E =-.195932E-02
damped:  g(F)=  0.000E+00 g(S)=  0.000E+00 dE (1.order)= 0.000E+00
 bond charge predicted
       N       E                     dE             d eps       ncg     rms          rms(c)
DAV:   1    -0.364119988217E+02    0.84216E-05   -0.73165E-07    48   0.813E-03    0.316E-04
DAV:   2    -0.364119988909E+02   -0.69261E-07   -0.66342E-08    48   0.213E-03    0.191E-04
DAV:   3    -0.364119989549E+02   -0.63995E-07   -0.23926E-08    48   0.771E-04    0.129E-04
DAV:   4    -0.364119991097E+02   -0.15483E-06   -0.21334E-08    48   0.574E-04    0.505E-05
DAV:   5    -0.364119991600E+02   -0.50245E-07   -0.16582E-08    48   0.306E-04    0.391E-05
DAV:   6    -0.364119992733E+02   -0.11335E-06   -0.16574E-08    48   0.235E-04
  67 F= -.36411999E+02 E0= -.36411999E+02  d E =0.805741E-05
damped:  g(F)=  0.000E+00 g(S)=  0.000E+00 dE (1.order)= 0.000E+00
 bond charge predicted
       N       E                     dE             d eps       ncg     rms          rms(c)
DAV:   1    -0.364119835557E+02    0.15604E-04   -0.20844E-06    64   0.140E-02    0.604E-04
DAV:   2    -0.364119835901E+02   -0.34360E-07   -0.11020E-07    48   0.326E-03    0.307E-04
DAV:   3    -0.364119836207E+02   -0.30636E-07   -0.24508E-08    48   0.101E-03    0.182E-04
DAV:   4    -0.364119836827E+02   -0.61995E-07   -0.20692E-08    48   0.730E-04    0.575E-05
DAV:   5    -0.364119837041E+02   -0.21362E-07   -0.15752E-08    48   0.336E-04    0.409E-05
DAV:   6    -0.364119837352E+02   -0.31113E-07   -0.15060E-08    48   0.156E-04
  68 F= -.36411984E+02 E0= -.36411984E+02  d E =0.155381E-04
damped:  g(F)=  0.000E+00 g(S)=  0.000E+00 dE (1.order)= 0.000E+00
 bond charge predicted
       N       E                     dE             d eps       ncg     rms          rms(c)
DAV:   1    -0.364119628719E+02    0.20832E-04   -0.27629E-06    48   0.162E-02    0.654E-04
DAV:   2    -0.364119628838E+02   -0.11950E-07   -0.13796E-07    48   0.373E-03    0.329E-04
DAV:   3    -0.364119628930E+02   -0.91353E-08   -0.28658E-08    48   0.116E-03    0.199E-04
DAV:   4    -0.364119629127E+02   -0.19735E-07   -0.22478E-08    48   0.770E-04    0.575E-05
DAV:   5    -0.364119629207E+02   -0.79528E-08   -0.17504E-08    48   0.347E-04    0.417E-05
DAV:   6    -0.364119629297E+02   -0.90542E-08   -0.16731E-08    48   0.152E-04
  69 F= -.36411963E+02 E0= -.36411963E+02  d E =0.208055E-04
damped:  g(F)=  0.000E+00 g(S)=  0.000E+00 dE (1.order)= 0.000E+00
 bond charge predicted
       N       E                     dE             d eps       ncg     rms          rms(c)
DAV:   1    -0.364119407452E+02    0.22175E-04   -0.24038E-06    48   0.151E-02    0.495E-04
DAV:   2    -0.364119407501E+02   -0.49158E-08   -0.11769E-07    48   0.339E-03    0.253E-04
DAV:   3    -0.364119407529E+02   -0.28035E-08   -0.28589E-08    48   0.108E-03    0.165E-04
DAV:   4    -0.364119407584E+02   -0.55235E-08   -0.21040E-08    48   0.593E-04    0.468E-05
DAV:   5    -0.364119407617E+02   -0.33211E-08   -0.18301E-08    48   0.278E-04    0.315E-05
DAV:   6    -0.364119407641E+02   -0.23622E-08   -0.17655E-08    48   0.132E-04
  70 F= -.36411941E+02 E0= -.36411941E+02  d E =0.221656E-04
damped:  g(F)=  0.000E+00 g(S)=  0.000E+00 dE (1.order)= 0.000E+00
 bond charge predicted
       N       E                     dE             d eps       ncg     rms          rms(c)
DAV:   1    -0.364119223027E+02    0.18459E-04   -0.23158E-06    48   0.149E-02    0.390E-04
DAV:   2    -0.364119223113E+02   -0.85853E-08   -0.11785E-07    48   0.338E-03    0.213E-04
DAV:   3    -0.364119223139E+02   -0.25512E-08   -0.29600E-08    48   0.107E-03    0.126E-04
DAV:   4    -0.364119223160E+02   -0.21350E-08   -0.20604E-08    48   0.497E-04    0.351E-05
DAV:   5    -0.364119223170E+02   -0.10093E-08   -0.18523E-08    48   0.233E-04    0.185E-05
DAV:   6    -0.364119223177E+02   -0.72760E-09   -0.18144E-08    48   0.130E-04
  71 F= -.36411922E+02 E0= -.36411922E+02  d E =0.184464E-04
damped:  g(F)=  0.000E+00 g(S)=  0.000E+00 dE (1.order)= 0.000E+00
 bond charge predicted
       N       E                     dE             d eps       ncg     rms          rms(c)
DAV:   1    -0.364119133839E+02    0.89331E-05   -0.30662E-06    48   0.173E-02    0.460E-04
DAV:   2    -0.364119133988E+02   -0.14865E-07   -0.16220E-07    48   0.401E-03    0.287E-04
DAV:   3    -0.364119134025E+02   -0.37128E-08   -0.33807E-08    48   0.125E-03    0.150E-04
DAV:   4    -0.364119134041E+02   -0.16053E-08   -0.21902E-08    48   0.596E-04    0.373E-05
DAV:   5    -0.364119134040E+02    0.14165E-09   -0.18977E-08    48   0.273E-04    0.261E-05
DAV:   6    -0.364119134044E+02   -0.43747E-09   -0.18316E-08    48   0.143E-04
  72 F= -.36411913E+02 E0= -.36411913E+02  d E =0.891332E-05
damped:  g(F)=  0.000E+00 g(S)=  0.000E+00 dE (1.order)= 0.000E+00
 bond charge predicted
       N       E                     dE             d eps       ncg     rms          rms(c)
DAV:   1    -0.364119227323E+02   -0.93283E-05   -0.47206E-06    48   0.215E-02    0.581E-04
DAV:   2    -0.364119227544E+02   -0.22092E-07   -0.24276E-07    48   0.498E-03    0.372E-04
DAV:   3    -0.364119227593E+02   -0.49249E-08   -0.43229E-08    48   0.155E-03    0.211E-04
DAV:   4    -0.364119227613E+02   -0.19941E-08   -0.24933E-08    48   0.785E-04    0.512E-05
DAV:   5    -0.364119227611E+02    0.26375E-09   -0.19757E-08    48   0.357E-04    0.377E-05
DAV:   6    -0.364119227612E+02   -0.11369E-09   -0.18598E-08    48   0.186E-04
  73 F= -.36411923E+02 E0= -.36411923E+02  d E =-.935676E-05
damped:  g(F)=  0.000E+00 g(S)=  0.000E+00 dE (1.order)= 0.000E+00
 bond charge predicted
       N       E                     dE             d eps       ncg     rms          rms(c)
DAV:   1    -0.364119645775E+02   -0.41816E-04   -0.71335E-06    48   0.262E-02    0.654E-04
DAV:   2    -0.364119646064E+02   -0.28920E-07   -0.33255E-07    48   0.592E-03    0.401E-04
DAV:   3    -0.364119646143E+02   -0.79003E-08   -0.57231E-08    48   0.188E-03    0.217E-04
DAV:   4    -0.364119646167E+02   -0.24472E-08   -0.27765E-08    48   0.880E-04    0.476E-05
DAV:   5    -0.364119646168E+02   -0.29104E-10   -0.20821E-08    48   0.425E-04    0.326E-05
DAV:   6    -0.364119646169E+02   -0.13188E-09   -0.18957E-08    48   0.237E-04
  74 F= -.36411965E+02 E0= -.36411965E+02  d E =-.418557E-04
damped:  g(F)=  0.000E+00 g(S)=  0.000E+00 dE (1.order)= 0.000E+00
 bond charge predicted
       N       E                     dE             d eps       ncg     rms          rms(c)
DAV:   1    -0.364120585281E+02   -0.93911E-04   -0.15988E-05    48   0.392E-02    0.958E-04
DAV:   2    -0.364120585794E+02   -0.51304E-07   -0.68374E-07    48   0.865E-03    0.570E-04
DAV:   3    -0.364120585933E+02   -0.13877E-07   -0.10430E-07    48   0.273E-03    0.277E-04
DAV:   4    -0.364120585968E+02   -0.35870E-08   -0.40219E-08    48   0.127E-03    0.101E-04
DAV:   5    -0.364120585976E+02   -0.71441E-09   -0.24301E-08    48   0.628E-04    0.514E-05
DAV:   6    -0.364120585981E+02   -0.57207E-09   -0.19980E-08    48   0.363E-04
  75 F= -.36412059E+02 E0= -.36412059E+02  d E =-.939812E-04
damped:  g(F)=  0.000E+00 g(S)=  0.000E+00 dE (1.order)= 0.000E+00
 bond charge predicted
       N       E                     dE             d eps       ncg     rms          rms(c)
DAV:   1    -0.364122333575E+02   -0.17476E-03   -0.41628E-05    48   0.628E-02    0.155E-03
DAV:   2    -0.364122334822E+02   -0.12478E-06   -0.17293E-06    48   0.137E-02    0.928E-04
DAV:   3    -0.364122335135E+02   -0.31298E-07   -0.23641E-07    48   0.430E-03    0.442E-04
DAV:   4    -0.364122335204E+02   -0.68668E-08   -0.75414E-08    48   0.201E-03    0.183E-04
DAV:   5    -0.364122335216E+02   -0.11730E-08   -0.34122E-08    48   0.995E-04    0.927E-05
DAV:   6    -0.364122335212E+02    0.35152E-09   -0.22916E-08    48   0.576E-04
  76 F= -.36412234E+02 E0= -.36412234E+02  d E =-.174923E-03
damped:  g(F)=  0.000E+00 g(S)=  0.000E+00 dE (1.order)= 0.000E+00
 bond charge predicted
       N       E                     dE             d eps       ncg     rms          rms(c)
DAV:   1    -0.364125075955E+02   -0.27407E-03   -0.86955E-05    48   0.903E-02    0.221E-03
DAV:   2    -0.364125078513E+02   -0.25582E-06   -0.34668E-06    48   0.194E-02    0.127E-03
DAV:   3    -0.364125079264E+02   -0.75086E-07   -0.46846E-07    48   0.607E-03    0.597E-04
DAV:   4    -0.364125079412E+02   -0.14771E-07   -0.13333E-07    48   0.280E-03    0.235E-04
DAV:   5    -0.364125079418E+02   -0.61812E-09   -0.51326E-08    48   0.140E-03    0.110E-04
DAV:   6    -0.364125079423E+02   -0.49204E-09   -0.28392E-08    48   0.807E-04
  77 F= -.36412508E+02 E0= -.36412508E+02  d E =-.274421E-03
damped:  g(F)=  0.000E+00 g(S)=  0.000E+00 dE (1.order)= 0.000E+00
 bond charge predicted
       N       E                     dE             d eps       ncg     rms          rms(c)
DAV:   1    -0.364129007152E+02   -0.39277E-03   -0.17059E-04    96   0.124E-01    0.310E-03
DAV:   2    -0.364129006263E+02    0.88898E-07   -0.11206E-06    48   0.102E-02    0.177E-03
DAV:   3    -0.364129006970E+02   -0.70733E-07   -0.21665E-07    48   0.376E-03    0.684E-04
DAV:   4    -0.364129007207E+02   -0.23640E-07   -0.72264E-08    48   0.191E-03    0.130E-04
DAV:   5    -0.364129007217E+02   -0.10641E-08   -0.33495E-08    48   0.974E-04    0.729E-05
DAV:   6    -0.364129007254E+02   -0.36940E-08   -0.22759E-08    48   0.542E-04
  78 F= -.36412901E+02 E0= -.36412901E+02  d E =-.392783E-03
damped:  g(F)=  0.000E+00 g(S)=  0.000E+00 dE (1.order)= 0.000E+00
 bond charge predicted
       N       E                     dE             d eps       ncg     rms          rms(c)
DAV:   1    -0.364134351000E+02   -0.53438E-03   -0.29991E-04    96   0.164E-01    0.417E-03
DAV:   2    -0.364134349254E+02    0.17453E-06   -0.19136E-06    64   0.135E-02    0.233E-03
DAV:   3    -0.364134350355E+02   -0.11010E-06   -0.35443E-07    48   0.490E-03    0.979E-04
DAV:   4    -0.364134350840E+02   -0.48481E-07   -0.11085E-07    48   0.252E-03    0.167E-04
DAV:   5    -0.364134350860E+02   -0.20063E-08   -0.43759E-08    48   0.126E-03    0.101E-04
DAV:   6    -0.364134350929E+02   -0.68612E-08   -0.26102E-08    48   0.689E-04
  79 F= -.36413435E+02 E0= -.36413435E+02  d E =-.534367E-03
damped:  g(F)=  0.000E+00 g(S)=  0.000E+00 dE (1.order)= 0.000E+00
 bond charge predicted
       N       E                     dE             d eps       ncg     rms          rms(c)
DAV:   1    -0.364141298912E+02   -0.69481E-03   -0.47961E-04    96   0.207E-01    0.506E-03
DAV:   2    -0.364141297148E+02    0.17636E-06   -0.32266E-06    64   0.168E-02    0.295E-03
DAV:   3    -0.364141298801E+02   -0.16526E-06   -0.56907E-07    48   0.632E-03    0.100E-03
DAV:   4    -0.364141299212E+02   -0.41133E-07   -0.16294E-07    48   0.308E-03    0.292E-04
DAV:   5    -0.364141299239E+02   -0.27264E-08   -0.59552E-08    48   0.163E-03    0.137E-04
DAV:   6    -0.364141299340E+02   -0.10058E-07   -0.32681E-08    48   0.901E-04
  80 F= -.36414130E+02 E0= -.36414130E+02  d E =-.694841E-03
damped:  g(F)=  0.000E+00 g(S)=  0.000E+00 dE (1.order)= 0.000E+00
 bond charge predicted
       N       E                     dE             d eps       ncg     rms          rms(c)
DAV:   1    -0.364149984023E+02   -0.86848E-03   -0.70811E-04    96   0.250E-01    0.619E-03
DAV:   2    -0.364149981438E+02    0.25850E-06   -0.46647E-06    64   0.204E-02    0.357E-03
DAV:   3    -0.364149983794E+02   -0.23558E-06   -0.81550E-07    48   0.755E-03    0.127E-03
DAV:   4    -0.364149984459E+02   -0.66495E-07   -0.22781E-07    48   0.371E-03    0.346E-04
DAV:   5    -0.364149984532E+02   -0.73029E-08   -0.77902E-08    48   0.195E-03    0.162E-04
DAV:   6    -0.364149984700E+02   -0.16829E-07   -0.38930E-08    48   0.108E-03
  81 F= -.36414998E+02 E0= -.36414998E+02  d E =-.868536E-03
damped:  g(F)=  0.000E+00 g(S)=  0.000E+00 dE (1.order)= 0.000E+00
 bond charge predicted
       N       E                     dE             d eps       ncg     rms          rms(c)
DAV:   1    -0.364160164631E+02   -0.10180E-02   -0.93670E-04    96   0.287E-01    0.748E-03
DAV:   2    -0.364160159699E+02    0.49319E-06   -0.60273E-06    64   0.241E-02    0.415E-03
DAV:   3    -0.364160162409E+02   -0.27101E-06   -0.10802E-06    48   0.869E-03    0.182E-03
DAV:   4    -0.364160163879E+02   -0.14703E-06   -0.30496E-07    48   0.447E-03    0.304E-04
DAV:   5    -0.364160163989E+02   -0.10977E-07   -0.95533E-08    48   0.220E-03    0.186E-04
DAV:   6    -0.364160164193E+02   -0.20409E-07   -0.43041E-08    48   0.119E-03
  82 F= -.36416016E+02 E0= -.36416016E+02  d E =-.101795E-02
damped:  g(F)=  0.000E+00 g(S)=  0.000E+00 dE (1.order)= 0.000E+00
 bond charge predicted
       N       E                     dE             d eps       ncg     rms          rms(c)
DAV:   1    -0.364171102373E+02   -0.10938E-02   -0.10730E-03    96   0.306E-01    0.779E-03
DAV:   2    -0.364171100482E+02    0.18904E-06   -0.86224E-06    48   0.260E-02    0.475E-03
DAV:   3    -0.364171103188E+02   -0.27059E-06   -0.17420E-06    48   0.115E-02    0.131E-03
DAV:   4    -0.364171103745E+02   -0.55725E-07   -0.42638E-07    48   0.527E-03    0.661E-04
DAV:   5    -0.364171103828E+02   -0.83106E-08   -0.11201E-07    48   0.265E-03    0.347E-04
DAV:   6    -0.364171104130E+02   -0.30147E-07   -0.65408E-08    48   0.179E-03
  83 F= -.36417110E+02 E0= -.36417110E+02  d E =-.109399E-02
damped:  g(F)=  0.000E+00 g(S)=  0.000E+00 dE (1.order)= 0.000E+00
 bond charge predicted
       N       E                     dE             d eps       ncg     rms          rms(c)
DAV:   1    -0.364171106533E+02   -0.27043E-06   -0.10842E-05    48   0.303E-02    0.141E-03
DAV:   2    -0.364171107045E+02   -0.51266E-07   -0.52772E-07    48   0.710E-03    0.760E-04
DAV:   3    -0.364171107453E+02   -0.40766E-07   -0.62123E-08    48   0.214E-03    0.433E-04
DAV:   4    -0.364171108147E+02   -0.69357E-07   -0.45806E-08    48   0.162E-03    0.138E-04
DAV:   5    -0.364171108329E+02   -0.18240E-07   -0.20665E-08    48   0.721E-04    0.942E-05
DAV:   6    -0.364171108661E+02   -0.33237E-07   -0.16402E-08    48   0.311E-04
  84 F= -.36417111E+02 E0= -.36417111E+02  d E =-.453148E-06
damped:  g(F)=  0.000E+00 g(S)=  0.000E+00 dE (1.order)= 0.000E+00
 bond charge predicted
       N       E                     dE             d eps       ncg     rms          rms(c)
DAV:   1    -0.364171353953E+02   -0.24562E-04   -0.18735E-05    48   0.402E-02    0.177E-03
DAV:   2    -0.364171354523E+02   -0.57063E-07   -0.90537E-07    48   0.944E-03    0.975E-04
DAV:   3    -0.364171354759E+02   -0.23544E-07   -0.10156E-07    48   0.285E-03    0.570E-04
DAV:   4    -0.364171355171E+02   -0.41216E-07   -0.72164E-08    64   0.218E-03    0.186E-04
DAV:   5    -0.364171355220E+02   -0.48808E-08   -0.26559E-08    48   0.955E-04    0.129E-04
DAV:   6    -0.364171355330E+02   -0.11033E-07   -0.18778E-08    48   0.418E-04
  85 F= -.36417136E+02 E0= -.36417136E+02  d E =-.246668E-04
damped:  g(F)=  0.000E+00 g(S)=  0.000E+00 dE (1.order)= 0.000E+00
 bond charge predicted
       N       E                     dE             d eps       ncg     rms          rms(c)
DAV:   1    -0.364171470078E+02   -0.11486E-04   -0.35058E-07    48   0.536E-03    0.202E-04
DAV:   2    -0.364171470118E+02   -0.39498E-08   -0.32168E-08    48   0.122E-03    0.120E-04
DAV:   3    -0.364171470154E+02   -0.35635E-08   -0.18510E-08    48   0.362E-04    0.677E-05
DAV:   4    -0.364171470214E+02   -0.60647E-08   -0.17882E-08    48   0.235E-04    0.208E-05
DAV:   5    -0.364171470236E+02   -0.21470E-08   -0.17453E-08    48   0.103E-04    0.151E-05
DAV:   6    -0.364171470265E+02   -0.29520E-08   -0.17464E-08    48   0.506E-05
  86 F= -.36417147E+02 E0= -.36417147E+02  d E =-.114935E-04
damped:  g(F)=  0.000E+00 g(S)=  0.000E+00 dE (1.order)= 0.000E+00
 bond charge predicted
       N       E                     dE             d eps       ncg     rms          rms(c)
DAV:   1    -0.364171777218E+02   -0.30698E-04   -0.16477E-06    48   0.117E-02    0.408E-04
DAV:   2    -0.364171777229E+02   -0.10523E-08   -0.90073E-08    48   0.263E-03    0.251E-04
DAV:   3    -0.364171777214E+02    0.15270E-08   -0.25163E-08    48   0.792E-04    0.137E-04
DAV:   4    -0.364171777213E+02    0.81627E-10   -0.20879E-08    48   0.506E-04    0.493E-05
DAV:   5    -0.364171777223E+02   -0.97634E-09   -0.18342E-08    48   0.227E-04    0.351E-05
DAV:   6    -0.364171777227E+02   -0.47737E-09   -0.17901E-08    48   0.116E-04
  87 F= -.36417178E+02 E0= -.36417178E+02  d E =-.306962E-04
damped:  g(F)=  0.000E+00 g(S)=  0.000E+00 dE (1.order)= 0.000E+00
 bond charge predicted
       N       E                     dE             d eps       ncg     rms          rms(c)
DAV:   1    -0.364172361671E+02   -0.58445E-04   -0.44731E-06    48   0.193E-02    0.596E-04
DAV:   2    -0.364172361739E+02   -0.68186E-08   -0.20709E-07    48   0.425E-03    0.373E-04
DAV:   3    -0.364172361719E+02    0.20723E-08   -0.38203E-08    48   0.128E-03    0.193E-04
DAV:   4    -0.364172361704E+02    0.15009E-08   -0.24679E-08    48   0.720E-04    0.768E-05
DAV:   5    -0.364172361708E+02   -0.45520E-09   -0.19351E-08    48   0.329E-04    0.526E-05
DAV:   6    -0.364172361708E+02    0.55479E-10   -0.18193E-08    48   0.176E-04
  88 F= -.36417236E+02 E0= -.36417236E+02  d E =-.584480E-04
damped:  g(F)=  0.000E+00 g(S)=  0.000E+00 dE (1.order)= 0.000E+00
 bond charge predicted
       N       E                     dE             d eps       ncg     rms          rms(c)
DAV:   1    -0.364173240021E+02   -0.87831E-04   -0.85317E-06    48   0.265E-02    0.758E-04
DAV:   2    -0.364173240207E+02   -0.18549E-07   -0.36440E-07    48   0.578E-03    0.467E-04
DAV:   3    -0.364173240201E+02    0.56275E-09   -0.56657E-08    48   0.174E-03    0.226E-04
DAV:   4    -0.364173240188E+02    0.13036E-08   -0.28969E-08    48   0.874E-04    0.983E-05
DAV:   5    -0.364173240190E+02   -0.20623E-09   -0.20625E-08    48   0.403E-04    0.596E-05
DAV:   6    -0.364173240183E+02    0.75215E-09   -0.18530E-08    48   0.234E-04
  89 F= -.36417324E+02 E0= -.36417324E+02  d E =-.878475E-04
damped:  g(F)=  0.000E+00 g(S)=  0.000E+00 dE (1.order)= 0.000E+00
 bond charge predicted
       N       E                     dE             d eps       ncg     rms          rms(c)
DAV:   1    -0.364174429413E+02   -0.11892E-03   -0.13944E-05    48   0.339E-02    0.911E-04
DAV:   2    -0.364174429768E+02   -0.35559E-07   -0.56187E-07    48   0.732E-03    0.540E-04
DAV:   3    -0.364174429806E+02   -0.38242E-08   -0.81210E-08    48   0.219E-03    0.246E-04
DAV:   4    -0.364174429803E+02    0.33583E-09   -0.34458E-08    48   0.102E-03    0.110E-04
DAV:   5    -0.364174429799E+02    0.44724E-09   -0.22369E-08    48   0.483E-04    0.602E-05
DAV:   6    -0.364174429789E+02    0.93542E-09   -0.19031E-08    48   0.293E-04
  90 F= -.36417443E+02 E0= -.36417443E+02  d E =-.118961E-03
damped:  g(F)=  0.000E+00 g(S)=  0.000E+00 dE (1.order)= 0.000E+00
 bond charge predicted
       N       E                     dE             d eps       ncg     rms          rms(c)
DAV:   1    -0.364175946331E+02   -0.15165E-03   -0.21252E-05    48   0.419E-02    0.108E-03
DAV:   2    -0.364175946908E+02   -0.57730E-07   -0.82193E-07    48   0.900E-03    0.616E-04
DAV:   3    -0.364175947023E+02   -0.11455E-07   -0.11484E-07    48   0.270E-03    0.277E-04
DAV:   4    -0.364175947028E+02   -0.51784E-09   -0.42408E-08    48   0.120E-03    0.112E-04
DAV:   5    -0.364175947017E+02    0.10809E-08   -0.24864E-08    48   0.582E-04    0.611E-05
DAV:   6    -0.364175947011E+02    0.62641E-09   -0.19891E-08    48   0.352E-04
  91 F= -.36417595E+02 E0= -.36417595E+02  d E =-.151722E-03
damped:  g(F)=  0.000E+00 g(S)=  0.000E+00 dE (1.order)= 0.000E+00
 bond charge predicted
       N       E                     dE             d eps       ncg     rms          rms(c)
DAV:   1    -0.364178030310E+02   -0.20833E-03   -0.39052E-05    48   0.570E-02    0.145E-03
DAV:   2    -0.364178031393E+02   -0.10827E-06   -0.14691E-06    48   0.122E-02    0.802E-04
DAV:   3    -0.364178031653E+02   -0.26077E-07   -0.19760E-07    48   0.368E-03    0.381E-04
DAV:   4    -0.364178031682E+02   -0.28667E-08   -0.62222E-08    48   0.160E-03    0.128E-04
DAV:   5    -0.364178031671E+02    0.10978E-08   -0.30940E-08    48   0.777E-04    0.691E-05
DAV:   6    -0.364178031657E+02    0.14411E-08   -0.21776E-08    48   0.456E-04
  92 F= -.36417803E+02 E0= -.36417803E+02  d E =-.208465E-03
damped:  g(F)=  0.000E+00 g(S)=  0.000E+00 dE (1.order)= 0.000E+00
 bond charge predicted
       N       E                     dE             d eps       ncg     rms          rms(c)
DAV:   1    -0.364180799380E+02   -0.27677E-03   -0.69049E-05    48   0.761E-02    0.194E-03
DAV:   2    -0.364180801272E+02   -0.18924E-06   -0.25745E-06    48   0.163E-02    0.106E-03
DAV:   3    -0.364180801750E+02   -0.47749E-07   -0.33973E-07    48   0.494E-03    0.547E-04
DAV:   4    -0.364180801835E+02   -0.85122E-08   -0.95844E-08    48   0.215E-03    0.160E-04
DAV:   5    -0.364180801820E+02    0.14668E-08   -0.41013E-08    48   0.103E-03    0.812E-05
DAV:   6    -0.364180801806E+02    0.14616E-08   -0.25179E-08    48   0.585E-04
  93 F= -.36418080E+02 E0= -.36418080E+02  d E =-.277015E-03
damped:  g(F)=  0.000E+00 g(S)=  0.000E+00 dE (1.order)= 0.000E+00
 bond charge predicted
       N       E                     dE             d eps       ncg     rms          rms(c)
DAV:   1    -0.364184394553E+02   -0.35927E-03   -0.12155E-04    80   0.996E-02    0.250E-03
DAV:   2    -0.364184393994E+02    0.55930E-07   -0.92685E-07    48   0.868E-03    0.145E-03
DAV:   3    -0.364184394287E+02   -0.29286E-07   -0.17485E-07    48   0.320E-03    0.611E-04
DAV:   4    -0.364184394419E+02   -0.13200E-07   -0.57966E-08    48   0.158E-03    0.128E-04
DAV:   5    -0.364184394414E+02    0.51682E-09   -0.28638E-08    48   0.754E-04    0.686E-05
DAV:   6    -0.364184394444E+02   -0.30626E-08   -0.21529E-08    48   0.401E-04
  94 F= -.36418439E+02 E0= -.36418439E+02  d E =-.359264E-03
damped:  g(F)=  0.000E+00 g(S)=  0.000E+00 dE (1.order)= 0.000E+00
 bond charge predicted
       N       E                     dE             d eps       ncg     rms          rms(c)
DAV:   1    -0.364188965568E+02   -0.45712E-03   -0.19654E-04    96   0.127E-01    0.316E-03
DAV:   2    -0.364188964746E+02    0.82242E-07   -0.14722E-06    56   0.110E-02    0.184E-03
DAV:   3    -0.364188965200E+02   -0.45399E-07   -0.26661E-07    48   0.404E-03    0.770E-04
DAV:   4    -0.364188965415E+02   -0.21481E-07   -0.80850E-08    48   0.198E-03    0.163E-04
DAV:   5    -0.364188965417E+02   -0.24136E-09   -0.34817E-08    48   0.939E-04    0.868E-05
DAV:   6    -0.364188965465E+02   -0.48097E-08   -0.23821E-08    48   0.498E-04
  95 F= -.36418897E+02 E0= -.36418897E+02  d E =-.457102E-03
damped:  g(F)=  0.000E+00 g(S)=  0.000E+00 dE (1.order)= 0.000E+00
 bond charge predicted
       N       E                     dE             d eps       ncg     rms          rms(c)
DAV:   1    -0.364194669740E+02   -0.57043E-03   -0.30260E-04    96   0.157E-01    0.382E-03
DAV:   2    -0.364194668811E+02    0.92835E-07   -0.22364E-06    64   0.133E-02    0.227E-03
DAV:   3    -0.364194669507E+02   -0.69547E-07   -0.39310E-07    48   0.493E-03    0.845E-04
DAV:   4    -0.364194669754E+02   -0.24746E-07   -0.11029E-07    48   0.231E-03    0.203E-04
DAV:   5    -0.364194669759E+02   -0.53888E-09   -0.43981E-08    48   0.113E-03    0.106E-04
DAV:   6    -0.364194669838E+02   -0.78413E-08   -0.27477E-08    48   0.620E-04
  96 F= -.36419467E+02 E0= -.36419467E+02  d E =-.570437E-03
damped:  g(F)=  0.000E+00 g(S)=  0.000E+00 dE (1.order)= 0.000E+00
 bond charge predicted
       N       E                     dE             d eps       ncg     rms          rms(c)
DAV:   1    -0.364201625906E+02   -0.69561E-03   -0.44812E-04    96   0.190E-01    0.457E-03
DAV:   2    -0.364201625072E+02    0.83339E-07   -0.33750E-06    48   0.159E-02    0.278E-03
DAV:   3    -0.364201626093E+02   -0.10202E-06   -0.58353E-07    48   0.609E-03    0.843E-04
DAV:   4    -0.364201626328E+02   -0.23507E-07   -0.15360E-07    48   0.273E-03    0.275E-04
DAV:   5    -0.364201626340E+02   -0.12050E-08   -0.56707E-08    48   0.142E-03    0.136E-04
DAV:   6    -0.364201626457E+02   -0.11756E-07   -0.32527E-08    48   0.797E-04
  97 F= -.36420163E+02 E0= -.36420163E+02  d E =-.695662E-03
damped:  g(F)=  0.000E+00 g(S)=  0.000E+00 dE (1.order)= 0.000E+00
 bond charge predicted
       N       E                     dE             d eps       ncg     rms          rms(c)
DAV:   1    -0.364209914599E+02   -0.82883E-03   -0.63903E-04    96   0.226E-01    0.546E-03
DAV:   2    -0.364209913844E+02    0.75480E-07   -0.49307E-06    48   0.189E-02    0.336E-03
DAV:   3    -0.364209915294E+02   -0.14505E-06   -0.85275E-07    48   0.747E-03    0.930E-04
DAV:   4    -0.364209915600E+02   -0.30598E-07   -0.21578E-07    48   0.330E-03    0.348E-04
DAV:   5    -0.364209915640E+02   -0.39522E-08   -0.73372E-08    48   0.174E-03    0.175E-04
DAV:   6    -0.364209915810E+02   -0.16994E-07   -0.39032E-08    48   0.996E-04
[...]
DAV:   6    -0.364268434620E+02   -0.17735E-10   -0.27476E-08    48   0.750E-04
 110 F= -.36426843E+02 E0= -.36426843E+02  d E =-.254850E-03
damped:  g(F)=  0.000E+00 g(S)=  0.000E+00 dE (1.order)= 0.000E+00
 bond charge predicted
       N       E                     dE             d eps       ncg     rms          rms(c)
DAV:   1    -0.364271823178E+02   -0.33886E-03   -0.14201E-04    80   0.112E-01    0.284E-03
DAV:   2    -0.364271822453E+02    0.72451E-07   -0.11306E-06    48   0.104E-02    0.157E-03
DAV:   3    -0.364271822977E+02   -0.52389E-07   -0.18935E-07    48   0.368E-03    0.709E-04
DAV:   4    -0.364271823242E+02   -0.26526E-07   -0.65782E-08    48   0.187E-03    0.117E-04
DAV:   5    -0.364271823251E+02   -0.87425E-09   -0.31112E-08    48   0.921E-04    0.704E-05
DAV:   6    -0.364271823274E+02   -0.23551E-08   -0.22077E-08    48   0.491E-04
 111 F= -.36427182E+02 E0= -.36427182E+02  d E =-.338865E-03
damped:  g(F)=  0.000E+00 g(S)=  0.000E+00 dE (1.order)= 0.000E+00
 bond charge predicted
       N       E                     dE             d eps       ncg     rms          rms(c)
DAV:   1    -0.364276142472E+02   -0.43192E-03   -0.22310E-04    96   0.140E-01    0.342E-03
DAV:   2    -0.364276141864E+02    0.60732E-07   -0.18238E-06    48   0.127E-02    0.198E-03
DAV:   3    -0.364276142600E+02   -0.73615E-07   -0.28854E-07    48   0.465E-03    0.713E-04
DAV:   4    -0.364276142822E+02   -0.22168E-07   -0.88560E-08    48   0.224E-03    0.186E-04
DAV:   5    -0.364276142841E+02   -0.19340E-08   -0.37283E-08    48   0.114E-03    0.774E-05
DAV:   6    -0.364276142895E+02   -0.53145E-08   -0.24613E-08    48   0.614E-04
 112 F= -.36427614E+02 E0= -.36427614E+02  d E =-.431962E-03
damped:  g(F)=  0.000E+00 g(S)=  0.000E+00 dE (1.order)= 0.000E+00
 bond charge predicted
       N       E                     dE             d eps       ncg     rms          rms(c)
DAV:   1    -0.364281474664E+02   -0.53318E-03   -0.33456E-04    96   0.172E-01    0.419E-03
DAV:   2    -0.364281474044E+02    0.61958E-07   -0.28142E-06    48   0.155E-02    0.247E-03
DAV:   3    -0.364281475039E+02   -0.99459E-07   -0.45427E-07    48   0.592E-03    0.803E-04
DAV:   4    -0.364281475300E+02   -0.26105E-07   -0.12965E-07    48   0.281E-03    0.253E-04
DAV:   5    -0.364281475339E+02   -0.39004E-08   -0.47833E-08    48   0.144E-03    0.106E-04
DAV:   6    -0.364281475433E+02   -0.93877E-08   -0.29130E-08    48   0.795E-04
 113 F= -.36428148E+02 E0= -.36428148E+02  d E =-.533254E-03
damped:  g(F)=  0.000E+00 g(S)=  0.000E+00 dE (1.order)= 0.000E+00
 bond charge predicted
       N       E                     dE             d eps       ncg     rms          rms(c)
DAV:   1    -0.364287760541E+02   -0.62852E-03   -0.45058E-04    96   0.199E-01    0.490E-03
DAV:   2    -0.364287759397E+02    0.11449E-06   -0.35493E-06    64   0.180E-02    0.281E-03
DAV:   3    -0.364287760862E+02   -0.14654E-06   -0.55626E-07    48   0.652E-03    0.114E-03
DAV:   4    -0.364287761470E+02   -0.60832E-07   -0.16102E-07    48   0.321E-03    0.207E-04
DAV:   5    -0.364287761552E+02   -0.82273E-08   -0.58485E-08    48   0.159E-03    0.106E-04
DAV:   6    -0.364287761686E+02   -0.13326E-07   -0.31983E-08    48   0.855E-04
 114 F= -.36428776E+02 E0= -.36428776E+02  d E =-.628625E-03
damped:  g(F)=  0.000E+00 g(S)=  0.000E+00 dE (1.order)= 0.000E+00
 bond charge predicted
       N       E                     dE             d eps       ncg     rms          rms(c)
DAV:   1    -0.364294883993E+02   -0.71224E-03   -0.58571E-04    96   0.227E-01    0.572E-03
DAV:   2    -0.364294882400E+02    0.15928E-06   -0.47321E-06    64   0.209E-02    0.326E-03
DAV:   3    -0.364294884122E+02   -0.17221E-06   -0.75665E-07    48   0.766E-03    0.144E-03
DAV:   4    -0.364294885085E+02   -0.96210E-07   -0.22065E-07    48   0.388E-03    0.241E-04
DAV:   5    -0.364294885174E+02   -0.88991E-08   -0.73215E-08    48   0.186E-03    0.129E-04
DAV:   6    -0.364294885312E+02   -0.13879E-07   -0.36602E-08    48   0.981E-04
 115 F= -.36429489E+02 E0= -.36429489E+02  d E =-.712363E-03
damped:  g(F)=  0.000E+00 g(S)=  0.000E+00 dE (1.order)= 0.000E+00
 bond charge predicted
       N       E                     dE             d eps       ncg     rms          rms(c)
DAV:   1    -0.364302303609E+02   -0.74184E-03   -0.65928E-04    96   0.240E-01    0.589E-03
DAV:   2    -0.364302303804E+02   -0.19520E-07   -0.59821E-06    48   0.222E-02    0.359E-03
DAV:   3    -0.364302305491E+02   -0.16868E-06   -0.10236E-06    48   0.904E-03    0.100E-03
DAV:   4    -0.364302305919E+02   -0.42809E-07   -0.26727E-07    48   0.422E-03    0.396E-04
DAV:   5    -0.364302306008E+02   -0.88504E-08   -0.80333E-08    48   0.211E-03    0.175E-04
DAV:   6    -0.364302306197E+02   -0.18941E-07   -0.45588E-08    48   0.126E-03
 116 F= -.36430231E+02 E0= -.36430231E+02  d E =-.742088E-03
damped:  g(F)=  0.000E+00 g(S)=  0.000E+00 dE (1.order)= 0.000E+00
 bond charge predicted
       N       E                     dE             d eps       ncg     rms          rms(c)
DAV:   1    -0.364309331597E+02   -0.70256E-03   -0.64201E-04    96   0.237E-01    0.593E-03
DAV:   2    -0.364309331017E+02    0.58011E-07   -0.58374E-06    64   0.225E-02    0.351E-03
DAV:   3    -0.364309332727E+02   -0.17104E-06   -0.89981E-07    48   0.842E-03    0.155E-03
DAV:   4    -0.364309333767E+02   -0.10395E-06   -0.25803E-07    48   0.426E-03    0.303E-04
DAV:   5    -0.364309333937E+02   -0.16985E-07   -0.82039E-08    48   0.201E-03    0.145E-04
DAV:   6    -0.364309334170E+02   -0.23323E-07   -0.40228E-08    48   0.105E-03
 117 F= -.36430933E+02 E0= -.36430933E+02  d E =-.702797E-03
damped:  g(F)=  0.000E+00 g(S)=  0.000E+00 dE (1.order)= 0.000E+00
 bond charge predicted
       N       E                     dE             d eps       ncg     rms          rms(c)
DAV:   1    -0.364309213731E+02    0.12021E-04   -0.76336E-07    48   0.832E-03    0.325E-04
DAV:   2    -0.364309213891E+02   -0.15981E-07   -0.54907E-08    48   0.195E-03    0.177E-04
DAV:   3    -0.364309214040E+02   -0.14902E-07   -0.23610E-08    48   0.614E-04    0.110E-04
DAV:   4    -0.364309214381E+02   -0.34109E-07   -0.21647E-08    48   0.407E-04    0.329E-05
DAV:   5    -0.364309214530E+02   -0.14979E-07   -0.19930E-08    48   0.186E-04    0.233E-05
DAV:   6    -0.364309214750E+02   -0.21959E-07   -0.19573E-08    48   0.103E-04
 118 F= -.36430921E+02 E0= -.36430921E+02  d E =0.119420E-04
damped:  g(F)=  0.000E+00 g(S)=  0.000E+00 dE (1.order)= 0.000E+00
 bond charge predicted
       N       E                     dE             d eps       ncg     rms          rms(c)
DAV:   1    -0.364309065441E+02    0.14909E-04   -0.20084E-06    48   0.136E-02    0.533E-04
DAV:   2    -0.364309065509E+02   -0.68020E-08   -0.11032E-07    48   0.314E-03    0.290E-04
DAV:   3    -0.364309065563E+02   -0.54125E-08   -0.28213E-08    48   0.957E-04    0.181E-04
DAV:   4    -0.364309065703E+02   -0.14036E-07   -0.23561E-08    48   0.665E-04    0.536E-05
DAV:   5    -0.364309065758E+02   -0.54996E-08   -0.19375E-08    48   0.291E-04    0.383E-05
DAV:   6    -0.364309065826E+02   -0.68002E-08   -0.18532E-08    48   0.129E-04
 119 F= -.36430907E+02 E0= -.36430907E+02  d E =0.148924E-04
damped:  g(F)=  0.000E+00 g(S)=  0.000E+00 dE (1.order)= 0.000E+00
 bond charge predicted
       N       E                     dE             d eps       ncg     rms          rms(c)
DAV:   1    -0.364309006338E+02    0.59420E-05   -0.21534E-06    48   0.142E-02    0.497E-04
DAV:   2    -0.364309006339E+02   -0.76966E-10   -0.11795E-07    48   0.327E-03    0.285E-04
DAV:   3    -0.364309006333E+02    0.53387E-09   -0.28462E-08    48   0.100E-03    0.183E-04
DAV:   4    -0.364309006354E+02   -0.20497E-08   -0.23031E-08    48   0.668E-04    0.544E-05
DAV:   5    -0.364309006375E+02   -0.21048E-08   -0.19076E-08    48   0.297E-04    0.403E-05
DAV:   6    -0.364309006391E+02   -0.16053E-08   -0.18243E-08    48   0.130E-04
 120 F= -.36430901E+02 E0= -.36430901E+02  d E =0.594355E-05
damped:  g(F)=  0.000E+00 g(S)=  0.000E+00 dE (1.order)= 0.000E+00
 bond charge predicted
       N       E                     dE             d eps       ncg     rms          rms(c)
DAV:   1    -0.364309031229E+02   -0.24854E-05   -0.16700E-06    48   0.125E-02    0.315E-04
DAV:   2    -0.364309031249E+02   -0.19390E-08   -0.91070E-08    48   0.286E-03    0.192E-04
DAV:   3    -0.364309031246E+02    0.28126E-09   -0.26247E-08    48   0.862E-04    0.122E-04
DAV:   4    -0.364309031248E+02   -0.25852E-09   -0.20237E-08    48   0.427E-04    0.399E-05
DAV:   5    -0.364309031255E+02   -0.70645E-09   -0.18636E-08    48   0.205E-04    0.255E-05
DAV:   6    -0.364309031262E+02   -0.60663E-09   -0.18167E-08    48   0.108E-04
 121 F= -.36430903E+02 E0= -.36430903E+02  d E =-.248706E-05
damped:  g(F)=  0.000E+00 g(S)=  0.000E+00 dE (1.order)= 0.000E+00
 bond charge predicted
       N       E                     dE             d eps       ncg     rms          rms(c)
DAV:   1    -0.364309133581E+02   -0.10233E-04   -0.24181E-06    48   0.151E-02    0.382E-04
DAV:   2    -0.364309133668E+02   -0.86416E-08   -0.12645E-07    48   0.349E-03    0.242E-04
DAV:   3    -0.364309133681E+02   -0.13008E-08   -0.30468E-08    48   0.106E-03    0.144E-04
DAV:   4    -0.364309133683E+02   -0.18008E-09   -0.21286E-08    48   0.519E-04    0.388E-05
DAV:   5    -0.364309133682E+02    0.24102E-10   -0.18931E-08    48   0.242E-04    0.264E-05
DAV:   6    -0.364309133681E+02    0.16848E-09   -0.18329E-08    48   0.135E-04
 122 F= -.36430913E+02 E0= -.36430913E+02  d E =-.102419E-04
damped:  g(F)=  0.000E+00 g(S)=  0.000E+00 dE (1.order)= 0.000E+00
 bond charge predicted
       N       E                     dE             d eps       ncg     rms          rms(c)
DAV:   1    -0.364309312711E+02   -0.17903E-04   -0.40001E-06    48   0.195E-02    0.541E-04
DAV:   2    -0.364309312865E+02   -0.15396E-07   -0.20375E-07    48   0.453E-03    0.347E-04
DAV:   3    -0.364309312886E+02   -0.20759E-08   -0.38971E-08    48   0.138E-03    0.226E-04
DAV:   4    -0.364309312896E+02   -0.98726E-09   -0.24633E-08    48   0.753E-04    0.604E-05
DAV:   5    -0.364309312888E+02    0.76375E-09   -0.19823E-08    48   0.346E-04    0.442E-05
DAV:   6    -0.364309312888E+02   -0.38654E-11   -0.18606E-08    48   0.178E-04
 123 F= -.36430931E+02 E0= -.36430931E+02  d E =-.179207E-04
damped:  g(F)=  0.000E+00 g(S)=  0.000E+00 dE (1.order)= 0.000E+00
 bond charge predicted
       N       E                     dE             d eps       ncg     rms          rms(c)
DAV:   1    -0.364309606098E+02   -0.29321E-04   -0.56492E-06    48   0.231E-02    0.593E-04
DAV:   2    -0.364309606315E+02   -0.21687E-07   -0.27114E-07    48   0.530E-03    0.371E-04
DAV:   3    -0.364309606349E+02   -0.33954E-08   -0.47653E-08    48   0.162E-03    0.235E-04
DAV:   4    -0.364309606357E+02   -0.79967E-09   -0.26181E-08    48   0.811E-04    0.650E-05
DAV:   5    -0.364309606356E+02    0.75715E-10   -0.20478E-08    48   0.383E-04    0.437E-05
DAV:   6    -0.364309606353E+02    0.29468E-09   -0.18927E-08    48   0.207E-04
 124 F= -.36430961E+02 E0= -.36430961E+02  d E =-.293465E-04
damped:  g(F)=  0.000E+00 g(S)=  0.000E+00 dE (1.order)= 0.000E+00
 bond charge predicted
       N       E                     dE             d eps       ncg     rms          rms(c)
DAV:   1    -0.364310014825E+02   -0.40847E-04   -0.72790E-06    48   0.259E-02    0.631E-04
DAV:   2    -0.364310015057E+02   -0.23204E-07   -0.32572E-07    48   0.584E-03    0.377E-04
DAV:   3    -0.364310015098E+02   -0.41166E-08   -0.54761E-08    48   0.177E-03    0.183E-04
DAV:   4    -0.364310015107E+02   -0.82537E-09   -0.27425E-08    48   0.815E-04    0.495E-05
DAV:   5    -0.364310015107E+02   -0.72077E-10   -0.21069E-08    48   0.398E-04    0.337E-05
DAV:   6    -0.364310015108E+02   -0.71623E-10   -0.19216E-08    48   0.227E-04
 125 F= -.36431002E+02 E0= -.36431002E+02  d E =-.408755E-04
damped:  g(F)=  0.000E+00 g(S)=  0.000E+00 dE (1.order)= 0.000E+00
 bond charge predicted
       N       E                     dE             d eps       ncg     rms          rms(c)
DAV:   1    -0.364310551600E+02   -0.53649E-04   -0.11797E-05    48   0.331E-02    0.860E-04
DAV:   2    -0.364310551914E+02   -0.31425E-07   -0.53046E-07    48   0.746E-03    0.539E-04
DAV:   3    -0.364310551945E+02   -0.31171E-08   -0.77762E-08    48   0.226E-03    0.314E-04
DAV:   4    -0.364310551951E+02   -0.56502E-09   -0.35129E-08    48   0.114E-03    0.955E-05
DAV:   5    -0.364310551960E+02   -0.92268E-09   -0.23161E-08    48   0.544E-04    0.683E-05
DAV:   6    -0.364310551961E+02   -0.92541E-10   -0.19734E-08    48   0.296E-04
 126 F= -.36431055E+02 E0= -.36431055E+02  d E =-.536853E-04
damped:  g(F)=  0.000E+00 g(S)=  0.000E+00 dE (1.order)= 0.000E+00
 bond charge predicted
       N       E                     dE             d eps       ncg     rms          rms(c)
DAV:   1    -0.364311225477E+02   -0.67352E-04   -0.14390E-05    48   0.363E-02    0.872E-04
DAV:   2    -0.364311225961E+02   -0.48445E-07   -0.61262E-07    48   0.816E-03    0.528E-04
DAV:   3    -0.364311226066E+02   -0.10488E-07   -0.89505E-08    48   0.247E-03    0.241E-04
DAV:   4    -0.364311226085E+02   -0.18647E-08   -0.36364E-08    48   0.113E-03    0.633E-05
DAV:   5    -0.364311226086E+02   -0.10868E-09   -0.23950E-08    48   0.555E-04    0.446E-05
DAV:   6    -0.364311226083E+02    0.32833E-09   -0.20265E-08    48   0.321E-04
 127 F= -.36431123E+02 E0= -.36431123E+02  d E =-.674121E-04
damped:  g(F)=  0.000E+00 g(S)=  0.000E+00 dE (1.order)= 0.000E+00
 bond charge predicted
       N       E                     dE             d eps       ncg     rms          rms(c)
DAV:   1    -0.364312001382E+02   -0.77530E-04   -0.19820E-05    48   0.426E-02    0.105E-03
DAV:   2    -0.364312002136E+02   -0.75429E-07   -0.87149E-07    48   0.963E-03    0.656E-04
DAV:   3    -0.364312002282E+02   -0.14569E-07   -0.11804E-07    48   0.295E-03    0.415E-04
DAV:   4    -0.364312002334E+02   -0.52493E-08   -0.44358E-08    48   0.143E-03    0.129E-04
DAV:   5    -0.364312002329E+02    0.50409E-09   -0.26175E-08    48   0.691E-04    0.773E-05
DAV:   6    -0.364312002325E+02    0.47021E-09   -0.20837E-08    48   0.363E-04
 128 F= -.36431200E+02 E0= -.36431200E+02  d E =-.776242E-04
damped:  g(F)=  0.000E+00 g(S)=  0.000E+00 dE (1.order)= 0.000E+00
 bond charge predicted
       N       E                     dE             d eps       ncg     rms          rms(c)
DAV:   1    -0.364312011303E+02   -0.89737E-06   -0.38499E-08    48   0.134E-03    0.572E-05
DAV:   2    -0.364312011305E+02   -0.19077E-09   -0.19807E-08    48   0.340E-04    0.333E-05
DAV:   3    -0.364312011310E+02   -0.44815E-09   -0.18704E-08    48   0.119E-04    0.192E-05
DAV:   4    -0.364312011317E+02   -0.70486E-09   -0.18548E-08    48   0.861E-05    0.662E-06
DAV:   5    -0.364312011322E+02   -0.49874E-09   -0.18458E-08    48   0.428E-05    0.502E-06
DAV:   6    -0.364312011326E+02   -0.41405E-09   -0.18415E-08    48   0.236E-05
 129 F= -.36431201E+02 E0= -.36431201E+02  d E =-.900096E-06
damped:  g(F)=  0.000E+00 g(S)=  0.000E+00 dE (1.order)= 0.000E+00
 bond charge predicted
       N       E                     dE             d eps       ncg     rms          rms(c)
DAV:   1    -0.364312036364E+02   -0.25042E-05   -0.80620E-08    48   0.240E-03    0.104E-04
DAV:   2    -0.364312036360E+02    0.37767E-09   -0.21297E-08    48   0.568E-04    0.580E-05
DAV:   3    -0.364312036359E+02    0.13551E-09   -0.18544E-08    48   0.177E-04    0.313E-05
DAV:   4    -0.364312036360E+02   -0.10118E-09   -0.18365E-08    48   0.125E-04    0.110E-05
DAV:   5    -0.364312036360E+02   -0.63892E-10   -0.18202E-08    48   0.563E-05    0.778E-06
DAV:   6    -0.364312036363E+02   -0.29536E-09   -0.18146E-08    48   0.290E-05
 130 F= -.36431204E+02 E0= -.36431204E+02  d E =-.250376E-05
damped:  g(F)=  0.000E+00 g(S)=  0.000E+00 dE (1.order)= 0.000E+00
 bond charge predicted
       N       E                     dE             d eps       ncg     rms          rms(c)
DAV:   1    -0.364312088185E+02   -0.51825E-05   -0.12794E-07    48   0.323E-03    0.112E-04
DAV:   2    -0.364312088183E+02    0.20623E-09   -0.23378E-08    48   0.751E-04    0.682E-05
DAV:   3    -0.364312088178E+02    0.56593E-09   -0.18607E-08    48   0.234E-04    0.374E-05
DAV:   4    -0.364312088177E+02    0.72077E-10   -0.18290E-08    48   0.153E-04    0.135E-05
DAV:   5    -0.364312088179E+02   -0.23829E-09   -0.18051E-08    48   0.705E-05    0.947E-06
DAV:   6    -0.364312088180E+02   -0.33197E-10   -0.18007E-08    48   0.372E-05
 131 F= -.36431209E+02 E0= -.36431209E+02  d E =-.518163E-05
damped:  g(F)=  0.000E+00 g(S)=  0.000E+00 dE (1.order)= 0.000E+00
 bond charge predicted
       N       E                     dE             d eps       ncg     rms          rms(c)
DAV:   1    -0.364312181776E+02   -0.93597E-05   -0.22303E-07    48   0.440E-03    0.113E-04
DAV:   2    -0.364312181780E+02   -0.42473E-09   -0.27340E-08    48   0.101E-03    0.731E-05
DAV:   3    -0.364312181781E+02   -0.11073E-09   -0.18976E-08    48   0.312E-04    0.340E-05
DAV:   4    -0.364312181779E+02    0.27649E-09   -0.18248E-08    48   0.160E-04    0.127E-05
DAV:   5    -0.364312181781E+02   -0.24329E-09   -0.17966E-08    48   0.766E-05    0.887E-06
DAV:   6    -0.364312181780E+02    0.88676E-10   -0.17914E-08    48   0.433E-05
 132 F= -.36431218E+02 E0= -.36431218E+02  d E =-.936006E-05
damped:  g(F)=  0.000E+00 g(S)=  0.000E+00 dE (1.order)= 0.000E+00
 bond charge predicted
       N       E                     dE             d eps       ncg     rms          rms(c)
DAV:   1    -0.364312337508E+02   -0.15573E-04   -0.50744E-07    48   0.672E-03    0.153E-04
DAV:   2    -0.364312337528E+02   -0.19988E-08   -0.39420E-08    48   0.153E-03    0.947E-05
DAV:   3    -0.364312337533E+02   -0.45770E-09   -0.20527E-08    48   0.471E-04    0.427E-05
DAV:   4    -0.364312337531E+02    0.19509E-09   -0.18538E-08    48   0.222E-04    0.122E-05
DAV:   5    -0.364312337531E+02   -0.53660E-10   -0.18049E-08    48   0.109E-04    0.914E-06
DAV:   6    -0.364312337531E+02    0.63437E-10   -0.17923E-08    48   0.643E-05
 133 F= -.36431234E+02 E0= -.36431234E+02  d E =-.155750E-04
damped:  g(F)=  0.000E+00 g(S)=  0.000E+00 dE (1.order)= 0.000E+00
 bond charge predicted
       N       E                     dE             d eps       ncg     rms          rms(c)
DAV:   1    -0.364312583202E+02   -0.24567E-04   -0.12355E-06    48   0.105E-02    0.240E-04
DAV:   2    -0.364312583252E+02   -0.49340E-08   -0.70830E-08    48   0.238E-03    0.143E-04
DAV:   3    -0.364312583267E+02   -0.15684E-08   -0.24538E-08    48   0.741E-04    0.752E-05
DAV:   4    -0.364312583267E+02    0.23874E-10   -0.19504E-08    48   0.346E-04    0.173E-05
DAV:   5    -0.364312583266E+02    0.12619E-09   -0.18308E-08    48   0.170E-04    0.123E-05
DAV:   6    -0.364312583265E+02    0.58890E-10   -0.18020E-08    48   0.967E-05
 134 F= -.36431258E+02 E0= -.36431258E+02  d E =-.245735E-04
damped:  g(F)=  0.000E+00 g(S)=  0.000E+00 dE (1.order)= 0.000E+00
 bond charge predicted
       N       E                     dE             d eps       ncg     rms          rms(c)
DAV:   1    -0.364313006488E+02   -0.42322E-04   -0.36918E-06    48   0.183E-02    0.417E-04
DAV:   2    -0.364313006624E+02   -0.13601E-07   -0.17753E-07    48   0.413E-03    0.246E-04
DAV:   3    -0.364313006662E+02   -0.38169E-08   -0.38218E-08    48   0.128E-03    0.134E-04
DAV:   4    -0.364313006667E+02   -0.47248E-09   -0.22854E-08    48   0.597E-04    0.315E-05
DAV:   5    -0.364313006668E+02   -0.13370E-09   -0.19305E-08    48   0.294E-04    0.207E-05
DAV:   6    -0.364313006664E+02    0.43497E-09   -0.18348E-08    48   0.165E-04
 135 F= -.36431301E+02 E0= -.36431301E+02  d E =-.423398E-04
damped:  g(F)=  0.000E+00 g(S)=  0.000E+00 dE (1.order)= 0.000E+00
 reached required accuracy - stopping structural energy minimisation
