unknown system                          
           1
    30.000000    0.000000    0.000000
     0.000000   30.000000    0.000000
     0.000000    0.000000   30.000000
   H    C    N 
   3   2   1
Direct configuration=     1
   0.47454993  0.46122771  0.49706926
   0.46523357  0.51656014  0.47409908
   0.47875146  0.50956690  0.53178334
   0.48408014  0.49639772  0.49791053
   0.53173596  0.50214247  0.49226859
   0.56565899  0.51412402  0.50686916
Direct configuration=     2
   0.47455003  0.46122744  0.49706750
   0.46523037  0.51655847  0.47409747
   0.47874191  0.50956616  0.53178297
   0.48407978  0.49639907  0.49791123
   0.53173624  0.50215050  0.49228042
   0.56567172  0.51411731  0.50686038
Direct configuration=     3
   0.47455150  0.46122797  0.49706510
   0.46522697  0.51655596  0.47409567
   0.47872730  0.50956530  0.53178320
   0.48407949  0.49640141  0.49791249
   0.53173529  0.50216050  0.49229504
   0.56568951  0.51410782  0.50684845
Direct configuration=     4
   0.47455561  0.46123005  0.49706233
   0.46522466  0.51655284  0.47409417
   0.47870756  0.50956453  0.53178468
   0.48407916  0.49640509  0.49791504
   0.53173441  0.50217116  0.49231009
   0.56570864  0.51409528  0.50683366
Direct configuration=     5
   0.47456303  0.46123367  0.49705950
   0.46522431  0.51654976  0.47409293
   0.47868443  0.50956406  0.53178742
   0.48407796  0.49641026  0.49791950
   0.53173315  0.50218052  0.49232300
   0.56572718  0.51408069  0.50681760
Direct configuration=     6
   0.47457339  0.46123781  0.49705700
   0.46522596  0.51654784  0.47409139
   0.47866113  0.50956429  0.53179132
   0.48407663  0.49641673  0.49792633
   0.53173025  0.50218673  0.49233134
   0.56574270  0.51406555  0.50680257
Direct configuration=     7
   0.47457360  0.46123777  0.49705707
   0.46522611  0.51654802  0.47409133
   0.47866131  0.50956443  0.53179152
   0.48407657  0.49641678  0.49792634
   0.53173043  0.50218655  0.49233112
   0.56574204  0.51406540  0.50680259
Direct configuration=     8
   0.47457397  0.46123764  0.49705714
   0.46522632  0.51654836  0.47409112
   0.47866165  0.50956468  0.53179184
   0.48407639  0.49641684  0.49792630
   0.53173040  0.50218631  0.49233106
   0.56574132  0.51406512  0.50680251
Direct configuration=     9
   0.47457398  0.46123761  0.49705711
   0.46522631  0.51654838  0.47409107
   0.47866168  0.50956469  0.53179183
   0.48407635  0.49641684  0.49792627
   0.53173025  0.50218634  0.49233122
   0.56574148  0.51406509  0.50680245
Direct configuration=    10
   0.47457398  0.46123752  0.49705704
   0.46522624  0.51654840  0.47409093
   0.47866176  0.50956470  0.53179178
   0.48407624  0.49641680  0.49792616
   0.53172988  0.50218649  0.49233177
   0.56574196  0.51406503  0.50680228
Direct configuration=    11
   0.47457393  0.46123734  0.49705688
   0.46522608  0.51654842  0.47409068
   0.47866197  0.50956469  0.53179162
   0.48407602  0.49641671  0.49792591
   0.53172922  0.50218685  0.49233286
   0.56574283  0.51406494  0.50680201
Direct configuration=    12
   0.47457380  0.46123704  0.49705661
   0.46522576  0.51654841  0.47409027
   0.47866247  0.50956464  0.53179124
   0.48407564  0.49641651  0.49792543
   0.53172821  0.50218754  0.49233475
   0.56574418  0.51406481  0.50680165
Direct configuration=    13
   0.47457353  0.46123653  0.49705617
   0.46522517  0.51654837  0.47408963
   0.47866341  0.50956452  0.53179052
   0.48407502  0.49641615  0.49792460
   0.53172679  0.50218876  0.49233785
   0.56574613  0.51406462  0.50680119
Direct configuration=    14
   0.47457302  0.46123573  0.49705548
   0.46522419  0.51654826  0.47408866
   0.47866495  0.50956429  0.53178929
   0.48407405  0.49641557  0.49792331
   0.53172493  0.50219074  0.49234264
   0.56574892  0.51406437  0.50680059
Direct configuration=    15
   0.47457203  0.46123439  0.49705428
   0.46522242  0.51654798  0.47408705
   0.47866744  0.50956383  0.53178711
   0.48407241  0.49641460  0.49792123
   0.53172228  0.50219413  0.49235056
   0.56575349  0.51406403  0.50679973
Direct configuration=    16
   0.47457023  0.46123223  0.49705225
   0.46521937  0.51654736  0.47408446
   0.47867095  0.50956296  0.53178358
   0.48406976  0.49641308  0.49791804
   0.53171878  0.50219975  0.49236331
   0.56576096  0.51406356  0.50679832
Direct configuration=    17
   0.47456741  0.46122908  0.49704915
   0.46521472  0.51654629  0.47408062
   0.47867554  0.50956158  0.53177840
   0.48406590  0.49641092  0.49791353
   0.53171472  0.50220829  0.49238227
   0.56577177  0.51406279  0.50679599
Direct configuration=    18
   0.47456335  0.46122473  0.49704468
   0.46520811  0.51654462  0.47407525
   0.47868101  0.50955954  0.53177133
   0.48406068  0.49640805  0.49790753
   0.53171057  0.50222058  0.49240898
   0.56578633  0.51406144  0.50679218
Direct configuration=    19
   0.47455786  0.46121903  0.49703848
   0.46519921  0.51654211  0.47406801
   0.47868682  0.50955668  0.53176222
   0.48405415  0.49640449  0.49789994
   0.53170673  0.50223739  0.49244505
   0.56580528  0.51405924  0.50678627
Direct configuration=    20
   0.47455083  0.46121192  0.49703012
   0.46518777  0.51653846  0.47405859
   0.47869180  0.50955284  0.53175111
   0.48404670  0.49640036  0.49789062
   0.53170313  0.50225932  0.49249184
   0.56582982  0.51405605  0.50677768
Direct configuration=    21
   0.47454235  0.46120352  0.49701905
   0.46517375  0.51653319  0.47404672
   0.47869379  0.50954775  0.53173834
   0.48403923  0.49639596  0.49787988
   0.53169887  0.50228657  0.49254993
   0.56586206  0.51405196  0.50676605
Direct configuration=    22
   0.47453288  0.46119440  0.49700467
   0.46515759  0.51652562  0.47403231
   0.47868915  0.50954114  0.53172476
   0.48403311  0.49639195  0.49786850
   0.53169289  0.50231869  0.49261881
   0.56590443  0.51404715  0.50675091
Direct configuration=    23
   0.47452356  0.46118586  0.49698642
   0.46514062  0.51651484  0.47401570
   0.47867246  0.50953268  0.53171178
   0.48402933  0.49638915  0.49785821
   0.53168684  0.50235528  0.49269717
   0.56595724  0.51404113  0.50673068
Direct configuration=    24
   0.47451629  0.46117994  0.49696412
   0.46512532  0.51650002  0.47399785
   0.47863764  0.50952214  0.53170125
   0.48402796  0.49638849  0.49785149
   0.53168552  0.50239570  0.49278245
   0.56601733  0.51403265  0.50670280
Direct configuration=    25
   0.47451399  0.46117881  0.49693821
   0.46511520  0.51648092  0.47398019
   0.47858025  0.50950958  0.53169508
   0.48402878  0.49639088  0.49785085
   0.53169038  0.50243703  0.49286795
   0.56608146  0.51402173  0.50666768
Direct configuration=    26
   0.47452018  0.46118407  0.49691023
   0.46511446  0.51645856  0.47396452
   0.47849912  0.50949564  0.53169516
   0.48403237  0.49639717  0.49785842
   0.53169563  0.50247283  0.49294159
   0.56614830  0.51401068  0.50663004
Direct configuration=    27
   0.47452167  0.46118490  0.49691027
   0.46511613  0.51645845  0.47396496
   0.47849642  0.50949560  0.53169616
   0.48403270  0.49639771  0.49785961
   0.53169590  0.50247163  0.49293888
   0.56614724  0.51401065  0.50663008
Direct configuration=    28
   0.47452460  0.46118652  0.49691035
   0.46511942  0.51645825  0.47396581
   0.47849112  0.50949554  0.53169813
   0.48403334  0.49639877  0.49786196
   0.53169643  0.50246927  0.49293359
   0.56614515  0.51401060  0.50663012
Direct configuration=    29
   0.47452889  0.46118885  0.49691047
   0.46512425  0.51645798  0.47396704
   0.47848335  0.50949544  0.53170102
   0.48403428  0.49640030  0.49786539
   0.53169721  0.50246585  0.49292589
   0.56614207  0.51401052  0.50663015
Direct configuration=    30
   0.47453445  0.46119179  0.49691064
   0.46513049  0.51645770  0.47396859
   0.47847332  0.50949532  0.53170477
   0.48403553  0.49640227  0.49786979
   0.53169822  0.50246149  0.49291605
   0.56613804  0.51401038  0.50663012
Direct configuration=    31
   0.47454114  0.46119519  0.49691087
   0.46513798  0.51645745  0.47397038
   0.47846131  0.50949520  0.53170931
   0.48403705  0.49640460  0.49787503
   0.53169941  0.50245631  0.49290440
   0.56613317  0.51401019  0.50662997
Direct configuration=    32
   0.47454880  0.46119888  0.49691118
   0.46514654  0.51645734  0.47397230
   0.47844761  0.50949508  0.53171453
   0.48403884  0.49640720  0.49788095
   0.53170067  0.50245052  0.49289136
   0.56612760  0.51400994  0.50662963
Direct configuration=    33
   0.47455820  0.46120302  0.49691161
   0.46515699  0.51645749  0.47397444
   0.47843090  0.50949496  0.53172097
   0.48404106  0.49641029  0.49788806
   0.53170192  0.50244360  0.49287601
   0.56612099  0.51400960  0.50662888
Direct configuration=    34
   0.47456945  0.46120721  0.49691221
   0.46516942  0.51645821  0.47397655
   0.47841108  0.50949484  0.53172864
   0.48404359  0.49641376  0.49789638
   0.53170270  0.50243580  0.49285905
   0.56611383  0.51400913  0.50662713
Direct configuration=    35
   0.47458197  0.46121021  0.49691295
   0.46518315  0.51646006  0.47397786
   0.47838917  0.50949462  0.53173698
   0.48404560  0.49641724  0.49790556
   0.53170253  0.50242855  0.49284393
   0.56610764  0.51400826  0.50662269
Direct configuration=    36
   0.47458191  0.46121008  0.49691295
   0.46518309  0.51646012  0.47397778
   0.47838924  0.50949461  0.53173692
   0.48404551  0.49641719  0.49790549
   0.53170246  0.50242872  0.49284436
   0.56610786  0.51400823  0.50662246
Direct configuration=    37
   0.47458173  0.46120979  0.49691291
   0.46518290  0.51646021  0.47397759
   0.47838935  0.50949456  0.53173678
   0.48404528  0.49641707  0.49790534
   0.53170223  0.50242917  0.49284546
   0.56610856  0.51400816  0.50662187
Direct configuration=    38
   0.47458139  0.46120935  0.49691280
   0.46518254  0.51646029  0.47397728
   0.47838943  0.50949445  0.53173653
   0.48404490  0.49641686  0.49790510
   0.53170178  0.50242997  0.49284747
   0.56611002  0.51400803  0.50662078
Direct configuration=    39
   0.47458082  0.46120875  0.49691257
   0.46518194  0.51646030  0.47397681
   0.47838936  0.50949426  0.53173616
   0.48404434  0.49641658  0.49790477
   0.53170107  0.50243125  0.49285067
   0.56611252  0.51400782  0.50661899
Direct configuration=    40
   0.47458002  0.46120799  0.49691220
   0.46518111  0.51646024  0.47397617
   0.47838906  0.50949396  0.53173566
   0.48404359  0.49641621  0.49790434
   0.53170013  0.50243305  0.49285520
   0.56611615  0.51400750  0.50661639
Direct configuration=    41
   0.47457899  0.46120710  0.49691168
   0.46518005  0.51646008  0.47397537
   0.47838850  0.50949356  0.53173505
   0.48404264  0.49641577  0.49790386
   0.53169907  0.50243541  0.49286105
   0.56612080  0.51400703  0.50661296
Direct configuration=    42
   0.47457761  0.46120596  0.49691093
   0.46517863  0.51645980  0.47397430
   0.47838753  0.50949300  0.53173425
   0.48404138  0.49641522  0.49790327
   0.53169790  0.50243868  0.49286909
   0.56612701  0.51400629  0.50660814
Direct configuration=    43
   0.47457581  0.46120454  0.49690988
   0.46517679  0.51645934  0.47397290
   0.47838595  0.50949223  0.53173325
   0.48403976  0.49641455  0.49790260
   0.53169674  0.50244311  0.49287980
   0.56613501  0.51400518  0.50660152
Direct configuration=    44
   0.47457356  0.46120283  0.49690848
   0.46517449  0.51645865  0.47397113
   0.47838350  0.50949120  0.53173204
   0.48403777  0.49641377  0.49790192
   0.53169570  0.50244893  0.49289372
   0.56614505  0.51400357  0.50659267
Direct configuration=    45
   0.47457084  0.46120083  0.49690662
   0.46517172  0.51645765  0.47396893
   0.47837975  0.50948983  0.53173065
   0.48403544  0.49641293  0.49790133
   0.53169481  0.50245637  0.49291130
   0.56615751  0.51400134  0.50658114
Direct configuration=    46
   0.47456771  0.46119861  0.49690420
   0.46516854  0.51645620  0.47396627
   0.47837412  0.50948804  0.53172917
   0.48403292  0.49641212  0.49790102
   0.53169374  0.50246553  0.49293280
   0.56617302  0.51399845  0.50656650
Direct configuration=    47
   0.47456438  0.46119631  0.49690110
   0.46516514  0.51645416  0.47396319
   0.47836573  0.50948574  0.53172780
   0.48403051  0.49641152  0.49790129
   0.53169191  0.50247633  0.49295815
   0.56619239  0.51399489  0.50654843
Direct configuration=    48
   0.47456123  0.46119423  0.49689721
   0.46516191  0.51645132  0.47395979
   0.47835335  0.50948285  0.53172692
   0.48402850  0.49641135  0.49790256
   0.53168905  0.50248864  0.49298699
   0.56621602  0.51399056  0.50652650
Direct configuration=    49
   0.47455894  0.46119288  0.49689241
   0.46515950  0.51644740  0.47395630
   0.47833534  0.50947929  0.53172712
   0.48402704  0.49641192  0.49790541
   0.53168614  0.50250247  0.49301872
   0.56624310  0.51398498  0.50650000
Direct configuration=    50
   0.47455858  0.46119289  0.49688668
   0.46515887  0.51644223  0.47395308
   0.47831016  0.50947508  0.53172916
   0.48402599  0.49641353  0.49791058
   0.53168464  0.50251759  0.49305190
   0.56627182  0.51397762  0.50646857
Direct configuration=    51
   0.47456154  0.46119488  0.49688021
   0.46516122  0.51643592  0.47395059
   0.47827672  0.50947036  0.53173394
   0.48402564  0.49641659  0.49791865
   0.53168338  0.50253232  0.49308290
   0.56630156  0.51396887  0.50643367
Direct configuration=    52
   0.47456893  0.46119892  0.49687346
   0.46516720  0.51642913  0.47394907
   0.47823562  0.50946549  0.53174195
   0.48402629  0.49642120  0.49793016
   0.53168073  0.50254470  0.49310747
   0.56633129  0.51395951  0.50639785
Direct configuration=    53
   0.47456945  0.46119905  0.49687349
   0.46516758  0.51642919  0.47394917
   0.47823506  0.50946551  0.53174227
   0.48402630  0.49642135  0.49793049
   0.53168095  0.50254447  0.49310668
   0.56633072  0.51395937  0.50639786
Direct configuration=    54
   0.47457045  0.46119929  0.49687349
   0.46516826  0.51642925  0.47394932
   0.47823382  0.50946550  0.53174289
   0.48402626  0.49642165  0.49793113
   0.53168121  0.50254416  0.49310546
   0.56633005  0.51395909  0.50639769
Direct configuration=    55
   0.47457184  0.46119958  0.49687337
   0.46516910  0.51642927  0.47394944
   0.47823179  0.50946542  0.53174373
   0.48402613  0.49642206  0.49793201
   0.53168126  0.50254398  0.49310433
   0.56632993  0.51395864  0.50639708
Direct configuration=    56
   0.47457346  0.46119984  0.49687305
   0.46516990  0.51642918  0.47394946
   0.47822895  0.50946520  0.53174468
   0.48402584  0.49642252  0.49793303
   0.53168092  0.50254422  0.49310400
   0.56633098  0.51395799  0.50639573
Direct configuration=    57
   0.47457513  0.46120001  0.49687247
   0.46517050  0.51642892  0.47394931
   0.47822527  0.50946478  0.53174562
   0.48402532  0.49642302  0.49793408
   0.53168013  0.50254516  0.49310515
   0.56633371  0.51395707  0.50639334
Direct configuration=    58
   0.47457685  0.46120008  0.49687161
   0.46517087  0.51642849  0.47394899
   0.47822078  0.50946416  0.53174656
   0.48402461  0.49642353  0.49793516
   0.53167918  0.50254686  0.49310782
   0.56633776  0.51395582  0.50638983
Direct configuration=    59
   0.47457880  0.46120003  0.49687037
   0.46517102  0.51642783  0.47394843
   0.47821489  0.50946326  0.53174758
   0.48402362  0.49642414  0.49793639
   0.53167833  0.50254974  0.49311266
   0.56634339  0.51395393  0.50638453
Direct configuration=    60
   0.47458101  0.46119983  0.49686866
   0.46517089  0.51642691  0.47394757
   0.47820730  0.50946201  0.53174869
   0.48402238  0.49642488  0.49793785
   0.53167790  0.50255415  0.49312025
   0.56635059  0.51395117  0.50637695
Direct configuration=    61
   0.47458356  0.46119943  0.49686638
   0.46517043  0.51642569  0.47394635
   0.47819764  0.50946033  0.53174991
   0.48402102  0.49642581  0.49793960
   0.53167780  0.50256031  0.49313098
   0.56635961  0.51394737  0.50636673
Direct configuration=    62
   0.47458662  0.46119884  0.49686347
   0.46516964  0.51642414  0.47394475
   0.47818550  0.50945815  0.53175130
   0.48401984  0.49642707  0.49794178
   0.53167715  0.50256814  0.49314488
   0.56637130  0.51394261  0.50635378
Direct configuration=    63
   0.47459045  0.46119815  0.49685988
   0.46516867  0.51642222  0.47394281
   0.47817043  0.50945539  0.53175294
   0.48401921  0.49642880  0.49794456
   0.53167469  0.50257730  0.49316149
   0.56638661  0.51393708  0.50633829
Direct configuration=    64
   0.47459552  0.46119761  0.49685555
   0.46516780  0.51641979  0.47394070
   0.47815174  0.50945196  0.53175504
   0.48401892  0.49643123  0.49794813
   0.53167126  0.50258791  0.49318067
   0.56640482  0.51393044  0.50631988
Direct configuration=    65
   0.47460235  0.46119781  0.49685052
   0.46516761  0.51641680  0.47393873
   0.47812913  0.50944793  0.53175780
   0.48401812  0.49643422  0.49795256
   0.53167056  0.50260019  0.49320221
   0.56642229  0.51392199  0.50629814
Direct configuration=    66
   0.47460256  0.46119792  0.49685052
   0.46516774  0.51641679  0.47393879
   0.47812891  0.50944791  0.53175789
   0.48401813  0.49643426  0.49795264
   0.53167032  0.50260002  0.49320186
   0.56642241  0.51392205  0.50629826
Direct configuration=    67
   0.47460298  0.46119813  0.49685049
   0.46516799  0.51641677  0.47393891
   0.47812844  0.50944787  0.53175806
   0.48401813  0.49643433  0.49795280
   0.53166993  0.50259972  0.49320124
   0.56642259  0.51392212  0.50629845
Direct configuration=    68
   0.47460361  0.46119843  0.49685043
   0.46516835  0.51641672  0.47393908
   0.47812773  0.50944779  0.53175832
   0.48401810  0.49643445  0.49795304
   0.53166954  0.50259941  0.49320043
   0.56642273  0.51392216  0.50629865
Direct configuration=    69
   0.47460442  0.46119877  0.49685033
   0.46516875  0.51641664  0.47393929
   0.47812676  0.50944766  0.53175864
   0.48401804  0.49643459  0.49795335
   0.53166934  0.50259919  0.49319958
   0.56642273  0.51392209  0.50629878
Direct configuration=    70
   0.47460540  0.46119913  0.49685015
   0.46516916  0.51641652  0.47393952
   0.47812557  0.50944746  0.53175901
   0.48401795  0.49643477  0.49795370
   0.53166940  0.50259918  0.49319881
   0.56642257  0.51392188  0.50629877
Direct configuration=    71
   0.47460652  0.46119945  0.49684988
   0.46516952  0.51641636  0.47393975
   0.47812418  0.50944717  0.53175940
   0.48401784  0.49643498  0.49795408
   0.53166967  0.50259944  0.49319820
   0.56642232  0.51392153  0.50629865
Direct configuration=    72
   0.47460792  0.46119972  0.49684943
   0.46516977  0.51641611  0.47393999
   0.47812244  0.50944672  0.53175983
   0.48401774  0.49643525  0.49795450
   0.53167002  0.50260012  0.49319775
   0.56642218  0.51392102  0.50629845
Direct configuration=    73
   0.47460963  0.46119986  0.49684874
   0.46516980  0.51641575  0.47394023
   0.47812031  0.50944602  0.53176029
   0.48401771  0.49643560  0.49795493
   0.53167014  0.50260133  0.49319754
   0.56642247  0.51392039  0.50629823
Direct configuration=    74
   0.47461174  0.46119979  0.49684769
   0.46516944  0.51641522  0.47394043
   0.47811775  0.50944499  0.53176075
   0.48401778  0.49643602  0.49795531
   0.53166980  0.50260327  0.49319773
   0.56642354  0.51391966  0.50629804
Direct configuration=    75
   0.47461435  0.46119944  0.49684612
   0.46516848  0.51641443  0.47394058
   0.47811466  0.50944348  0.53176119
   0.48401791  0.49643652  0.49795556
   0.53166901  0.50260633  0.49319875
   0.56642565  0.51391874  0.50629777
Direct configuration=    76
   0.47461754  0.46119875  0.49684390
   0.46516675  0.51641336  0.47394062
   0.47811092  0.50944140  0.53176158
   0.48401801  0.49643707  0.49795564
   0.53166822  0.50261088  0.49320106
   0.56642862  0.51391749  0.50629716
Direct configuration=    77
   0.47462141  0.46119773  0.49684094
   0.46516412  0.51641194  0.47394051
   0.47810642  0.50943864  0.53176190
   0.48401796  0.49643765  0.49795552
   0.53166792  0.50261724  0.49320520
   0.56643222  0.51391574  0.50629589
Direct configuration=    78
   0.47462614  0.46119643  0.49683709
   0.46516047  0.51641014  0.47394024
   0.47810099  0.50943511  0.53176215
   0.48401773  0.49643824  0.49795516
   0.53166775  0.50262538  0.49321135
   0.56643698  0.51391365  0.50629397
Direct configuration=    79
   0.47463196  0.46119497  0.49683227
   0.46515584  0.51640792  0.47393983
   0.47809445  0.50943073  0.53176233
   0.48401739  0.49643890  0.49795461
   0.53166634  0.50263472  0.49321920
   0.56644408  0.51391170  0.50629172
Direct configuration=    80
   0.47463902  0.46119354  0.49682636
   0.46515043  0.51640522  0.47393926
   0.47808626  0.50942543  0.53176246
   0.48401670  0.49643975  0.49795407
   0.53166493  0.50264527  0.49322950
   0.56645272  0.51390974  0.50628831
Direct configuration=    81
   0.47464722  0.46119231  0.49681948
   0.46514481  0.51640208  0.47393853
   0.47807584  0.50941937  0.53176272
   0.48401565  0.49644096  0.49795391
   0.53166520  0.50265666  0.49324260
   0.56646134  0.51390756  0.50628271
Direct configuration=    82
   0.47465619  0.46119133  0.49681218
   0.46514010  0.51639887  0.47393773
   0.47806334  0.50941305  0.53176347
   0.48401554  0.49644259  0.49795446
   0.53166164  0.50266608  0.49325492
   0.56647324  0.51390702  0.50627720
Direct configuration=    83
   0.47465615  0.46119137  0.49681217
   0.46514033  0.51639888  0.47393769
   0.47806301  0.50941308  0.53176356
   0.48401543  0.49644256  0.49795458
   0.53166279  0.50266626  0.49325539
   0.56647234  0.51390679  0.50627657
Direct configuration=    84
   0.47465604  0.46119143  0.49681212
   0.46514079  0.51639889  0.47393758
   0.47806226  0.50941313  0.53176373
   0.48401529  0.49644252  0.49795481
   0.53166424  0.50266643  0.49325631
   0.56647143  0.51390656  0.50627541
Direct configuration=    85
   0.47465603  0.46119144  0.49681211
   0.46514083  0.51639888  0.47393756
   0.47806215  0.50941313  0.53176374
   0.48401531  0.49644252  0.49795483
   0.53166407  0.50266637  0.49325639
   0.56647166  0.51390661  0.50627534
Direct configuration=    86
   0.47465598  0.46119143  0.49681206
   0.46514090  0.51639886  0.47393750
   0.47806191  0.50941311  0.53176375
   0.48401532  0.49644251  0.49795488
   0.53166375  0.50266632  0.49325665
   0.56647220  0.51390671  0.50627512
Direct configuration=    87
   0.47465588  0.46119142  0.49681196
   0.46514098  0.51639882  0.47393739
   0.47806148  0.50941308  0.53176376
   0.48401531  0.49644250  0.49795494
   0.53166332  0.50266631  0.49325725
   0.56647309  0.51390681  0.50627467
Direct configuration=    88
   0.47465573  0.46119139  0.49681180
   0.46514106  0.51639873  0.47393723
   0.47806086  0.50941302  0.53176376
   0.48401525  0.49644248  0.49795501
   0.53166284  0.50266641  0.49325823
   0.56647431  0.51390691  0.50627394
Direct configuration=    89
   0.47465551  0.46119135  0.49681158
   0.46514113  0.51639862  0.47393700
   0.47806005  0.50941293  0.53176374
   0.48401514  0.49644244  0.49795510
   0.53166242  0.50266664  0.49325966
   0.56647580  0.51390697  0.50627288
Direct configuration=    90
   0.47465523  0.46119127  0.49681129
   0.46514119  0.51639846  0.47393671
   0.47805902  0.50941281  0.53176371
   0.48401496  0.49644239  0.49795520
   0.53166212  0.50266706  0.49326158
   0.56647754  0.51390697  0.50627147
Direct configuration=    91
   0.47465483  0.46119116  0.49681088
   0.46514123  0.51639822  0.47393631
   0.47805761  0.50941262  0.53176365
   0.48401469  0.49644230  0.49795534
   0.53166198  0.50266778  0.49326434
   0.56647971  0.51390687  0.50626944
Direct configuration=    92
   0.47465430  0.46119100  0.49681032
   0.46514126  0.51639789  0.47393577
   0.47805572  0.50941235  0.53176355
   0.48401429  0.49644218  0.49795552
   0.53166209  0.50266888  0.49326814
   0.56648239  0.51390664  0.50626665
Direct configuration=    93
   0.47465362  0.46119079  0.49680957
   0.46514129  0.51639745  0.47393508
   0.47805321  0.50941198  0.53176343
   0.48401379  0.49644204  0.49795579
   0.53166246  0.50267042  0.49327314
   0.56648568  0.51390627  0.50626295
Direct configuration=    94
   0.47465277  0.46119051  0.49680860
   0.46514136  0.51639687  0.47393420
   0.47804992  0.50941148  0.53176329
   0.48401324  0.49644189  0.49795619
   0.53166292  0.50267241  0.49327948
   0.56648985  0.51390577  0.50625821
Direct configuration=    95
   0.47465179  0.46119019  0.49680738
   0.46514152  0.51639614  0.47393311
   0.47804564  0.50941083  0.53176316
   0.48401271  0.49644177  0.49795678
   0.53166310  0.50267481  0.49328717
   0.56649530  0.51390522  0.50625238
Direct configuration=    96
   0.47465072  0.46118983  0.49680585
   0.46514187  0.51639520  0.47393180
   0.47804008  0.50940998  0.53176309
   0.48401235  0.49644171  0.49795766
   0.53166268  0.50267756  0.49329615
   0.56650236  0.51390467  0.50624541
Direct configuration=    97
   0.47464969  0.46118948  0.49680396
   0.46514255  0.51639402  0.47393029
   0.47803289  0.50940886  0.53176316
   0.48401217  0.49644175  0.49795895
   0.53166184  0.50268078  0.49330655
   0.56651092  0.51390405  0.50623705
Direct configuration=    98
   0.47464891  0.46118923  0.49680164
   0.46514377  0.51639253  0.47392863
   0.47802360  0.50940738  0.53176354
   0.48401210  0.49644191  0.49796076
   0.53166144  0.50268481  0.49331847
   0.56652023  0.51390309  0.50622692
Direct configuration=    99
   0.47464883  0.46118918  0.49679882
   0.46514578  0.51639065  0.47392698
   0.47801175  0.50940537  0.53176446
   0.48401207  0.49644219  0.49796325
   0.53166182  0.50268984  0.49333144
   0.56652980  0.51390171  0.50621500
Direct configuration=   100
   0.47465022  0.46118938  0.49679547
   0.46514891  0.51638839  0.47392561
   0.47799710  0.50940259  0.53176626
   0.48401226  0.49644268  0.49796653
   0.53166112  0.50269536  0.49334358
   0.56654044  0.51390054  0.50620251
Direct configuration=   101
   0.47465386  0.46118964  0.49679147
   0.46515302  0.51638588  0.47392475
   0.47797995  0.50939868  0.53176912
   0.48401252  0.49644336  0.49797064
   0.53165970  0.50270170  0.49335378
   0.56655100  0.51389970  0.50619021
Direct configuration=   102
   0.47466007  0.46118942  0.49678671
   0.46515727  0.51638327  0.47392441
   0.47796125  0.50939327  0.53177287
   0.48401244  0.49644413  0.49797527
   0.53166015  0.50271006  0.49336248
   0.56655888  0.51389881  0.50617822
Direct configuration=   103
   0.47466042  0.46118929  0.49678660
   0.46515717  0.51638329  0.47392447
   0.47796127  0.50939305  0.53177295
   0.48401250  0.49644414  0.49797526
   0.53165981  0.50271018  0.49336210
   0.56655890  0.51389900  0.50617858
Direct configuration=   104
   0.47466117  0.46118898  0.49678627
   0.46515685  0.51638328  0.47392459
   0.47796118  0.50939251  0.53177308
   0.48401255  0.49644413  0.49797520
   0.53165919  0.50271070  0.49336170
   0.56655912  0.51389936  0.50617911
Direct configuration=   105
   0.47466231  0.46118846  0.49678560
   0.46515621  0.51638315  0.47392473
   0.47796083  0.50939155  0.53177326
   0.48401252  0.49644407  0.49797508
   0.53165844  0.50271188  0.49336176
   0.56655974  0.51389984  0.50617954
Direct configuration=   106
   0.47466378  0.46118774  0.49678457
   0.46515523  0.51638289  0.47392486
   0.47796014  0.50939017  0.53177345
   0.48401235  0.49644396  0.49797488
   0.53165782  0.50271385  0.49336259
   0.56656074  0.51390033  0.50617962
Direct configuration=   107
   0.47466555  0.46118685  0.49678319
   0.46515394  0.51638249  0.47392498
   0.47795909  0.50938841  0.53177365
   0.48401204  0.49644381  0.49797462
   0.53165750  0.50271659  0.49336423
   0.56656193  0.51390079  0.50617929
Direct configuration=   108
   0.47466762  0.46118581  0.49678149
   0.46515235  0.51638197  0.47392509
   0.47795769  0.50938628  0.53177387
   0.48401161  0.49644362  0.49797432
   0.53165749  0.50272005  0.49336664
   0.56656329  0.51390123  0.50617855
Direct configuration=   109
   0.47467026  0.46118450  0.49677923
   0.46515026  0.51638122  0.47392522
   0.47795570  0.50938351  0.53177414
   0.48401108  0.49644337  0.49797396
   0.53165765  0.50272459  0.49337008
   0.56656510  0.51390176  0.50617734
Direct configuration=   110
   0.47467361  0.46118291  0.49677629
   0.46514762  0.51638020  0.47392539
   0.47795297  0.50937998  0.53177447
   0.48401055  0.49644311  0.49797355
   0.53165748  0.50273017  0.49337450
   0.56656783  0.51390258  0.50617577
Direct configuration=   111
   0.47467786  0.46118106  0.49677259
   0.46514441  0.51637885  0.47392562
   0.47794933  0.50937557  0.53177489
   0.48401021  0.49644286  0.49797313
   0.53165638  0.50273668  0.49337981
   0.56657187  0.51390392  0.50617392
Direct configuration=   112
   0.47468319  0.46117898  0.49676796
   0.46514065  0.51637708  0.47392596
   0.47794448  0.50937017  0.53177544
   0.48401009  0.49644266  0.49797278
   0.53165472  0.50274424  0.49338630
   0.56657694  0.51390581  0.50617153
Direct configuration=   113
   0.47468967  0.46117681  0.49676233
   0.46513650  0.51637480  0.47392642
   0.47793809  0.50936378  0.53177614
   0.48401004  0.49644252  0.49797260
   0.53165393  0.50275306  0.49339453
   0.56658184  0.51390797  0.50616793
Direct configuration=   114
   0.47469754  0.46117472  0.49675563
   0.46513234  0.51637193  0.47392708
   0.47792977  0.50935641  0.53177709
   0.48401011  0.49644244  0.49797276
   0.53165371  0.50276262  0.49340423
   0.56658658  0.51391083  0.50616318
Direct configuration=   115
   0.47470659  0.46117285  0.49674822
   0.46512888  0.51636866  0.47392794
   0.47791986  0.50934851  0.53177839
   0.48401062  0.49644239  0.49797338
   0.53165110  0.50277108  0.49341326
   0.56659300  0.51391547  0.50615877
Direct configuration=   116
   0.47471601  0.46117111  0.49674055
   0.46512676  0.51636521  0.47392880
   0.47790843  0.50934061  0.53178011
   0.48401059  0.49644211  0.49797473
   0.53165137  0.50277931  0.49342266
   0.56659691  0.51392060  0.50615311
Direct configuration=   117
   0.47471594  0.46117109  0.49674062
   0.46512697  0.51636525  0.47392878