   6   6   0   0
  0.4500000E+04  0.3000000E-08  0.3000000E-08  0.3000000E-08  0.0000000E+00
  1.000000000000000E-004
  CAR 
 unknown system                          
      2.02710383    -25.60322835  301     -6.53793938      1.00000000
    -25.603  0.0000E+00  0.0000E+00
    -25.511  0.0000E+00  0.0000E+00
    -25.419  0.0000E+00  0.0000E+00
    -25.327  0.0000E+00  0.0000E+00
    -25.235  0.0000E+00  0.0000E+00
    -25.143  0.0000E+00  0.0000E+00
    -25.051  0.0000E+00  0.0000E+00
    -24.959  0.0000E+00  0.0000E+00
    -24.866  0.0000E+00  0.0000E+00
    -24.774  0.4018E-17  0.3701E-18
    -24.682  0.8478E-15  0.7846E-16
    -24.590  0.1072E-12  0.9955E-14
    -24.498  0.8933E-11  0.8327E-12
    -24.406  0.4904E-09  0.4600E-10
    -24.314  0.1776E-07  0.1682E-08
    -24.222  0.4246E-06  0.4079E-07
    -24.130  0.6708E-05  0.6586E-06
    -24.038  0.7011E-04  0.7115E-05
    -23.945  0.4851E-03  0.5179E-04
    -23.853  0.2225E-02  0.2567E-03
    -23.761  0.6766E-02  0.8799E-03
    -23.669  0.1366E-01  0.2138E-02
    -23.577  0.1830E-01  0.3824E-02
    -23.485  0.1629E-01  0.5324E-02
    -23.393  0.9627E-02  0.6211E-02
    -23.301  0.3777E-02  0.6559E-02
    -23.209  0.9829E-03  0.6649E-02
    -23.116  0.1696E-03  0.6665E-02
    -23.024  0.1938E-04  0.6667E-02
    -22.932  0.1466E-05  0.6667E-02
    -22.840  0.7329E-07  0.6667E-02
    -22.748  0.2420E-08  0.6667E-02
    -22.656  0.5274E-10  0.6667E-02
    -22.564  0.7577E-12  0.6667E-02
    -22.472  0.7168E-14  0.6667E-02
    -22.380  0.4822E-16  0.6667E-02
    -22.288  0.0000E+00  0.6667E-02
    -22.195  0.0000E+00  0.6667E-02
    -22.103  0.0000E+00  0.6667E-02
    -22.011  0.0000E+00  0.6667E-02
    -21.919  0.0000E+00  0.6667E-02
    -21.827  0.0000E+00  0.6667E-02
    -21.735  0.0000E+00  0.6667E-02
    -21.643  0.0000E+00  0.6667E-02
    -21.551  0.0000E+00  0.6667E-02
    -21.459  0.0000E+00  0.6667E-02
    -21.367  0.0000E+00  0.6667E-02
    -21.274  0.0000E+00  0.6667E-02
    -21.182  0.0000E+00  0.6667E-02
    -21.090  0.0000E+00  0.6667E-02
    -20.998  0.0000E+00  0.6667E-02
    -20.906  0.0000E+00  0.6667E-02
    -20.814  0.0000E+00  0.6667E-02
    -20.722  0.0000E+00  0.6667E-02
    -20.630  0.0000E+00  0.6667E-02
    -20.538  0.0000E+00  0.6667E-02
    -20.446  0.0000E+00  0.6667E-02
    -20.353  0.0000E+00  0.6667E-02
    -20.261  0.0000E+00  0.6667E-02
    -20.169  0.0000E+00  0.6667E-02
    -20.077  0.0000E+00  0.6667E-02
    -19.985  0.0000E+00  0.6667E-02
    -19.893  0.0000E+00  0.6667E-02
    -19.801  0.0000E+00  0.6667E-02
    -19.709  0.0000E+00  0.6667E-02
    -19.617  0.0000E+00  0.6667E-02
    -19.525  0.0000E+00  0.6667E-02
    -19.432  0.0000E+00  0.6667E-02
    -19.340  0.0000E+00  0.6667E-02
    -19.248  0.4018E-17  0.6667E-02
    -19.156  0.9523E-15  0.6667E-02
    -19.064  0.1191E-12  0.6667E-02
    -18.972  0.9827E-11  0.6667E-02
    -18.880  0.5344E-09  0.6667E-02
    -18.788  0.1917E-07  0.6667E-02
    -18.696  0.4541E-06  0.6667E-02
    -18.604  0.7107E-05  0.6667E-02
    -18.511  0.7358E-04  0.6674E-02
    -18.419  0.5044E-03  0.6721E-02
    -18.327  0.2292E-02  0.6932E-02
    -18.235  0.6906E-02  0.7568E-02
    -18.143  0.1381E-01  0.8840E-02
    -18.051  0.1834E-01  0.1053E-01
    -17.959  0.1617E-01  0.1202E-01
    -17.867  0.9468E-02  0.1289E-01
    -17.775  0.3680E-02  0.1323E-01
    -17.683  0.9488E-03  0.1332E-01
    -17.590  0.1622E-03  0.1333E-01
    -17.498  0.1836E-04  0.1333E-01
    -17.406  0.1376E-05  0.1333E-01
    -17.314  0.6815E-07  0.1333E-01
    -17.222  0.2229E-08  0.1333E-01
    -17.130  0.4813E-10  0.1333E-01
    -17.038  0.6849E-12  0.1333E-01
    -16.946  0.6421E-14  0.1333E-01
    -16.854  0.4018E-16  0.1333E-01
    -16.762  0.0000E+00  0.1333E-01
    -16.669  0.0000E+00  0.1333E-01
    -16.577  0.0000E+00  0.1333E-01
    -16.485  0.0000E+00  0.1333E-01
    -16.393  0.0000E+00  0.1333E-01
    -16.301  0.0000E+00  0.1333E-01
    -16.209  0.0000E+00  0.1333E-01
    -16.117  0.0000E+00  0.1333E-01
    -16.025  0.0000E+00  0.1333E-01
    -15.933  0.0000E+00  0.1333E-01
    -15.841  0.0000E+00  0.1333E-01
    -15.748  0.0000E+00  0.1333E-01
    -15.656  0.0000E+00  0.1333E-01
    -15.564  0.0000E+00  0.1333E-01
    -15.472  0.0000E+00  0.1333E-01
    -15.380  0.0000E+00  0.1333E-01
    -15.288  0.0000E+00  0.1333E-01
    -15.196  0.0000E+00  0.1333E-01
    -15.104  0.0000E+00  0.1333E-01
    -15.012  0.0000E+00  0.1333E-01
    -14.919  0.0000E+00  0.1333E-01
    -14.827  0.0000E+00  0.1333E-01
    -14.735  0.0000E+00  0.1333E-01
    -14.643  0.0000E+00  0.1333E-01
    -14.551  0.0000E+00  0.1333E-01
    -14.459  0.0000E+00  0.1333E-01
    -14.367  0.0000E+00  0.1333E-01
    -14.275  0.0000E+00  0.1333E-01
    -14.183  0.0000E+00  0.1333E-01
    -14.091  0.0000E+00  0.1333E-01
    -13.998  0.0000E+00  0.1333E-01
    -13.906  0.0000E+00  0.1333E-01
    -13.814  0.0000E+00  0.1333E-01
    -13.722  0.0000E+00  0.1333E-01
    -13.630  0.0000E+00  0.1333E-01
    -13.538  0.0000E+00  0.1333E-01
    -13.446  0.0000E+00  0.1333E-01
    -13.354  0.0000E+00  0.1333E-01
    -13.262  0.2009E-16  0.1333E-01
    -13.170  0.3114E-14  0.1333E-01
    -13.077  0.3535E-12  0.1333E-01
    -12.985  0.2642E-10  0.1333E-01
    -12.893  0.1301E-08  0.1333E-01
    -12.801  0.4228E-07  0.1333E-01
    -12.709  0.9072E-06  0.1333E-01
    -12.617  0.1287E-04  0.1333E-01
    -12.525  0.1208E-03  0.1335E-01
    -12.433  0.7507E-03  0.1341E-01
    -12.341  0.3093E-02  0.1370E-01
    -12.249  0.8453E-02  0.1448E-01
    -12.156  0.1533E-01  0.1589E-01
    -12.064  0.1847E-01  0.1759E-01
    -11.972  0.1479E-01  0.1895E-01
    -11.880  0.8016E-02  0.1969E-01
    -11.788  0.3746E-02  0.2004E-01
    -11.696  0.4414E-02  0.2044E-01
    -11.604  0.9712E-02  0.2134E-01
    -11.512  0.1629E-01  0.2284E-01
    -11.420  0.1832E-01  0.2453E-01
    -11.328  0.1381E-01  0.2580E-01
    -11.235  0.7630E-02  0.2650E-01
    -11.143  0.5622E-02  0.2702E-01
    -11.051  0.9467E-02  0.2789E-01
    -10.959  0.1585E-01  0.2935E-01
    -10.867  0.1843E-01  0.3105E-01
    -10.775  0.1428E-01  0.3236E-01
    -10.683  0.7348E-02  0.3304E-01
    -10.591  0.2510E-02  0.3327E-01
    -10.499  0.5686E-03  0.3332E-01
    -10.407  0.8537E-04  0.3333E-01
    -10.314  0.8488E-05  0.3333E-01
    -10.222  0.5589E-06  0.3333E-01
    -10.130  0.4710E-07  0.3333E-01
    -10.038  0.5300E-06  0.3333E-01
     -9.946  0.8108E-05  0.3333E-01
     -9.854  0.8217E-04  0.3334E-01
     -9.762  0.5513E-03  0.3339E-01
     -9.670  0.2452E-02  0.3362E-01
     -9.578  0.7233E-02  0.3428E-01
     -9.486  0.1416E-01  0.3559E-01
     -9.393  0.1840E-01  0.3728E-01
     -9.301  0.1589E-01  0.3875E-01
     -9.209  0.9105E-02  0.3959E-01
     -9.117  0.3464E-02  0.3990E-01
     -9.025  0.8748E-03  0.3998E-01
     -8.933  0.1547E-03  0.4000E-01
     -8.841  0.1011E-03  0.4001E-01
     -8.749  0.5670E-03  0.4006E-01
     -8.657  0.2501E-02  0.4029E-01
     -8.565  0.7330E-02  0.4097E-01
     -8.472  0.1426E-01  0.4228E-01
     -8.380  0.1842E-01  0.4398E-01
     -8.288  0.1580E-01  0.4543E-01
     -8.196  0.8999E-02  0.4626E-01
     -8.104  0.3403E-02  0.4657E-01
     -8.012  0.8603E-03  0.4665E-01
     -7.920  0.2147E-03  0.4667E-01
     -7.828  0.5159E-03  0.4672E-01
     -7.736  0.2278E-02  0.4693E-01
     -7.644  0.6876E-02  0.4756E-01
     -7.551  0.1378E-01  0.4883E-01
     -7.459  0.1833E-01  0.5052E-01
     -7.367  0.1620E-01  0.5201E-01
     -7.275  0.9502E-02  0.5289E-01
     -7.183  0.3700E-02  0.5323E-01
     -7.091  0.9560E-03  0.5332E-01
     -6.999  0.1637E-03  0.5333E-01
     -6.907  0.1858E-04  0.5333E-01
     -6.815  0.1395E-05  0.5333E-01
     -6.723  0.6922E-07  0.5333E-01
     -6.630  0.2269E-08  0.5333E-01
     -6.538  0.4908E-10  0.5333E-01
     -6.446  0.6999E-12  0.5333E-01
     -6.354  0.6580E-14  0.5333E-01
     -6.262  0.4018E-16  0.5333E-01
     -6.170  0.0000E+00  0.5333E-01
     -6.078  0.0000E+00  0.5333E-01
     -5.986  0.0000E+00  0.5333E-01
     -5.894  0.0000E+00  0.5333E-01
     -5.801  0.0000E+00  0.5333E-01
     -5.709  0.0000E+00  0.5333E-01
     -5.617  0.0000E+00  0.5333E-01
     -5.525  0.0000E+00  0.5333E-01
     -5.433  0.0000E+00  0.5333E-01
     -5.341  0.0000E+00  0.5333E-01
     -5.249  0.0000E+00  0.5333E-01
     -5.157  0.0000E+00  0.5333E-01
     -5.065  0.0000E+00  0.5333E-01
     -4.973  0.0000E+00  0.5333E-01
     -4.880  0.0000E+00  0.5333E-01
     -4.788  0.0000E+00  0.5333E-01
     -4.696  0.0000E+00  0.5333E-01
     -4.604  0.0000E+00  0.5333E-01
     -4.512  0.0000E+00  0.5333E-01
     -4.420  0.8840E-16  0.5333E-01
     -4.328  0.1342E-13  0.5333E-01
     -4.236  0.1344E-11  0.5333E-01
     -4.144  0.8861E-10  0.5333E-01
     -4.052  0.3853E-08  0.5333E-01
     -3.959  0.1106E-06  0.5333E-01
     -3.867  0.2096E-05  0.5333E-01
     -3.775  0.2627E-04  0.5334E-01
     -3.683  0.2179E-03  0.5336E-01
     -3.591  0.1197E-02  0.5347E-01
     -3.499  0.4363E-02  0.5387E-01
     -3.407  0.1055E-01  0.5484E-01
     -3.315  0.1692E-01  0.5640E-01
     -3.223  0.1804E-01  0.5806E-01
     -3.131  0.1276E-01  0.5923E-01
     -3.038  0.5996E-02  0.5979E-01
     -2.946  0.1869E-02  0.5996E-01
     -2.854  0.3865E-03  0.5999E-01
     -2.762  0.5295E-04  0.6000E-01
     -2.670  0.4803E-05  0.6000E-01
     -2.578  0.2882E-06  0.6000E-01
     -2.486  0.1142E-07  0.6000E-01
     -2.394  0.2989E-09  0.6000E-01
     -2.302  0.5159E-11  0.6000E-01
     -2.210  0.5867E-13  0.6000E-01
     -2.117  0.4420E-15  0.6000E-01
     -2.025  0.0000E+00  0.6000E-01
     -1.933  0.0000E+00  0.6000E-01
     -1.841  0.0000E+00  0.6000E-01
     -1.749  0.3215E-16  0.6000E-01
     -1.657  0.5252E-14  0.6000E-01
     -1.565  0.5699E-12  0.6000E-01
     -1.473  0.4074E-10  0.6000E-01
     -1.381  0.1920E-08  0.6000E-01
     -1.289  0.5970E-07  0.6000E-01
     -1.196  0.1226E-05  0.6000E-01
     -1.104  0.1665E-04  0.6000E-01
     -1.012  0.1497E-03  0.6002E-01
     -0.920  0.8938E-03  0.6010E-01
     -0.828  0.3557E-02  0.6043E-01
     -0.736  0.9538E-02  0.6130E-01
     -0.644  0.1771E-01  0.6293E-01
     -0.552  0.2414E-01  0.6516E-01
     -0.460  0.2656E-01  0.6760E-01
     -0.368  0.2525E-01  0.6993E-01
     -0.275  0.2054E-01  0.7182E-01
     -0.183  0.1525E-01  0.7323E-01
     -0.091  0.1439E-01  0.7455E-01
      0.001  0.1766E-01  0.7618E-01
      0.093  0.1852E-01  0.7788E-01
      0.185  0.1358E-01  0.7913E-01
      0.277  0.6675E-02  0.7975E-01
      0.369  0.2180E-02  0.7995E-01
      0.461  0.4725E-03  0.7999E-01
      0.553  0.6786E-04  0.8000E-01
      0.646  0.6453E-05  0.8000E-01
      0.738  0.4059E-06  0.8000E-01
      0.830  0.1687E-07  0.8000E-01
      0.922  0.4630E-09  0.8000E-01
      1.014  0.8382E-11  0.8000E-01
      1.106  0.1000E-12  0.8000E-01
      1.198  0.7896E-15  0.8000E-01
      1.290  0.0000E+00  0.8000E-01
      1.382  0.0000E+00  0.8000E-01
      1.474  0.0000E+00  0.8000E-01
      1.567  0.0000E+00  0.8000E-01
      1.659  0.0000E+00  0.8000E-01
      1.751  0.0000E+00  0.8000E-01
      1.843  0.0000E+00  0.8000E-01
      1.935  0.0000E+00  0.8000E-01
      2.027  0.0000E+00  0.8000E-01
