    6    6  300    1
  0.4500000E+04  0.3000000E-08  0.3000000E-08  0.3000000E-08  0.0000000E+00
  1.000000000000000E-004
  CAR 
 unknown system                          
     16      4     12
 
  0.2500000E+00  0.2500000E+00  0.2500000E+00  0.2500000E+00
    1      -23.603228   1.000000
    2      -18.079250   1.000000
    3      -12.114595   1.000000
    4      -11.485327   1.000000
    5      -10.924379   1.000000
    6       -9.426546   1.000000
    7       -8.414839   1.000000
    8       -7.487177   1.000000
    9       -3.300453   0.000000
   10       -0.611720   0.000000
   11       -0.377726   0.000000
   12        0.027104   0.000000
 
 -0.2500000E+00  0.2500000E+00  0.2500000E+00  0.2500000E+00
    1      -23.603228   1.000000
    2      -18.079248   1.000000
    3      -12.114597   1.000000
    4      -11.485329   1.000000
    5      -10.924374   1.000000
    6       -9.426536   1.000000
    7       -8.414833   1.000000
    8       -7.487172   1.000000
    9       -3.300470   0.000000
   10       -0.611737   0.000000
   11       -0.377728   0.000000
   12        0.024706   0.000000
 
  0.2500000E+00 -0.2500000E+00  0.2500000E+00  0.2500000E+00
    1      -23.603228   1.000000
    2      -18.079248   1.000000
    3      -12.114595   1.000000
    4      -11.485325   1.000000
    5      -10.924377   1.000000
    6       -9.426537   1.000000
    7       -8.414841   1.000000
    8       -7.487170   1.000000
    9       -3.300460   0.000000
   10       -0.611734   0.000000
   11       -0.377726   0.000000
   12        0.025498   0.000000
 
 -0.2500000E+00 -0.2500000E+00  0.2500000E+00  0.2500000E+00
    1      -23.603228   1.000000
    2      -18.079247   1.000000
    3      -12.114595   1.000000
    4      -11.485336   1.000000
    5      -10.924376   1.000000
    6       -9.426534   1.000000
    7       -8.414836   1.000000
    8       -7.487173   1.000000
    9       -3.300463   0.000000
   10       -0.611725   0.000000
   11       -0.377726   0.000000
   12        0.025475   0.000000
