       N       E                     dE             d eps       ncg     rms          rms(c)
DAV:   1     0.109563558699E+03    0.10956E+03   -0.21251E+03   160   0.366E+02
DAV:   2     0.173772010701E+01   -0.10783E+03   -0.10421E+03   192   0.980E+01
DAV:   3    -0.340209142079E+02   -0.35759E+02   -0.35433E+02   128   0.925E+01
DAV:   4    -0.372580649145E+02   -0.32372E+01   -0.31658E+01   104   0.319E+01
DAV:   5    -0.373656706377E+02   -0.10761E+00   -0.10727E+00   160   0.545E+00    0.104E+01
DAV:   6    -0.348997846880E+02    0.24659E+01   -0.42088E+00   128   0.140E+01    0.573E+00
DAV:   7    -0.342944469872E+02    0.60534E+00   -0.16594E+00   128   0.897E+00    0.238E+00
DAV:   8    -0.342092289406E+02    0.85218E-01   -0.18341E-01   128   0.412E+00    0.101E+00
DAV:   9    -0.341889234953E+02    0.20305E-01   -0.37658E-02   128   0.169E+00    0.289E-01
DAV:  10    -0.341870246697E+02    0.18988E-02   -0.63672E-03   128   0.733E-01    0.129E-01
DAV:  11    -0.341872333628E+02   -0.20869E-03   -0.10088E-03   120   0.263E-01    0.861E-02
DAV:  12    -0.341904039381E+02   -0.31706E-02   -0.20010E-03   100   0.311E-01    0.418E-02
DAV:  13    -0.341942732818E+02   -0.38693E-02   -0.11911E-03   156   0.196E-01    0.301E-02
DAV:  14    -0.341981005057E+02   -0.38272E-02   -0.39560E-04   120   0.118E-01    0.178E-02
DAV:  15    -0.342007258242E+02   -0.26253E-02   -0.23971E-04   128   0.755E-02    0.104E-02
DAV:  16    -0.342026957069E+02   -0.19699E-02   -0.18961E-04   128   0.663E-02    0.639E-03
DAV:  17    -0.342037701667E+02   -0.10745E-02   -0.57325E-05    88   0.417E-02    0.323E-03
DAV:  18    -0.342042193679E+02   -0.44920E-03   -0.40415E-05    96   0.291E-02    0.194E-03
DAV:  19    -0.342044187109E+02   -0.19934E-03   -0.16903E-05    76   0.184E-02    0.992E-04
DAV:  20    -0.342045048261E+02   -0.86115E-04   -0.54591E-06    92   0.124E-02
   1 F= -.34204505E+02 E0= -.34204505E+02  d E =-.342045E+02
       N       E                     dE             d eps       ncg     rms          rms(c)
DAV:   1    -0.342045295509E+02   -0.11084E-03   -0.82226E-05    72   0.828E-02    0.232E-03
DAV:   2    -0.342045376324E+02   -0.80815E-05   -0.42213E-06    96   0.203E-02    0.158E-03
DAV:   3    -0.342045452720E+02   -0.76396E-05   -0.46184E-07    88   0.611E-03    0.986E-04
DAV:   4    -0.342045541666E+02   -0.88946E-05   -0.14207E-07    72   0.320E-03    0.366E-04
DAV:   5    -0.342045580017E+02   -0.38351E-05   -0.39930E-08    96   0.151E-03    0.245E-04
DAV:   6    -0.342045644124E+02   -0.64107E-05   -0.15286E-08    64   0.928E-04
   2 F= -.34204564E+02 E0= -.34204564E+02  d E =-.595863E-04
       N       E                     dE             d eps       ncg     rms          rms(c)
DAV:   1    -0.342050436616E+02   -0.48566E-03   -0.29654E-04   120   0.162E-01    0.530E-03
DAV:   2    -0.342050442438E+02   -0.58220E-06   -0.43500E-06    60   0.196E-02    0.282E-03
DAV:   3    -0.342050456532E+02   -0.14094E-05   -0.12352E-06    72   0.983E-03    0.106E-03
DAV:   4    -0.342050464174E+02   -0.76419E-06   -0.24484E-07    52   0.439E-03    0.606E-04
DAV:   5    -0.342050474229E+02   -0.10055E-05   -0.80779E-08    88   0.227E-03    0.196E-04
DAV:   6    -0.342050477421E+02   -0.31920E-06   -0.25199E-08    56   0.123E-03
   3 F= -.34205048E+02 E0= -.34205048E+02  d E =-.483330E-03
       N       E                     dE             d eps       ncg     rms          rms(c)
DAV:   1    -0.342068922679E+02   -0.18448E-02   -0.20184E-03    96   0.430E-01    0.155E-02
DAV:   2    -0.342068878834E+02    0.43845E-05   -0.27437E-05    92   0.469E-02    0.817E-03
DAV:   3    -0.342068900951E+02   -0.22118E-05   -0.81843E-06    72   0.246E-02    0.281E-03
DAV:   4    -0.342068905397E+02   -0.44452E-06   -0.17999E-06    80   0.116E-02    0.156E-03
DAV:   5    -0.342068908346E+02   -0.29490E-06   -0.58248E-07    64   0.602E-03    0.615E-04
DAV:   6    -0.342068909692E+02   -0.13460E-06   -0.16488E-07    48   0.336E-03
   4 F= -.34206891E+02 E0= -.34206891E+02  d E =-.184323E-02
       N       E                     dE             d eps       ncg     rms          rms(c)
DAV:   1    -0.342112702592E+02   -0.43794E-02   -0.93571E-03    96   0.920E-01    0.349E-02
DAV:   2    -0.342112453133E+02    0.24946E-04   -0.11018E-04    64   0.915E-02    0.184E-02
DAV:   3    -0.342112545690E+02   -0.92557E-05   -0.25842E-05    96   0.445E-02    0.629E-03
DAV:   4    -0.342112573458E+02   -0.27768E-05   -0.62909E-06    64   0.212E-02    0.294E-03
DAV:   5    -0.342112578992E+02   -0.55338E-06   -0.20879E-06    88   0.110E-02    0.964E-04
DAV:   6    -0.342112582815E+02   -0.38231E-06   -0.64003E-07    56   0.603E-03
   5 F= -.34211258E+02 E0= -.34211258E+02  d E =-.436731E-02
       N       E                     dE             d eps       ncg     rms          rms(c)
DAV:   1    -0.342196105082E+02   -0.83526E-02   -0.32540E-02    96   0.171E+00    0.665E-02
DAV:   2    -0.342195357376E+02    0.74771E-04   -0.44479E-04   112   0.171E-01    0.359E-02
DAV:   3    -0.342195511913E+02   -0.15454E-04   -0.27902E-05    96   0.542E-02    0.151E-02
DAV:   4    -0.342195643607E+02   -0.13169E-04   -0.90664E-06    68   0.294E-02    0.375E-03
DAV:   5    -0.342195656707E+02   -0.13101E-05   -0.18987E-06    64   0.121E-02    0.185E-03
DAV:   6    -0.342195672026E+02   -0.15319E-05   -0.51113E-07    64   0.644E-03
   6 F= -.34219567E+02 E0= -.34219567E+02  d E =-.830892E-02
       N       E                     dE             d eps       ncg     rms          rms(c)
DAV:   1    -0.342333569800E+02   -0.13791E-01   -0.85069E-02    96   0.276E+00    0.108E-01
DAV:   2    -0.342331812917E+02    0.17569E-03   -0.11501E-03   112   0.276E-01    0.579E-02
DAV:   3    -0.342332145528E+02   -0.33261E-04   -0.70035E-05    96   0.872E-02    0.244E-02
DAV:   4    -0.342332452390E+02   -0.30686E-04   -0.22582E-05    84   0.469E-02    0.611E-03
DAV:   5    -0.342332491114E+02   -0.38723E-05   -0.48785E-06    64   0.193E-02    0.296E-03
DAV:   6    -0.342332531143E+02   -0.40029E-05   -0.13318E-06    80   0.102E-02
   7 F= -.34233253E+02 E0= -.34233253E+02  d E =-.136859E-01
       N       E                     dE             d eps       ncg     rms          rms(c)
DAV:   1    -0.342566048280E+02   -0.23356E-01   -0.22776E-01    96   0.452E+00    0.178E-01
DAV:   2    -0.342561608189E+02    0.44401E-03   -0.30304E-03   112   0.450E-01    0.947E-02
DAV:   3    -0.342562319558E+02   -0.71137E-04   -0.22042E-04   128   0.144E-01    0.423E-02
DAV:   4    -0.342563002531E+02   -0.68297E-04   -0.45488E-05    92   0.716E-02    0.105E-02
DAV:   5    -0.342563112732E+02   -0.11020E-04   -0.10570E-05    64   0.283E-02    0.468E-03
DAV:   6    -0.342563211036E+02   -0.98304E-05   -0.23626E-06    80   0.143E-02
   8 F= -.34256321E+02 E0= -.34256321E+02  d E =-.230680E-01
       N       E                     dE             d eps       ncg     rms          rms(c)
DAV:   1    -0.342934402921E+02   -0.37129E-01   -0.51422E-01    96   0.679E+00    0.275E-01
DAV:   2    -0.342923715088E+02    0.10688E-02   -0.66273E-03   128   0.684E-01    0.145E-01
DAV:   3    -0.342924571793E+02   -0.85670E-04   -0.53121E-04   112   0.223E-01    0.704E-02
DAV:   4    -0.342926151092E+02   -0.15793E-03   -0.13152E-04    96   0.118E-01    0.159E-02
DAV:   5    -0.342926376606E+02   -0.22551E-04   -0.26903E-05    80   0.459E-02    0.744E-03
DAV:   6    -0.342926582252E+02   -0.20565E-04   -0.57454E-06    80   0.233E-02
   9 F= -.34292658E+02 E0= -.34292658E+02  d E =-.363371E-01
       N       E                     dE             d eps       ncg     rms          rms(c)
DAV:   1    -0.343419153613E+02   -0.49278E-01   -0.82355E-01    96   0.857E+00    0.347E-01
DAV:   2    -0.343403475999E+02    0.15678E-02   -0.10052E-02   128   0.850E-01    0.180E-01
DAV:   3    -0.343404977848E+02   -0.15018E-03   -0.78964E-04   112   0.277E-01    0.883E-02
DAV:   4    -0.343407378547E+02   -0.24007E-03   -0.17497E-04    92   0.141E-01    0.205E-02
DAV:   5    -0.343407778314E+02   -0.39977E-04   -0.39294E-05    80   0.539E-02    0.894E-03
DAV:   6    -0.343408099135E+02   -0.32082E-04   -0.82646E-06    80   0.264E-02
  10 F= -.34340810E+02 E0= -.34340810E+02  d E =-.481517E-01
       N       E                     dE             d eps       ncg     rms          rms(c)
DAV:   1    -0.343403324733E+02    0.44536E-03   -0.12529E-03   112   0.329E-01    0.150E-02
DAV:   2    -0.343403447660E+02   -0.12293E-04   -0.21326E-05    96   0.478E-02    0.801E-03
DAV:   3    -0.343403632537E+02   -0.18488E-04   -0.64123E-06    80   0.238E-02    0.350E-03
DAV:   4    -0.343403800771E+02   -0.16823E-04   -0.22980E-06    84   0.127E-02    0.173E-03
DAV:   5    -0.343403957733E+02   -0.15696E-04   -0.80953E-07    96   0.673E-03    0.801E-04
DAV:   6    -0.343404101702E+02   -0.14397E-04   -0.71434E-07    80   0.446E-03
  11 F= -.34340410E+02 E0= -.34340410E+02  d E =0.399743E-03
       N       E                     dE             d eps       ncg     rms          rms(c)
DAV:   1    -0.343393982595E+02    0.99751E-03   -0.22425E-03   120   0.443E-01    0.163E-02
DAV:   2    -0.343393993836E+02   -0.11240E-05   -0.35415E-05    80   0.594E-02    0.870E-03
DAV:   3    -0.343394050472E+02   -0.56636E-05   -0.96205E-06    88   0.292E-02    0.373E-03
DAV:   4    -0.343394088803E+02   -0.38332E-05   -0.21065E-06    72   0.133E-02    0.214E-03
DAV:   5    -0.343394128545E+02   -0.39741E-05   -0.47872E-07    96   0.664E-03    0.699E-04
DAV:   6    -0.343394155169E+02   -0.26625E-05   -0.17796E-07    64   0.326E-03
  12 F= -.34339416E+02 E0= -.34339416E+02  d E =0.994653E-03
       N       E                     dE             d eps       ncg     rms          rms(c)
DAV:   1    -0.343381226596E+02    0.12902E-02   -0.26964E-03    96   0.478E-01    0.156E-02
DAV:   2    -0.343381205780E+02    0.20817E-05   -0.36511E-05    96   0.544E-02    0.842E-03
DAV:   3    -0.343381226748E+02   -0.20968E-05   -0.73553E-06    80   0.257E-02    0.349E-03
DAV:   4    -0.343381240708E+02   -0.13960E-05   -0.15275E-06    80   0.120E-02    0.177E-03
DAV:   5    -0.343381251180E+02   -0.10473E-05   -0.38621E-07    80   0.555E-03    0.652E-04
DAV:   6    -0.343381258220E+02   -0.70398E-06   -0.11092E-07    64   0.303E-03
  13 F= -.34338126E+02 E0= -.34338126E+02  d E =0.128969E-02
       N       E                     dE             d eps       ncg     rms          rms(c)
DAV:   1    -0.343368366786E+02    0.12884E-02   -0.44666E-03    96   0.608E-01    0.230E-02
DAV:   2    -0.343368287682E+02    0.79104E-05   -0.61044E-05    64   0.721E-02    0.126E-02
DAV:   3    -0.343368282675E+02    0.50068E-06   -0.12553E-05    96   0.334E-02    0.634E-03
DAV:   4    -0.343368290331E+02   -0.76558E-06   -0.40859E-06    68   0.181E-02    0.284E-03
DAV:   5    -0.343368293701E+02   -0.33706E-06   -0.72043E-07    88   0.789E-03    0.117E-03
DAV:   6    -0.343368296066E+02   -0.23647E-06   -0.17644E-07    68   0.399E-03
  14 F= -.34336830E+02 E0= -.34336830E+02  d E =0.129622E-02
       N       E                     dE             d eps       ncg     rms          rms(c)
DAV:   1    -0.343360261276E+02    0.80324E-03   -0.37611E-03    96   0.558E-01    0.173E-02
DAV:   2    -0.343360223520E+02    0.37755E-05   -0.48584E-05    76   0.629E-02    0.998E-03
DAV:   3    -0.343360230679E+02   -0.71584E-06   -0.98964E-06    68   0.295E-02    0.391E-03
DAV:   4    -0.343360235335E+02   -0.46568E-06   -0.19850E-06    48   0.136E-02    0.213E-03
DAV:   5    -0.343360238147E+02   -0.28115E-06   -0.46319E-07    64   0.608E-03    0.951E-04
DAV:   6    -0.343360240455E+02   -0.23081E-06   -0.13447E-07    48   0.334E-03
  15 F= -.34336024E+02 E0= -.34336024E+02  d E =0.805561E-03
       N       E                     dE             d eps       ncg     rms          rms(c)
DAV:   1    -0.343361712289E+02   -0.14741E-03   -0.28814E-05    52   0.498E-02    0.246E-03
DAV:   2    -0.343361714530E+02   -0.22413E-06   -0.13442E-06    48   0.118E-02    0.132E-03
DAV:   3    -0.343361716060E+02   -0.15295E-06   -0.14357E-07    48   0.371E-03    0.821E-04
DAV:   4    -0.343361719349E+02   -0.32890E-06   -0.11272E-07    68   0.293E-03    0.254E-04
DAV:   5    -0.343361720246E+02   -0.89772E-07   -0.34749E-08    48   0.129E-03    0.179E-04
DAV:   6    -0.343361721892E+02   -0.16458E-06   -0.21998E-08    48   0.545E-04
  16 F= -.34336172E+02 E0= -.34336172E+02  d E =-.148144E-03
       N       E                     dE             d eps       ncg     rms          rms(c)
DAV:   1    -0.343365496681E+02   -0.37764E-03   -0.10564E-04    48   0.968E-02    0.460E-03
DAV:   2    -0.343365497509E+02   -0.82757E-07   -0.48833E-06    96   0.228E-02    0.246E-03
DAV:   3    -0.343365498306E+02   -0.79704E-07   -0.52473E-07    48   0.719E-03    0.156E-03
DAV:   4    -0.343365499968E+02   -0.16620E-06   -0.29149E-07    64   0.505E-03    0.444E-04
DAV:   5    -0.343365500303E+02   -0.33495E-07   -0.72774E-08    48   0.219E-03    0.318E-04
DAV:   6    -0.343365500868E+02   -0.56484E-07   -0.32345E-08    60   0.912E-04
  17 F= -.34336550E+02 E0= -.34336550E+02  d E =-.377898E-03
       N       E                     dE             d eps       ncg     rms          rms(c)
DAV:   1    -0.343371143306E+02   -0.56430E-03   -0.18393E-04    96   0.126E-01    0.616E-03
DAV:   2    -0.343371135800E+02    0.75056E-06   -0.28018E-06    64   0.173E-02    0.323E-03
DAV:   3    -0.343371135986E+02   -0.18548E-07   -0.54270E-07    64   0.724E-03    0.177E-03
DAV:   4    -0.343371136827E+02   -0.84175E-07   -0.33590E-07    64   0.492E-03    0.508E-04
DAV:   5    -0.343371136882E+02   -0.54973E-08   -0.68554E-08    48   0.202E-03    0.270E-04
DAV:   6    -0.343371137085E+02   -0.20268E-07   -0.35182E-08    64   0.972E-04
  18 F= -.34337114E+02 E0= -.34337114E+02  d E =-.563622E-03
       N       E                     dE             d eps       ncg     rms          rms(c)
DAV:   1    -0.343378596632E+02   -0.74597E-03   -0.23451E-04    96   0.144E-01    0.661E-03
DAV:   2    -0.343378587354E+02    0.92781E-06   -0.32395E-06    64   0.184E-02    0.345E-03
DAV:   3    -0.343378587808E+02   -0.45420E-07   -0.59143E-07    64   0.747E-03    0.189E-03
DAV:   4    -0.343378588802E+02   -0.99445E-07   -0.29200E-07    48   0.464E-03    0.530E-04
DAV:   5    -0.343378588848E+02   -0.46020E-08   -0.63193E-08    48   0.191E-03    0.272E-04
DAV:   6    -0.343378589087E+02   -0.23857E-07   -0.31305E-08    48   0.902E-04
  19 F= -.34337859E+02 E0= -.34337859E+02  d E =-.745200E-03
       N       E                     dE             d eps       ncg     rms          rms(c)
DAV:   1    -0.343387722585E+02   -0.91337E-03   -0.28026E-04    96   0.159E-01    0.671E-03
DAV:   2    -0.343387713169E+02    0.94159E-06   -0.32754E-06    64   0.180E-02    0.345E-03
DAV:   3    -0.343387714350E+02   -0.11803E-06   -0.58130E-07    48   0.725E-03    0.179E-03
DAV:   4    -0.343387715569E+02   -0.12192E-06   -0.20492E-07    48   0.387E-03    0.467E-04
DAV:   5    -0.343387715720E+02   -0.15099E-07   -0.56282E-08    48   0.167E-03    0.221E-04
DAV:   6    -0.343387716051E+02   -0.33143E-07   -0.29680E-08    48   0.837E-04
  20 F= -.34338772E+02 E0= -.34338772E+02  d E =-.912696E-03
       N       E                     dE             d eps       ncg     rms          rms(c)
DAV:   1    -0.343398322114E+02   -0.10606E-02   -0.35798E-04    96   0.180E-01    0.707E-03
DAV:   2    -0.343398312540E+02    0.95735E-06   -0.38284E-06    64   0.184E-02    0.361E-03
DAV:   3    -0.343398314613E+02   -0.20728E-06   -0.67844E-07    48   0.775E-03    0.167E-03
DAV:   4    -0.343398315876E+02   -0.12627E-06   -0.20756E-07    48   0.383E-03    0.497E-04
DAV:   5    -0.343398316224E+02   -0.34862E-07   -0.66354E-08    48   0.182E-03    0.190E-04
DAV:   6    -0.343398316631E+02   -0.40660E-07   -0.32938E-08    48   0.958E-04
  21 F= -.34339832E+02 E0= -.34339832E+02  d E =-.106006E-02
       N       E                     dE             d eps       ncg     rms          rms(c)
DAV:   1    -0.343411567620E+02   -0.13251E-02   -0.59008E-04    96   0.231E-01    0.878E-03
DAV:   2    -0.343411555041E+02    0.12580E-05   -0.64794E-06    64   0.230E-02    0.452E-03
DAV:   3    -0.343411558713E+02   -0.36724E-06   -0.12483E-06    48   0.105E-02    0.174E-03
DAV:   4    -0.343411560106E+02   -0.13933E-06   -0.34880E-07    48   0.501E-03    0.720E-04
DAV:   5    -0.343411560686E+02   -0.57916E-07   -0.11019E-07    48   0.260E-03    0.224E-04
DAV:   6    -0.343411561178E+02   -0.49276E-07   -0.43574E-08    48   0.133E-03
  22 F= -.34341156E+02 E0= -.34341156E+02  d E =-.132445E-02
       N       E                     dE             d eps       ncg     rms          rms(c)
DAV:   1    -0.343427933955E+02   -0.16373E-02   -0.93334E-04    96   0.290E-01    0.110E-02
DAV:   2    -0.343427915908E+02    0.18047E-05   -0.10476E-05    64   0.290E-02    0.569E-03
DAV:   3    -0.343427921713E+02   -0.58048E-06   -0.21441E-06    48   0.137E-02    0.206E-03
DAV:   4    -0.343427923595E+02   -0.18819E-06   -0.55403E-07    48   0.645E-03    0.939E-04
DAV:   5    -0.343427924444E+02   -0.84921E-07   -0.16445E-07    48   0.333E-03    0.277E-04
DAV:   6    -0.343427925124E+02   -0.68014E-07   -0.59468E-08    48   0.171E-03
  23 F= -.34342793E+02 E0= -.34342793E+02  d E =-.163639E-02
       N       E                     dE             d eps       ncg     rms          rms(c)
DAV:   1    -0.343447791456E+02   -0.19867E-02   -0.12962E-03    96   0.342E-01    0.132E-02
DAV:   2    -0.343447763936E+02    0.27520E-05   -0.13864E-05    64   0.340E-02    0.674E-03
DAV:   3    -0.343447771865E+02   -0.79293E-06   -0.25876E-06    48   0.152E-02    0.275E-03
DAV:   4    -0.343447775325E+02   -0.34597E-06   -0.73684E-07    48   0.737E-03    0.105E-03
DAV:   5    -0.343447776402E+02   -0.10775E-06   -0.21595E-07    48   0.378E-03    0.341E-04
DAV:   6    -0.343447777314E+02   -0.91228E-07   -0.74428E-08    48   0.193E-03
  24 F= -.34344778E+02 E0= -.34344778E+02  d E =-.198522E-02
       N       E                     dE             d eps       ncg     rms          rms(c)
DAV:   1    -0.343471117682E+02   -0.23341E-02   -0.17252E-03    96   0.394E-01    0.160E-02
DAV:   2    -0.343471072525E+02    0.45157E-05   -0.18393E-05    64   0.411E-02    0.812E-03
DAV:   3    -0.343471080935E+02   -0.84098E-06   -0.32162E-06    64   0.171E-02    0.392E-03
DAV:   4    -0.343471087718E+02   -0.67825E-06   -0.96869E-07    48   0.866E-03    0.111E-03
DAV:   5    -0.343471088866E+02   -0.11487E-06   -0.24496E-07    48   0.396E-03    0.455E-04
DAV:   6    -0.343471090180E+02   -0.13134E-06   -0.90019E-08    48   0.210E-03
  25 F= -.34347109E+02 E0= -.34347109E+02  d E =-.233129E-02
       N       E                     dE             d eps       ncg     rms          rms(c)
DAV:   1    -0.343497871294E+02   -0.26782E-02   -0.23863E-03    96   0.461E-01    0.197E-02
DAV:   2    -0.343497799445E+02    0.71850E-05   -0.27262E-05    64   0.515E-02    0.101E-02
DAV:   3    -0.343497807939E+02   -0.84938E-06   -0.47785E-06    64   0.211E-02    0.516E-03
DAV:   4    -0.343497818385E+02   -0.10446E-05   -0.15784E-06    48   0.112E-02    0.141E-03
DAV:   5    -0.343497819827E+02   -0.14429E-06   -0.33674E-07    48   0.485E-03    0.647E-04
DAV:   6    -0.343497821717E+02   -0.18898E-06   -0.11082E-07    48   0.246E-03
  26 F= -.34349782E+02 E0= -.34349782E+02  d E =-.267315E-02
       N       E                     dE             d eps       ncg     rms          rms(c)
DAV:   1    -0.343528019276E+02   -0.30199E-02   -0.29702E-03    96   0.514E-01    0.212E-02
DAV:   2    -0.343527939489E+02    0.79788E-05   -0.32270E-05    64   0.538E-02    0.107E-02
DAV:   3    -0.343527954720E+02   -0.15232E-05   -0.57384E-06    64   0.228E-02    0.510E-03
DAV:   4    -0.343527966931E+02   -0.12211E-05   -0.17196E-06    48   0.115E-02    0.152E-03
DAV:   5    -0.343527969410E+02   -0.24790E-06   -0.43492E-07    48   0.530E-03    0.630E-04
DAV:   6    -0.343527971876E+02   -0.24663E-06   -0.15276E-07    48   0.283E-03
  27 F= -.34352797E+02 E0= -.34352797E+02  d E =-.301502E-02
       N       E                     dE             d eps       ncg     rms          rms(c)
DAV:   1    -0.343528018807E+02   -0.49397E-05   -0.14033E-06    48   0.109E-02    0.500E-04
DAV:   2    -0.343528020562E+02   -0.17547E-06   -0.10832E-07    48   0.279E-03    0.292E-04
DAV:   3    -0.343528021938E+02   -0.13761E-06   -0.32884E-08    48   0.108E-03    0.199E-04
DAV:   4    -0.343528024912E+02   -0.29746E-06   -0.27295E-08    48   0.806E-04    0.688E-05
DAV:   5    -0.343528026323E+02   -0.14105E-06   -0.18869E-08    48   0.418E-04    0.498E-05
DAV:   6    -0.343528029312E+02   -0.29888E-06   -0.20741E-08    64   0.339E-04
  28 F= -.34352803E+02 E0= -.34352803E+02  d E =-.574355E-05
       N       E                     dE             d eps       ncg     rms          rms(c)
DAV:   1    -0.343528134083E+02   -0.10776E-04   -0.45863E-06    48   0.201E-02    0.949E-04
DAV:   2    -0.343528134759E+02   -0.67579E-07   -0.23294E-07    48   0.479E-03    0.512E-04
DAV:   3    -0.343528135283E+02   -0.52374E-07   -0.40472E-08    48   0.157E-03    0.300E-04
DAV:   4    -0.343528136271E+02   -0.98882E-07   -0.29703E-08    48   0.112E-03    0.101E-04
DAV:   5    -0.343528136732E+02   -0.46048E-07   -0.18562E-08    48   0.505E-04    0.657E-05
DAV:   6    -0.343528137514E+02   -0.78189E-07   -0.18434E-08    56   0.255E-04
  29 F= -.34352814E+02 E0= -.34352814E+02  d E =-.108202E-04
       N       E                     dE             d eps       ncg     rms          rms(c)
DAV:   1    -0.343528326731E+02   -0.19000E-04   -0.74507E-06    48   0.258E-02    0.119E-03
DAV:   2    -0.343528326918E+02   -0.18656E-07   -0.37577E-07    48   0.612E-03    0.651E-04
DAV:   3    -0.343528327045E+02   -0.12683E-07   -0.64188E-08    48   0.201E-03    0.381E-04
DAV:   4    -0.343528327380E+02   -0.33469E-07   -0.45429E-08    48   0.139E-03    0.126E-04
DAV:   5    -0.343528327548E+02   -0.16865E-07   -0.28692E-08    48   0.623E-04    0.808E-05
DAV:   6    -0.343528327800E+02   -0.25199E-07   -0.27029E-08    48   0.295E-04
  30 F= -.34352833E+02 E0= -.34352833E+02  d E =-.190286E-04
       N       E                     dE             d eps       ncg     rms          rms(c)
DAV:   1    -0.343528645446E+02   -0.31790E-04   -0.78553E-06    48   0.269E-02    0.115E-03
DAV:   2    -0.343528645441E+02    0.49863E-09   -0.40544E-07    48   0.631E-03    0.645E-04
DAV:   3    -0.343528645457E+02   -0.15593E-08   -0.77820E-08    48   0.210E-03    0.378E-04
DAV:   4    -0.343528645561E+02   -0.10400E-07   -0.50316E-08    48   0.135E-03    0.128E-04
DAV:   5    -0.343528645627E+02   -0.66461E-08   -0.33530E-08    48   0.617E-04    0.777E-05
DAV:   6    -0.343528645697E+02   -0.70069E-08   -0.30394E-08    48   0.300E-04
  31 F= -.34352865E+02 E0= -.34352865E+02  d E =-.317897E-04
       N       E                     dE             d eps       ncg     rms          rms(c)
DAV:   1    -0.343529128411E+02   -0.48278E-04   -0.63985E-06    48   0.248E-02    0.922E-04
DAV:   2    -0.343529128403E+02    0.76250E-09   -0.33347E-07    48   0.569E-03    0.529E-04
DAV:   3    -0.343529128430E+02   -0.27142E-08   -0.77010E-08    48   0.195E-03    0.289E-04
DAV:   4    -0.343529128476E+02   -0.46239E-08   -0.44642E-08    48   0.105E-03    0.115E-04
DAV:   5    -0.343529128502E+02   -0.25218E-08   -0.33927E-08    48   0.493E-04    0.556E-05
DAV:   6    -0.343529128526E+02   -0.24695E-08   -0.31555E-08    48   0.267E-04
  32 F= -.34352913E+02 E0= -.34352913E+02  d E =-.482829E-04
       N       E                     dE             d eps       ncg     rms          rms(c)
DAV:   1    -0.343529811507E+02   -0.68301E-04   -0.64357E-06    48   0.248E-02    0.883E-04
DAV:   2    -0.343529811543E+02   -0.36122E-08   -0.32139E-07    48   0.563E-03    0.481E-04
DAV:   3    -0.343529811647E+02   -0.10361E-07   -0.78393E-08    48   0.193E-03    0.180E-04
DAV:   4    -0.343529811671E+02   -0.24540E-08   -0.43275E-08    48   0.888E-04    0.839E-05
DAV:   5    -0.343529811683E+02   -0.11343E-08   -0.34611E-08    48   0.445E-04    0.376E-05
DAV:   6    -0.343529811689E+02   -0.59185E-09   -0.31826E-08    48   0.263E-04
  33 F= -.34352981E+02 E0= -.34352981E+02  d E =-.683163E-04
       N       E                     dE             d eps       ncg     rms          rms(c)
DAV:   1    -0.343530869302E+02   -0.10576E-03   -0.12487E-05    48   0.341E-02    0.130E-03
DAV:   2    -0.343530869401E+02   -0.98848E-08   -0.59419E-07    48   0.784E-03    0.707E-04
DAV:   3    -0.343530869589E+02   -0.18827E-07   -0.10663E-07    48   0.253E-03    0.377E-04
DAV:   4    -0.343530869655E+02   -0.65456E-08   -0.52091E-08    48   0.121E-03    0.162E-04
DAV:   5    -0.343530869652E+02    0.33197E-09   -0.37557E-08    48   0.623E-04    0.781E-05
DAV:   6    -0.343530869653E+02   -0.11687E-09   -0.32638E-08    48   0.358E-04
  34 F= -.34353087E+02 E0= -.34353087E+02  d E =-.105796E-03
       N       E                     dE             d eps       ncg     rms          rms(c)
DAV:   1    -0.343532518786E+02   -0.16491E-03   -0.27305E-05    48   0.500E-02    0.200E-03
DAV:   2    -0.343532518890E+02   -0.10314E-07   -0.12733E-06    48   0.116E-02    0.111E-03
DAV:   3    -0.343532519182E+02   -0.29284E-07   -0.17900E-07    48   0.366E-03    0.667E-04
DAV:   4    -0.343532519354E+02   -0.17143E-07   -0.74712E-08    48   0.184E-03    0.262E-04
DAV:   5    -0.343532519343E+02    0.10955E-08   -0.44013E-08    48   0.939E-04    0.131E-04
DAV:   6    -0.343532519349E+02   -0.61516E-09   -0.34121E-08    48   0.501E-04
  35 F= -.34353252E+02 E0= -.34353252E+02  d E =-.164970E-03
       N       E                     dE             d eps       ncg     rms          rms(c)
DAV:   1    -0.343535107635E+02   -0.25883E-03   -0.52727E-05    48   0.693E-02    0.285E-03
DAV:   2    -0.343535107638E+02   -0.32685E-09   -0.23826E-06    56   0.160E-02    0.155E-03
DAV:   3    -0.343535108131E+02   -0.49263E-07   -0.31250E-07    48   0.505E-03    0.920E-04
DAV:   4    -0.343535108461E+02   -0.33092E-07   -0.11393E-07    48   0.255E-03    0.344E-04
DAV:   5    -0.343535108462E+02   -0.22055E-10   -0.55578E-08    48   0.129E-03    0.177E-04
DAV:   6    -0.343535108488E+02   -0.26681E-08   -0.37079E-08    48   0.685E-04
  36 F= -.34353511E+02 E0= -.34353511E+02  d E =-.258914E-03
       N       E                     dE             d eps       ncg     rms          rms(c)
DAV:   1    -0.343539108527E+02   -0.40001E-03   -0.91603E-05    64   0.914E-02    0.376E-03
DAV:   2    -0.343539108312E+02    0.21527E-07   -0.39569E-06    64   0.207E-02    0.197E-03
DAV:   3    -0.343539109339E+02   -0.10268E-06   -0.54733E-07    48   0.665E-03    0.106E-03
DAV:   4    -0.343539109873E+02   -0.53447E-07   -0.17184E-07    48   0.319E-03    0.400E-04
DAV:   5    -0.343539109927E+02   -0.53816E-08   -0.74586E-08    48   0.161E-03    0.201E-04
DAV:   6    -0.343539109991E+02   -0.63533E-08   -0.42823E-08    48   0.922E-04
  37 F= -.34353911E+02 E0= -.34353911E+02  d E =-.400150E-03
       N       E                     dE             d eps       ncg     rms          rms(c)
DAV:   1    -0.343545118929E+02   -0.60090E-03   -0.17314E-04    96   0.124E-01    0.493E-03
DAV:   2    -0.343545113986E+02    0.49429E-06   -0.21012E-06    64   0.129E-02    0.262E-03
DAV:   3    -0.343545115357E+02   -0.13702E-06   -0.42261E-07    48   0.586E-03    0.104E-03
DAV:   4    -0.343545115889E+02   -0.53210E-07   -0.12809E-07    48   0.283E-03    0.401E-04
DAV:   5    -0.343545116015E+02   -0.12678E-07   -0.53839E-08    48   0.134E-03    0.160E-04
DAV:   6    -0.343545116155E+02   -0.13969E-07   -0.32900E-08    48   0.769E-04
  38 F= -.34354512E+02 E0= -.34354512E+02  d E =-.600616E-03
       N       E                     dE             d eps       ncg     rms          rms(c)
DAV:   1    -0.343553936620E+02   -0.88206E-03   -0.34379E-04    96   0.174E-01    0.681E-03
DAV:   2    -0.343553927822E+02    0.87985E-06   -0.39847E-06    64   0.175E-02    0.361E-03
DAV:   3    -0.343553930612E+02   -0.27903E-06   -0.83315E-07    48   0.844E-03    0.127E-03
DAV:   4    -0.343553931360E+02   -0.74765E-07   -0.21717E-07    48   0.394E-03    0.575E-04
DAV:   5    -0.343553931630E+02   -0.26982E-07   -0.83564E-08    48   0.198E-03    0.209E-04
DAV:   6    -0.343553931861E+02   -0.23153E-07   -0.37015E-08    48   0.110E-03
  39 F= -.34355393E+02 E0= -.34355393E+02  d E =-.881571E-03
       N       E                     dE             d eps       ncg     rms          rms(c)
DAV:   1    -0.343566557565E+02   -0.12626E-02   -0.66775E-04    96   0.242E-01    0.953E-03
DAV:   2    -0.343566541293E+02    0.16272E-05   -0.74963E-06    64   0.242E-02    0.502E-03
DAV:   3    -0.343566546323E+02   -0.50296E-06   -0.14608E-06    48   0.113E-02    0.185E-03
DAV:   4    -0.343566547987E+02   -0.16640E-06   -0.38386E-07    48   0.536E-03    0.764E-04
DAV:   5    -0.343566548463E+02   -0.47591E-07   -0.13024E-07    48   0.263E-03    0.282E-04
DAV:   6    -0.343566548873E+02   -0.40997E-07   -0.50797E-08    48   0.146E-03
  40 F= -.34356655E+02 E0= -.34356655E+02  d E =-.126170E-02
       N       E                     dE             d eps       ncg     rms          rms(c)
DAV:   1    -0.343582844682E+02   -0.16296E-02   -0.10991E-03    96   0.310E-01    0.125E-02
DAV:   2    -0.343582816346E+02    0.28336E-05   -0.11956E-05    64   0.317E-02    0.654E-03
DAV:   3    -0.343582823461E+02   -0.71148E-06   -0.20894E-06    56   0.137E-02    0.280E-03
DAV:   4    -0.343582827427E+02   -0.39661E-06   -0.59520E-07    48   0.677E-03    0.902E-04
DAV:   5    -0.343582828142E+02   -0.71517E-07   -0.17315E-07    48   0.309E-03    0.378E-04
DAV:   6    -0.343582828869E+02   -0.72718E-07   -0.69705E-08    48   0.174E-03
  41 F= -.34358283E+02 E0= -.34358283E+02  d E =-.162800E-02
       N       E                     dE             d eps       ncg     rms          rms(c)
DAV:   1    -0.343602021685E+02   -0.19194E-02   -0.16280E-03    96   0.377E-01    0.155E-02
DAV:   2    -0.343601978716E+02    0.42969E-05   -0.17594E-05    64   0.401E-02    0.810E-03
DAV:   3    -0.343601987044E+02   -0.83284E-06   -0.29921E-06    64   0.165E-02    0.381E-03
DAV:   4    -0.343601994168E+02   -0.71235E-06   -0.88833E-07    48   0.846E-03    0.111E-03
DAV:   5    -0.343601995218E+02   -0.10502E-06   -0.22395E-07    48   0.367E-03    0.503E-04
DAV:   6    -0.343601996397E+02   -0.11789E-06   -0.85345E-08    48   0.201E-03
  42 F= -.34360200E+02 E0= -.34360200E+02  d E =-.191675E-02
       N       E                     dE             d eps       ncg     rms          rms(c)
DAV:   1    -0.343623130396E+02   -0.21135E-02   -0.20616E-03    96   0.424E-01    0.165E-02
DAV:   2    -0.343623086136E+02    0.44260E-05   -0.20717E-05    64   0.424E-02    0.866E-03
DAV:   3    -0.343623098816E+02   -0.12680E-05   -0.33187E-06    48   0.175E-02    0.372E-03
DAV:   4    -0.343623106476E+02   -0.76604E-06   -0.91059E-07    48   0.859E-03    0.111E-03
DAV:   5    -0.343623108176E+02   -0.16997E-06   -0.26216E-07    48   0.389E-03    0.484E-04
DAV:   6    -0.343623109787E+02   -0.16112E-06   -0.10148E-07    48   0.219E-03
  43 F= -.34362311E+02 E0= -.34362311E+02  d E =-.211134E-02
       N       E                     dE             d eps       ncg     rms          rms(c)
DAV:   1    -0.343623025327E+02    0.82848E-05   -0.53649E-07    48   0.670E-03    0.292E-04
DAV:   2    -0.343623026474E+02   -0.11469E-06   -0.53380E-08    48   0.175E-03    0.173E-04
DAV:   3    -0.343623027462E+02   -0.98746E-07   -0.23293E-08    48   0.675E-04    0.118E-04
DAV:   4    -0.343623029453E+02   -0.19908E-06   -0.21806E-08    48   0.493E-04    0.467E-05
DAV:   5    -0.343623030448E+02   -0.99539E-07   -0.17988E-08    48   0.284E-04    0.347E-05
DAV:   6    -0.343623032555E+02   -0.21071E-06   -0.20058E-08    64   0.256E-04
  44 F= -.34362303E+02 E0= -.34362303E+02  d E =0.772320E-05
       N       E                     dE             d eps       ncg     rms          rms(c)
DAV:   1    -0.343622864332E+02    0.16612E-04   -0.16214E-06    48   0.120E-02    0.443E-04
DAV:   2    -0.343622864767E+02   -0.43492E-07   -0.91154E-08    48   0.282E-03    0.260E-04
DAV:   3    -0.343622865124E+02   -0.35753E-07   -0.23784E-08    48   0.829E-04    0.172E-04
DAV:   4    -0.343622865847E+02   -0.72224E-07   -0.23159E-08    60   0.575E-04    0.534E-05
DAV:   5    -0.343622866098E+02   -0.25137E-07   -0.20822E-08    48   0.262E-04    0.391E-05
DAV:   6    -0.343622866587E+02   -0.48902E-07   -0.22774E-08    48   0.122E-04
  45 F= -.34362287E+02 E0= -.34362287E+02  d E =0.165968E-04
       N       E                     dE             d eps       ncg     rms          rms(c)
DAV:   1    -0.343622621980E+02    0.24412E-04   -0.26019E-06    48   0.154E-02    0.519E-04
DAV:   2    -0.343622622091E+02   -0.11063E-07   -0.13863E-07    48   0.355E-03    0.310E-04
DAV:   3    -0.343622622181E+02   -0.90039E-08   -0.35169E-08    48   0.104E-03    0.201E-04
DAV:   4    -0.343622622354E+02   -0.17370E-07   -0.30608E-08    48   0.612E-04    0.635E-05
DAV:   5    -0.343622622442E+02   -0.88129E-08   -0.27609E-08    48   0.274E-04    0.438E-05
DAV:   6    -0.343622622565E+02   -0.12288E-07   -0.27762E-08    48   0.124E-04
  46 F= -.34362262E+02 E0= -.34362262E+02  d E =0.244022E-04
       N       E                     dE             d eps       ncg     rms          rms(c)
DAV:   1    -0.343622322343E+02    0.30010E-04   -0.32596E-06    48   0.173E-02    0.519E-04
DAV:   2    -0.343622322366E+02   -0.23398E-08   -0.16373E-07    48   0.396E-03    0.304E-04
DAV:   3    -0.343622322378E+02   -0.12260E-08   -0.41992E-08    48   0.119E-03    0.175E-04
DAV:   4    -0.343622322404E+02   -0.25816E-08   -0.32463E-08    48   0.566E-04    0.706E-05
DAV:   5    -0.343622322429E+02   -0.25448E-08   -0.29840E-08    48   0.282E-04    0.367E-05
DAV:   6    -0.343622322446E+02   -0.16623E-08   -0.29531E-08    48   0.149E-04
  47 F= -.34362232E+02 E0= -.34362232E+02  d E =0.300119E-04
       N       E                     dE             d eps       ncg     rms          rms(c)
DAV:   1    -0.343621999547E+02    0.32288E-04   -0.41526E-06    48   0.196E-02    0.557E-04
DAV:   2    -0.343621999586E+02   -0.39690E-08   -0.19701E-07    48   0.450E-03    0.315E-04
DAV:   3    -0.343621999603E+02   -0.16887E-08   -0.50003E-08    48   0.142E-03    0.127E-04
DAV:   4    -0.343621999619E+02   -0.15589E-08   -0.34184E-08    48   0.620E-04    0.595E-05
DAV:   5    -0.343621999624E+02   -0.52614E-09   -0.30763E-08    48   0.301E-04    0.245E-05
DAV:   6    -0.343621999630E+02   -0.54160E-09   -0.30053E-08    48   0.170E-04
  48 F= -.34362200E+02 E0= -.34362200E+02  d E =0.322817E-04
       N       E                     dE             d eps       ncg     rms          rms(c)
DAV:   1    -0.343621702890E+02    0.29673E-04   -0.56196E-06    48   0.229E-02    0.649E-04
DAV:   2    -0.343621702979E+02   -0.88780E-08   -0.25804E-07    48   0.528E-03    0.370E-04
DAV:   3    -0.343621703020E+02   -0.41141E-08   -0.58886E-08    48   0.169E-03    0.155E-04
DAV:   4    -0.343621703036E+02   -0.16350E-08   -0.36505E-08    48   0.741E-04    0.752E-05
DAV:   5    -0.343621703043E+02   -0.66825E-09   -0.31362E-08    48   0.367E-04    0.252E-05
DAV:   6    -0.343621703047E+02   -0.46930E-09   -0.30357E-08    48   0.198E-04
  49 F= -.34362170E+02 E0= -.34362170E+02  d E =0.296582E-04
       N       E                     dE             d eps       ncg     rms          rms(c)
DAV:   1    -0.343621496172E+02    0.20687E-04   -0.90333E-06    48   0.291E-02    0.820E-04
DAV:   2    -0.343621496333E+02   -0.16166E-07   -0.39386E-07    48   0.668E-03    0.475E-04
DAV:   3    -0.343621496405E+02   -0.71436E-08   -0.74124E-08    48   0.210E-03    0.219E-04
DAV:   4    -0.343621496433E+02   -0.28446E-08   -0.40537E-08    48   0.941E-04    0.941E-05
DAV:   5    -0.343621496442E+02   -0.90176E-09   -0.32310E-08    48   0.464E-04    0.385E-05
DAV:   6    -0.343621496449E+02   -0.68644E-09   -0.30566E-08    48   0.252E-04
  50 F= -.34362150E+02 E0= -.34362150E+02  d E =0.206599E-04
       N       E                     dE             d eps       ncg     rms          rms(c)
DAV:   1    -0.343621560919E+02   -0.64477E-05   -0.13750E-05    48   0.357E-02    0.987E-04
DAV:   2    -0.343621561173E+02   -0.25365E-07   -0.56415E-07    48   0.809E-03    0.573E-04
DAV:   3    -0.343621561291E+02   -0.11871E-07   -0.90607E-08    48   0.246E-03    0.244E-04
DAV:   4    -0.343621561331E+02   -0.40043E-08   -0.44278E-08    48   0.109E-03    0.827E-05
DAV:   5    -0.343621561343E+02   -0.11362E-08   -0.33299E-08    48   0.541E-04    0.423E-05
DAV:   6    -0.343621561354E+02   -0.11205E-08   -0.30660E-08    48   0.312E-04
  51 F= -.34362156E+02 E0= -.34362156E+02  d E =-.649050E-05
       N       E                     dE             d eps       ncg     rms          rms(c)
DAV:   1    -0.343622189641E+02   -0.62830E-04   -0.22578E-05    48   0.457E-02    0.129E-03
DAV:   2    -0.343622190053E+02   -0.41192E-07   -0.89326E-07    48   0.101E-02    0.741E-04
DAV:   3    -0.343622190271E+02   -0.21780E-07   -0.12333E-07    48   0.303E-03    0.278E-04
DAV:   4    -0.343622190320E+02   -0.49297E-08   -0.51617E-08    48   0.133E-03    0.781E-05
DAV:   5    -0.343622190343E+02   -0.23115E-08   -0.35540E-08    48   0.668E-04    0.476E-05
DAV:   6    -0.343622190360E+02   -0.16860E-08   -0.30969E-08    48   0.394E-04
  52 F= -.34362219E+02 E0= -.34362219E+02  d E =-.629006E-04
       N       E                     dE             d eps       ncg     rms          rms(c)
DAV:   1    -0.343623846326E+02   -0.16560E-03   -0.42562E-05    48   0.629E-02    0.193E-03
DAV:   2    -0.343623847012E+02   -0.68627E-07   -0.16734E-06    48   0.137E-02    0.107E-03
DAV:   3    -0.343623847469E+02   -0.45655E-07   -0.21863E-07    48   0.420E-03    0.415E-04
DAV:   4    -0.343623847568E+02   -0.99496E-08   -0.74372E-08    48   0.188E-03    0.133E-04
DAV:   5    -0.343623847599E+02   -0.30741E-08   -0.42440E-08    48   0.934E-04    0.764E-05
DAV:   6    -0.343623847622E+02   -0.22999E-08   -0.32746E-08    48   0.542E-04
  53 F= -.34362385E+02 E0= -.34362385E+02  d E =-.165726E-03
       N       E                     dE             d eps       ncg     rms          rms(c)
DAV:   1    -0.343627240170E+02   -0.33926E-03   -0.89014E-05    48   0.911E-02    0.312E-03
DAV:   2    -0.343627241144E+02   -0.97398E-07   -0.34837E-06    48   0.197E-02    0.162E-03
DAV:   3    -0.343627242154E+02   -0.10102E-06   -0.46949E-07    48   0.622E-03    0.722E-04
DAV:   4    -0.343627242415E+02   -0.26039E-07   -0.13577E-07    48   0.283E-03    0.249E-04
DAV:   5    -0.343627242462E+02   -0.47237E-08   -0.61144E-08    48   0.139E-03    0.125E-04
DAV:   6    -0.343627242493E+02   -0.31118E-08   -0.37967E-08    48   0.817E-04
  54 F= -.34362724E+02 E0= -.34362724E+02  d E =-.339487E-03
       N       E                     dE             d eps       ncg     rms          rms(c)
DAV:   1    -0.343633464694E+02   -0.62222E-03   -0.21206E-04    96   0.138E-01    0.505E-03
DAV:   2    -0.343633459931E+02    0.47628E-06   -0.20572E-06    64   0.132E-02    0.271E-03
DAV:   3    -0.343633461220E+02   -0.12897E-06   -0.38269E-07    48   0.558E-03    0.112E-03
DAV:   4    -0.343633461763E+02   -0.54286E-07   -0.12114E-07    48   0.277E-03    0.330E-04
DAV:   5    -0.343633461823E+02   -0.60007E-08   -0.50255E-08    48   0.128E-03    0.136E-04
DAV:   6    -0.343633461914E+02   -0.90495E-08   -0.31927E-08    48   0.732E-04
  55 F= -.34363346E+02 E0= -.34363346E+02  d E =-.621942E-03
       N       E                     dE             d eps       ncg     rms          rms(c)
DAV:   1    -0.343644127430E+02   -0.10666E-02   -0.51159E-04    96   0.214E-01    0.826E-03
DAV:   2    -0.343644114728E+02    0.12703E-05   -0.51926E-06    64   0.212E-02    0.434E-03
DAV:   3    -0.343644117588E+02   -0.28601E-06   -0.94992E-07    48   0.907E-03    0.191E-03
DAV:   4    -0.343644119131E+02   -0.15433E-06   -0.28319E-07    48   0.454E-03    0.561E-04
DAV:   5    -0.343644119285E+02   -0.15405E-07   -0.88356E-08    48   0.207E-03    0.229E-04
DAV:   6    -0.343644119513E+02   -0.22833E-07   -0.41652E-08    48   0.115E-03
  56 F= -.34364412E+02 E0= -.34364412E+02  d E =-.106576E-02
       N       E                     dE             d eps       ncg     rms          rms(c)
DAV:   1    -0.343661444688E+02   -0.17325E-02   -0.12059E-03    96   0.328E-01    0.129E-02
DAV:   2    -0.343661414922E+02    0.29766E-05   -0.12561E-05    64   0.328E-02    0.671E-03
DAV:   3    -0.343661421303E+02   -0.63808E-06   -0.23045E-06    64   0.143E-02    0.296E-03
DAV:   4    -0.343661425074E+02   -0.37717E-06   -0.67487E-07    48   0.713E-03    0.905E-04
DAV:   5    -0.343661425564E+02   -0.48919E-07   -0.19173E-07    48   0.329E-03    0.358E-04
DAV:   6    -0.343661426135E+02   -0.57197E-07   -0.74856E-08    48   0.182E-03
  57 F= -.34366143E+02 E0= -.34366143E+02  d E =-.173066E-02
       N       E                     dE             d eps       ncg     rms          rms(c)
DAV:   1    -0.343687956594E+02   -0.26531E-02   -0.26506E-03    96   0.485E-01    0.193E-02
DAV:   2    -0.343687893131E+02    0.63464E-05   -0.27798E-05    64   0.486E-02    0.995E-03
DAV:   3    -0.343687907298E+02   -0.14167E-05   -0.50980E-06    64   0.213E-02    0.435E-03
DAV:   4    -0.343687915490E+02   -0.81917E-06   -0.14793E-06    52   0.106E-02    0.138E-03
DAV:   5    -0.343687916861E+02   -0.13719E-06   -0.41067E-07    48   0.497E-03    0.529E-04
DAV:   6    -0.343687918218E+02   -0.13568E-06   -0.14620E-07    48   0.273E-03
  58 F= -.34368792E+02 E0= -.34368792E+02  d E =-.264921E-02
       N       E                     dE             d eps       ncg     rms          rms(c)
DAV:   1    -0.343723570993E+02   -0.35654E-02   -0.46840E-03    96   0.643E-01    0.259E-02
DAV:   2    -0.343723456146E+02    0.11485E-04   -0.48722E-05    64   0.655E-02    0.133E-02
DAV:   3    -0.343723478945E+02   -0.22800E-05   -0.87416E-06    64   0.281E-02    0.610E-03
DAV:   4    -0.343723494968E+02   -0.16022E-05   -0.26054E-06    60   0.142E-02    0.179E-03
DAV:   5    -0.343723497688E+02   -0.27200E-06   -0.67659E-07    48   0.648E-03    0.722E-04
DAV:   6    -0.343723500424E+02   -0.27367E-06   -0.23669E-07    48   0.354E-03
  59 F= -.34372350E+02 E0= -.34372350E+02  d E =-.355822E-02
       N       E                     dE             d eps       ncg     rms          rms(c)
DAV:   1    -0.343765803964E+02   -0.42306E-02   -0.67285E-03    96   0.770E-01    0.306E-02
DAV:   2    -0.343765648570E+02    0.15539E-04   -0.67952E-05    64   0.781E-02    0.158E-02
DAV:   3    -0.343765680771E+02   -0.32201E-05   -0.11916E-05    64   0.330E-02    0.731E-03
DAV:   4    -0.343765704193E+02   -0.23422E-05   -0.35600E-06    52   0.167E-02    0.207E-03
DAV:   5    -0.343765708594E+02   -0.44013E-06   -0.90887E-07    48   0.759E-03    0.843E-04
DAV:   6    -0.343765712909E+02   -0.43154E-06   -0.31500E-07    48   0.411E-03
  60 F= -.34376571E+02 E0= -.34376571E+02  d E =-.422125E-02
       N       E                     dE             d eps       ncg     rms          rms(c)
DAV:   1    -0.343765331132E+02    0.37746E-04   -0.22511E-06    48   0.143E-02    0.646E-04
DAV:   2    -0.343765334369E+02   -0.32370E-06   -0.14730E-07    48   0.350E-03    0.355E-04
DAV:   3    -0.343765337417E+02   -0.30482E-06   -0.39388E-08    48   0.128E-03    0.221E-04
DAV:   4    -0.343765341803E+02   -0.43864E-06   -0.30846E-08    60   0.813E-04    0.101E-04
DAV:   5    -0.343765345261E+02   -0.34574E-06   -0.23810E-08    52   0.514E-04    0.629E-05
DAV:   6    -0.343765350452E+02   -0.51909E-06   -0.29492E-08    64   0.489E-04
  61 F= -.34376535E+02 E0= -.34376535E+02  d E =0.362458E-04
       N       E                     dE             d eps       ncg     rms          rms(c)
DAV:   1    -0.343764570040E+02    0.77522E-04   -0.85741E-06    48   0.285E-02    0.991E-04
DAV:   2    -0.343764571167E+02   -0.11273E-06   -0.37337E-07    48   0.631E-03    0.531E-04
DAV:   3    -0.343764572304E+02   -0.11368E-06   -0.58484E-08    48   0.199E-03    0.283E-04
DAV:   4    -0.343764573421E+02   -0.11175E-06   -0.26855E-08    48   0.945E-04    0.126E-04
DAV:   5    -0.343764574474E+02   -0.10526E-06   -0.18919E-08    56   0.510E-04    0.568E-05
DAV:   6    -0.343764575400E+02   -0.92630E-07   -0.17493E-08    72   0.309E-04
  62 F= -.34376458E+02 E0= -.34376458E+02  d E =0.775051E-04
       N       E                     dE             d eps       ncg     rms          rms(c)
DAV:   1    -0.343763405274E+02    0.11692E-03   -0.19635E-05    48   0.433E-02    0.146E-03
DAV:   2    -0.343763405873E+02   -0.59864E-07   -0.81761E-07    48   0.944E-03    0.779E-04
DAV:   3    -0.343763406458E+02   -0.58481E-07   -0.12646E-07    48   0.302E-03    0.355E-04
DAV:   4    -0.343763406833E+02   -0.37582E-07   -0.51257E-08    48   0.140E-03    0.166E-04
DAV:   5    -0.343763407156E+02   -0.32264E-07   -0.33945E-08    60   0.732E-04    0.689E-05
DAV:   6    -0.343763407364E+02   -0.20762E-07   -0.29095E-08    48   0.422E-04
  63 F= -.34376341E+02 E0= -.34376341E+02  d E =0.116804E-03
       N       E                     dE             d eps       ncg     rms          rms(c)
DAV:   1    -0.343761858141E+02    0.15490E-03   -0.34880E-05    48   0.577E-02    0.192E-03
DAV:   2    -0.343761858700E+02   -0.55895E-07   -0.14370E-06    48   0.125E-02    0.103E-03
DAV:   3    -0.343761859160E+02   -0.45990E-07   -0.21835E-07    48   0.403E-03    0.439E-04
DAV:   4    -0.343761859330E+02   -0.16991E-07   -0.79299E-08    48   0.186E-03    0.204E-04
DAV:   5    -0.343761859414E+02   -0.84410E-08   -0.45269E-08    48   0.967E-04    0.851E-05
DAV:   6    -0.343761859453E+02   -0.38666E-08   -0.34777E-08    48   0.559E-04
  64 F= -.34376186E+02 E0= -.34376186E+02  d E =0.154791E-03
       N       E                     dE             d eps       ncg     rms          rms(c)
DAV:   1    -0.343759997683E+02    0.18617E-03   -0.51556E-05    48   0.700E-02    0.231E-03
DAV:   2    -0.343759998465E+02   -0.78196E-07   -0.21073E-06    48   0.152E-02    0.124E-03
DAV:   3    -0.343759999033E+02   -0.56820E-07   -0.31055E-07    48   0.489E-03    0.515E-04
DAV:   4    -0.343759999199E+02   -0.16592E-07   -0.10538E-07    48   0.226E-03    0.233E-04
DAV:   5    -0.343759999258E+02   -0.58371E-08   -0.54842E-08    48   0.117E-03    0.997E-05
DAV:   6    -0.343759999289E+02   -0.31762E-08   -0.38962E-08    48   0.679E-04
  65 F= -.34376000E+02 E0= -.34376000E+02  d E =0.186016E-03
       N       E                     dE             d eps       ncg     rms          rms(c)
DAV:   1    -0.343757916573E+02    0.20827E-03   -0.67407E-05    48   0.799E-02    0.262E-03
DAV:   2    -0.343757917673E+02   -0.11000E-06   -0.27459E-06    48   0.174E-02    0.142E-03
DAV:   3    -0.343757918406E+02   -0.73296E-07   -0.38967E-07    48   0.555E-03    0.588E-04
DAV:   4    -0.343757918625E+02   -0.21923E-07   -0.12750E-07    48   0.256E-03    0.253E-04
DAV:   5    -0.343757918705E+02   -0.80015E-08   -0.62548E-08    48   0.133E-03    0.113E-04
DAV:   6    -0.343757918758E+02   -0.53046E-08   -0.42236E-08    48   0.771E-04
  66 F= -.34375792E+02 E0= -.34375792E+02  d E =0.208053E-03
       N       E                     dE             d eps       ncg     rms          rms(c)
DAV:   1    -0.343755513185E+02    0.24055E-03   -0.98664E-05    64   0.964E-02    0.313E-03
DAV:   2    -0.343755514970E+02   -0.17850E-06   -0.40134E-06    48   0.212E-02    0.171E-03
DAV:   3    -0.343755516013E+02   -0.10430E-06   -0.53619E-07    48   0.664E-03    0.722E-04
DAV:   4    -0.343755516340E+02   -0.32736E-07   -0.16683E-07    48   0.306E-03    0.287E-04
DAV:   5    -0.343755516450E+02   -0.10962E-07   -0.75445E-08    48   0.158E-03    0.138E-04
DAV:   6    -0.343755516532E+02   -0.82262E-08   -0.46935E-08    48   0.914E-04
  67 F= -.34375552E+02 E0= -.34375552E+02  d E =0.240223E-03
       N       E                     dE             d eps       ncg     rms          rms(c)
DAV:   1    -0.343753023295E+02    0.24932E-03   -0.13652E-04    96   0.111E-01    0.349E-03
DAV:   2    -0.343753021871E+02    0.14244E-06   -0.12342E-06    48   0.999E-03    0.204E-03
DAV:   3    -0.343753022777E+02   -0.90602E-07   -0.25019E-07    48   0.439E-03    0.603E-04
DAV:   4    -0.343753022961E+02   -0.18435E-07   -0.86826E-08    48   0.202E-03    0.247E-04
DAV:   5    -0.343753023061E+02   -0.10010E-07   -0.50037E-08    48   0.103E-03    0.117E-04
DAV:   6    -0.343753023166E+02   -0.10473E-07   -0.39128E-08    48   0.584E-04
  68 F= -.34375302E+02 E0= -.34375302E+02  d E =0.249337E-03
       N       E                     dE             d eps       ncg     rms          rms(c)
DAV:   1    -0.343750978473E+02    0.20446E-03   -0.15427E-04    96   0.118E-01    0.351E-03
DAV:   2    -0.343750977363E+02    0.11101E-06   -0.13788E-06    48   0.106E-02    0.212E-03
DAV:   3    -0.343750978506E+02   -0.11432E-06   -0.25960E-07    48   0.454E-03    0.513E-04
DAV:   4    -0.343750978647E+02   -0.14113E-07   -0.86791E-08    48   0.199E-03    0.220E-04
DAV:   5    -0.343750978748E+02   -0.10092E-07   -0.50409E-08    48   0.102E-03    0.106E-04
DAV:   6    -0.343750978863E+02   -0.11537E-07   -0.39749E-08    48   0.574E-04
  69 F= -.34375098E+02 E0= -.34375098E+02  d E =0.204430E-03
       N       E                     dE             d eps       ncg     rms          rms(c)
DAV:   1    -0.343751089876E+02   -0.11113E-04   -0.91627E-08    48   0.231E-03    0.974E-05
DAV:   2    -0.343751089945E+02   -0.69510E-08   -0.36846E-08    48   0.536E-04    0.482E-05
DAV:   3    -0.343751090012E+02   -0.66598E-08   -0.34533E-08    48   0.203E-04    0.267E-05
DAV:   4    -0.343751090079E+02   -0.67199E-08   -0.33985E-08    48   0.105E-04    0.127E-05
DAV:   5    -0.343751090154E+02   -0.75131E-08   -0.33606E-08    48   0.637E-05    0.484E-06
DAV:   6    -0.343751090200E+02   -0.45500E-08   -0.33351E-08    48   0.430E-05
  70 F= -.34375109E+02 E0= -.34375109E+02  d E =-.111336E-04
       N       E                     dE             d eps       ncg     rms          rms(c)
DAV:   1    -0.343751360382E+02   -0.27023E-04   -0.31681E-07    48   0.517E-03    0.212E-04
DAV:   2    -0.343751360403E+02   -0.20175E-08   -0.44269E-08    48   0.110E-03    0.101E-04
DAV:   3    -0.343751360423E+02   -0.20918E-08   -0.34527E-08    48   0.378E-04    0.550E-05
DAV:   4    -0.343751360435E+02   -0.11172E-08   -0.33064E-08    48   0.181E-04    0.257E-05
DAV:   5    -0.343751360449E+02   -0.13947E-08   -0.32461E-08    48   0.923E-05    0.852E-06
DAV:   6    -0.343751360455E+02   -0.60800E-09   -0.32206E-08    48   0.531E-05
  71 F= -.34375136E+02 E0= -.34375136E+02  d E =-.270255E-04
       N       E                     dE             d eps       ncg     rms          rms(c)
DAV:   1    -0.343751848738E+02   -0.48829E-04   -0.86511E-07    48   0.888E-03    0.364E-04
DAV:   2    -0.343751848738E+02   -0.20123E-10   -0.65568E-08    48   0.188E-03    0.173E-04
DAV:   3    -0.343751848748E+02   -0.99135E-09   -0.37298E-08    48   0.656E-04    0.910E-05
DAV:   4    -0.343751848748E+02    0.11255E-10   -0.33066E-08    48   0.313E-04    0.421E-05
DAV:   5    -0.343751848748E+02    0.31378E-10   -0.31887E-08    48   0.157E-04    0.140E-05
DAV:   6    -0.343751848750E+02   -0.22715E-09   -0.31421E-08    48   0.914E-05
  72 F= -.34375185E+02 E0= -.34375185E+02  d E =-.488296E-04
       N       E                     dE             d eps       ncg     rms          rms(c)
DAV:   1    -0.343752624324E+02   -0.77558E-04   -0.20074E-06    48   0.137E-02    0.560E-04
DAV:   2    -0.343752624303E+02    0.21096E-08   -0.11162E-07    48   0.290E-03    0.267E-04
DAV:   3    -0.343752624322E+02   -0.19618E-08   -0.44516E-08    48   0.101E-03    0.137E-04
DAV:   4    -0.343752624321E+02    0.16053E-09   -0.34522E-08    48   0.483E-04    0.627E-05
DAV:   5    -0.343752624319E+02    0.18008E-09   -0.31938E-08    48   0.240E-04    0.214E-05
DAV:   6    -0.343752624320E+02   -0.17326E-09   -0.31125E-08    48   0.141E-04
  73 F= -.34375262E+02 E0= -.34375262E+02  d E =-.775570E-04
       N       E                     dE             d eps       ncg     rms          rms(c)
DAV:   1    -0.343753766289E+02   -0.11420E-03   -0.41770E-06    48   0.198E-02    0.810E-04
DAV:   2    -0.343753766238E+02    0.50740E-08   -0.20004E-07    48   0.420E-03    0.387E-04
DAV:   3    -0.343753766282E+02   -0.43924E-08   -0.58782E-08    48   0.147E-03    0.197E-04
DAV:   4    -0.343753766284E+02   -0.16462E-09   -0.37871E-08    48   0.696E-04    0.880E-05
DAV:   5    -0.343753766285E+02   -0.14484E-09   -0.32676E-08    48   0.344E-04    0.311E-05
DAV:   6    -0.343753766292E+02   -0.64006E-09   -0.31102E-08    48   0.203E-04
  74 F= -.34375377E+02 E0= -.34375377E+02  d E =-.114197E-03
       N       E                     dE             d eps       ncg     rms          rms(c)
DAV:   1    -0.343755361714E+02   -0.15954E-03   -0.79935E-06    48   0.273E-02    0.112E-03
DAV:   2    -0.343755361624E+02    0.90427E-08   -0.35574E-07    48   0.582E-03    0.538E-04
DAV:   3    -0.343755361710E+02   -0.85497E-08   -0.83528E-08    48   0.202E-03    0.273E-04
DAV:   4    -0.343755361725E+02   -0.15557E-08   -0.43933E-08    48   0.957E-04    0.118E-04
DAV:   5    -0.343755361730E+02   -0.44508E-09   -0.34233E-08    48   0.469E-04    0.435E-05
DAV:   6    -0.343755361741E+02   -0.11185E-08   -0.31234E-08    48   0.280E-04
  75 F= -.34375536E+02 E0= -.34375536E+02  d E =-.159545E-03
       N       E                     dE             d eps       ncg     rms          rms(c)
DAV:   1    -0.343757774814E+02   -0.24131E-03   -0.18120E-05    48   0.410E-02    0.170E-03
DAV:   2    -0.343757774646E+02    0.16795E-07   -0.76705E-07    48   0.877E-03    0.811E-04
DAV:   3    -0.343757774845E+02   -0.19909E-07   -0.14795E-07    48   0.302E-03    0.415E-04
DAV:   4    -0.343757774894E+02   -0.49108E-08   -0.60001E-08    48   0.143E-03    0.173E-04
DAV:   5    -0.343757774906E+02   -0.12164E-08   -0.38722E-08    48   0.695E-04    0.663E-05
DAV:   6    -0.343757774928E+02   -0.22342E-08   -0.32204E-08    48   0.415E-04
  76 F= -.34375777E+02 E0= -.34375777E+02  d E =-.241319E-03
       N       E                     dE             d eps       ncg     rms          rms(c)
DAV:   1    -0.343761170710E+02   -0.33958E-03   -0.35846E-05    48   0.576E-02    0.240E-03
DAV:   2    -0.343761170423E+02    0.28624E-07   -0.14845E-06    48   0.123E-02    0.115E-03
DAV:   3    -0.343761170819E+02   -0.39522E-07   -0.25755E-07    48   0.422E-03    0.598E-04
DAV:   4    -0.343761170934E+02   -0.11496E-07   -0.87062E-08    48   0.199E-03    0.239E-04
DAV:   5    -0.343761170961E+02   -0.27859E-08   -0.46263E-08    48   0.964E-04    0.948E-05
DAV:   6    -0.343761170999E+02   -0.37719E-08   -0.33833E-08    48   0.576E-04
  77 F= -.34376117E+02 E0= -.34376117E+02  d E =-.339607E-03
       N       E                     dE             d eps       ncg     rms          rms(c)
DAV:   1    -0.343765712073E+02   -0.45411E-03   -0.64493E-05    48   0.770E-02    0.325E-03
DAV:   2    -0.343765711620E+02    0.45278E-07   -0.26398E-06    64   0.166E-02    0.155E-03
DAV:   3    -0.343765712330E+02   -0.70975E-07   -0.42885E-07    48   0.563E-03    0.826E-04
DAV:   4    -0.343765712569E+02   -0.23898E-07   -0.12839E-07    48   0.265E-03    0.315E-04
DAV:   5    -0.343765712625E+02   -0.56207E-08   -0.57248E-08    48   0.128E-03    0.130E-04
DAV:   6    -0.343765712690E+02   -0.64155E-08   -0.35858E-08    48   0.758E-04
  78 F= -.34376571E+02 E0= -.34376571E+02  d E =-.454169E-03
       N       E                     dE             d eps       ncg     rms          rms(c)
DAV:   1    -0.343771541245E+02   -0.58286E-03   -0.10761E-04    64   0.992E-02    0.421E-03
DAV:   2    -0.343771540644E+02    0.60123E-07   -0.43753E-06    64   0.215E-02    0.201E-03
DAV:   3    -0.343771541799E+02   -0.11553E-06   -0.67978E-07    48   0.723E-03    0.109E-03
DAV:   4    -0.343771542237E+02   -0.43762E-07   -0.18849E-07    48   0.339E-03    0.402E-04
DAV:   5    -0.343771542337E+02   -0.10020E-07   -0.73648E-08    48   0.163E-03    0.172E-04
DAV:   6    -0.343771542441E+02   -0.10434E-07   -0.39215E-08    48   0.959E-04
  79 F= -.34377154E+02 E0= -.34377154E+02  d E =-.582975E-03
       N       E                     dE             d eps       ncg     rms          rms(c)
DAV:   1    -0.343778755745E+02   -0.72134E-03   -0.17318E-04    96   0.123E-01    0.514E-03
DAV:   2    -0.343778750335E+02    0.54098E-06   -0.18850E-06    64   0.129E-02    0.262E-03
DAV:   3    -0.343778751252E+02   -0.91677E-07   -0.35073E-07    48   0.549E-03    0.122E-03
DAV:   4    -0.343778751850E+02   -0.59773E-07   -0.11996E-07    48   0.279E-03    0.349E-04
DAV:   5    -0.343778751974E+02   -0.12392E-07   -0.45080E-08    48   0.127E-03    0.148E-04
DAV:   6    -0.343778752172E+02   -0.19841E-07   -0.28303E-08    48   0.700E-04
  80 F= -.34377875E+02 E0= -.34377875E+02  d E =-.720973E-03
       N       E                     dE             d eps       ncg     rms          rms(c)
DAV:   1    -0.343787282475E+02   -0.85305E-03   -0.25064E-04    96   0.148E-01    0.607E-03
DAV:   2    -0.343787275420E+02    0.70553E-06   -0.25828E-06    64   0.152E-02    0.309E-03
DAV:   3    -0.343787276774E+02   -0.13537E-06   -0.44905E-07    48   0.637E-03    0.142E-03
DAV:   4    -0.343787277642E+02   -0.86820E-07   -0.14489E-07    48   0.318E-03    0.408E-04
DAV:   5    -0.343787277853E+02   -0.21085E-07   -0.50389E-08    48   0.145E-03    0.174E-04
DAV:   6    -0.343787278133E+02   -0.28021E-07   -0.28705E-08    48   0.797E-04
  81 F= -.34378728E+02 E0= -.34378728E+02  d E =-.852596E-03
       N       E                     dE             d eps       ncg     rms          rms(c)
DAV:   1    -0.343796725329E+02   -0.94475E-03   -0.32801E-04    96   0.169E-01    0.686E-03
DAV:   2    -0.343796716776E+02    0.85527E-06   -0.32990E-06    64   0.173E-02    0.350E-03
DAV:   3    -0.343796718553E+02   -0.17770E-06   -0.54403E-07    48   0.711E-03    0.162E-03
DAV:   4    -0.343796719746E+02   -0.11933E-06   -0.16920E-07    48   0.353E-03    0.459E-04
DAV:   5    -0.343796720050E+02   -0.30373E-07   -0.55755E-08    48   0.159E-03    0.201E-04
DAV:   6    -0.343796720413E+02   -0.36343E-07   -0.29868E-08    48   0.876E-04
  82 F= -.34379672E+02 E0= -.34379672E+02  d E =-.944228E-03
       N       E                     dE             d eps       ncg     rms          rms(c)
DAV:   1    -0.343796688396E+02    0.31654E-05   -0.40397E-08    48   0.146E-03    0.746E-05
DAV:   2    -0.343796688703E+02   -0.30767E-07   -0.19998E-08    48   0.468E-04    0.516E-05
DAV:   3    -0.343796689329E+02   -0.62606E-07   -0.19469E-08    48   0.252E-04    0.216E-05
DAV:   4    -0.343796689775E+02   -0.44554E-07   -0.19605E-08    48   0.159E-04    0.144E-05
DAV:   5    -0.343796690347E+02   -0.57160E-07   -0.21691E-08    48   0.130E-04    0.863E-06
DAV:   6    -0.343796690842E+02   -0.49525E-07   -0.24143E-08    48   0.116E-04
  83 F= -.34379669E+02 E0= -.34379669E+02  d E =0.295714E-05
       N       E                     dE             d eps       ncg     rms          rms(c)
DAV:   1    -0.343796628240E+02    0.62107E-05   -0.10894E-07    48   0.281E-03    0.799E-05
DAV:   2    -0.343796628341E+02   -0.10132E-07   -0.30264E-08    48   0.646E-04    0.466E-05
DAV:   3    -0.343796628463E+02   -0.12173E-07   -0.27673E-08    48   0.220E-04    0.215E-05
DAV:   4    -0.343796628553E+02   -0.90183E-08   -0.27757E-08    48   0.107E-04    0.106E-05
DAV:   5    -0.343796628644E+02   -0.90532E-08   -0.28414E-08    48   0.596E-05    0.344E-06
DAV:   6    -0.343796628690E+02   -0.46358E-08   -0.28754E-08    48   0.381E-05
  84 F= -.34379663E+02 E0= -.34379663E+02  d E =0.621516E-05
       N       E                     dE             d eps       ncg     rms          rms(c)
DAV:   1    -0.343796545530E+02    0.83114E-05   -0.23461E-07    48   0.439E-03    0.123E-04
DAV:   2    -0.343796545550E+02   -0.20848E-08   -0.38262E-08    48   0.990E-04    0.719E-05
DAV:   3    -0.343796545568E+02   -0.17767E-08   -0.30695E-08    48   0.321E-04    0.313E-05
DAV:   4    -0.343796545582E+02   -0.13938E-08   -0.30027E-08    48   0.146E-04    0.145E-05
DAV:   5    -0.343796545588E+02   -0.60754E-09   -0.30043E-08    48   0.725E-05    0.518E-06
DAV:   6    -0.343796545593E+02   -0.49363E-09   -0.30191E-08    48   0.418E-05
  85 F= -.34379655E+02 E0= -.34379655E+02  d E =0.830970E-05
       N       E                     dE             d eps       ncg     rms          rms(c)
DAV:   1    -0.343796463910E+02    0.81678E-05   -0.45159E-07    48   0.624E-03    0.170E-04
DAV:   2    -0.343796463923E+02   -0.13351E-08   -0.48485E-08    48   0.140E-03    0.100E-04
DAV:   3    -0.343796463927E+02   -0.34163E-09   -0.32703E-08    48   0.445E-04    0.425E-05
DAV:   4    -0.343796463930E+02   -0.37858E-09   -0.31031E-08    48   0.202E-04    0.191E-05
DAV:   5    -0.343796463932E+02   -0.16735E-09   -0.30736E-08    48   0.101E-04    0.796E-06
DAV:   6    -0.343796463931E+02    0.10959E-09   -0.30666E-08    48   0.585E-05
  86 F= -.34379646E+02 E0= -.34379646E+02  d E =0.816622E-05
       N       E                     dE             d eps       ncg     rms          rms(c)
DAV:   1    -0.343796418475E+02    0.45457E-05   -0.83438E-07    48   0.855E-03    0.232E-04
DAV:   2    -0.343796418495E+02   -0.19563E-08   -0.65552E-08    48   0.193E-03    0.137E-04
DAV:   3    -0.343796418502E+02   -0.74147E-09   -0.35049E-08    48   0.603E-04    0.574E-05
DAV:   4    -0.343796418503E+02   -0.87994E-10   -0.31829E-08    48   0.275E-04    0.226E-05
DAV:   5    -0.343796418504E+02   -0.13756E-09   -0.31052E-08    48   0.139E-04    0.111E-05
DAV:   6    -0.343796418503E+02    0.14552E-09   -0.30899E-08    48   0.809E-05
  87 F= -.34379642E+02 E0= -.34379642E+02  d E =0.454280E-05
       N       E                     dE             d eps       ncg     rms          rms(c)
DAV:   1    -0.343796457271E+02   -0.38766E-05   -0.15258E-06    48   0.116E-02    0.320E-04
DAV:   2    -0.343796457307E+02   -0.36040E-08   -0.95730E-08    48   0.264E-03    0.188E-04
DAV:   3    -0.343796457321E+02   -0.14304E-08   -0.38734E-08    48   0.816E-04    0.784E-05
DAV:   4    -0.343796457323E+02   -0.14461E-09   -0.32738E-08    48   0.375E-04    0.266E-05
DAV:   5    -0.343796457322E+02    0.43883E-10   -0.31373E-08    48   0.189E-04    0.146E-05
DAV:   6    -0.343796457324E+02   -0.23010E-09   -0.30989E-08    48   0.110E-04
  88 F= -.34379646E+02 E0= -.34379646E+02  d E =-.388215E-05
       N       E                     dE             d eps       ncg     rms          rms(c)
DAV:   1    -0.343796673235E+02   -0.21591E-04   -0.35277E-06    48   0.177E-02    0.506E-04
DAV:   2    -0.343796673318E+02   -0.83146E-08   -0.18222E-07    48   0.402E-03    0.290E-04
DAV:   3    -0.343796673350E+02   -0.31723E-08   -0.49543E-08    48   0.125E-03    0.127E-04
DAV:   4    -0.343796673356E+02   -0.59777E-09   -0.35294E-08    48   0.578E-04    0.403E-05
DAV:   5    -0.343796673360E+02   -0.46066E-09   -0.32062E-08    48   0.289E-04    0.226E-05
DAV:   6    -0.343796673362E+02   -0.15802E-09   -0.31102E-08    48   0.166E-04
  89 F= -.34379667E+02 E0= -.34379667E+02  d E =-.216038E-04
       N       E                     dE             d eps       ncg     rms          rms(c)
DAV:   1    -0.343797222785E+02   -0.54943E-04   -0.83530E-06    48   0.274E-02    0.819E-04
DAV:   2    -0.343797222975E+02   -0.18968E-07   -0.38898E-07    48   0.618E-03    0.453E-04
DAV:   3    -0.343797223059E+02   -0.83660E-08   -0.76282E-08    48   0.194E-03    0.214E-04
DAV:   4    -0.343797223076E+02   -0.17699E-08   -0.41671E-08    48   0.903E-04    0.702E-05
DAV:   5    -0.343797223082E+02   -0.51386E-09   -0.33785E-08    48   0.447E-04    0.371E-05
DAV:   6    -0.343797223088E+02   -0.62232E-09   -0.31501E-08    48   0.255E-04
  90 F= -.34379722E+02 E0= -.34379722E+02  d E =-.549726E-04
       N       E                     dE             d eps       ncg     rms          rms(c)
DAV:   1    -0.343798338010E+02   -0.11149E-03   -0.19785E-05    48   0.423E-02    0.132E-03
DAV:   2    -0.343798338424E+02   -0.41400E-07   -0.87423E-07    48   0.948E-03    0.708E-04
DAV:   3    -0.343798338631E+02   -0.20660E-07   -0.14120E-07    48   0.302E-03    0.359E-04
DAV:   4    -0.343798338683E+02   -0.52164E-08   -0.57039E-08    48   0.141E-03    0.125E-04
DAV:   5    -0.343798338697E+02   -0.13450E-08   -0.38017E-08    48   0.690E-04    0.591E-05
DAV:   6    -0.343798338703E+02   -0.61959E-09   -0.32543E-08    48   0.392E-04
  91 F= -.34379834E+02 E0= -.34379834E+02  d E =-.111561E-03
       N       E                     dE             d eps       ncg     rms          rms(c)
DAV:   1    -0.343800325274E+02   -0.19866E-03   -0.45838E-05    48   0.645E-02    0.210E-03
DAV:   2    -0.343800326139E+02   -0.86498E-07   -0.19729E-06    48   0.144E-02    0.109E-03
DAV:   3    -0.343800326614E+02   -0.47546E-07   -0.29103E-07    48   0.463E-03    0.582E-04
DAV:   4    -0.343800326753E+02   -0.13933E-07   -0.92856E-08    48   0.216E-03    0.211E-04
DAV:   5    -0.343800326777E+02   -0.24020E-08   -0.48007E-08    48   0.105E-03    0.917E-05
DAV:   6    -0.343800326792E+02   -0.14334E-08   -0.35316E-08    48   0.596E-04
  92 F= -.34380033E+02 E0= -.34380033E+02  d E =-.198809E-03
       N       E                     dE             d eps       ncg     rms          rms(c)
DAV:   1    -0.343803322159E+02   -0.29954E-03   -0.97466E-05    64   0.940E-02    0.310E-03
DAV:   2    -0.343803323972E+02   -0.18129E-06   -0.41444E-06    56   0.209E-02    0.160E-03
DAV:   3    -0.343803324935E+02   -0.96352E-07   -0.58844E-07    48   0.676E-03    0.883E-04
DAV:   4    -0.343803325246E+02   -0.31080E-07   -0.16423E-07    48   0.316E-03    0.323E-04
DAV:   5    -0.343803325300E+02   -0.54338E-08   -0.68198E-08    48   0.153E-03    0.135E-04
DAV:   6    -0.343803325332E+02   -0.31279E-08   -0.41395E-08    48   0.867E-04
  93 F= -.34380333E+02 E0= -.34380333E+02  d E =-.299854E-03
       N       E                     dE             d eps       ncg     rms          rms(c)
DAV:   1    -0.343807453024E+02   -0.41277E-03   -0.20329E-04    96   0.133E-01    0.435E-03
DAV:   2    -0.343807450234E+02    0.27900E-06   -0.18173E-06    64   0.127E-02    0.238E-03
DAV:   3    -0.343807451191E+02   -0.95652E-07   -0.33262E-07    48   0.520E-03    0.106E-03
DAV:   4    -0.343807451647E+02   -0.45607E-07   -0.11753E-07    48   0.269E-03    0.284E-04
DAV:   5    -0.343807451714E+02   -0.66552E-08   -0.50742E-08    48   0.126E-03    0.112E-04
DAV:   6    -0.343807451797E+02   -0.82991E-08   -0.34456E-08    48   0.670E-04
  94 F= -.34380745E+02 E0= -.34380745E+02  d E =-.412646E-03
       N       E                     dE             d eps       ncg     rms          rms(c)
DAV:   1    -0.343812812100E+02   -0.53604E-03   -0.39039E-04    96   0.184E-01    0.594E-03
DAV:   2    -0.343812807452E+02    0.46484E-06   -0.33788E-06    64   0.174E-02    0.327E-03
DAV:   3    -0.343812809116E+02   -0.16642E-06   -0.58826E-07    48   0.708E-03    0.145E-03
DAV:   4    -0.343812809961E+02   -0.84483E-07   -0.19127E-07    48   0.365E-03    0.382E-04
DAV:   5    -0.343812810085E+02   -0.12439E-07   -0.67249E-08    48   0.170E-03    0.154E-04
DAV:   6    -0.343812810237E+02   -0.15170E-07   -0.37587E-08    48   0.895E-04
  95 F= -.34381281E+02 E0= -.34381281E+02  d E =-.535844E-03
       N       E                     dE             d eps       ncg     rms          rms(c)
DAV:   1    -0.343819299814E+02   -0.64897E-03   -0.66001E-04    96   0.239E-01    0.755E-03
DAV:   2    -0.343819293473E+02    0.63410E-06   -0.56990E-06    64   0.223E-02    0.418E-03
DAV:   3    -0.343819296240E+02   -0.27674E-06   -0.97041E-07    48   0.916E-03    0.175E-03
DAV:   4    -0.343819297486E+02   -0.12454E-06   -0.29252E-07    48   0.464E-03    0.499E-04
DAV:   5    -0.343819297716E+02   -0.23031E-07   -0.93564E-08    48   0.220E-03    0.195E-04
DAV:   6    -0.343819297961E+02   -0.24526E-07   -0.44383E-08    48   0.117E-03
  96 F= -.34381930E+02 E0= -.34381930E+02  d E =-.648772E-03
       N       E                     dE             d eps       ncg     rms          rms(c)
DAV:   1    -0.343826542088E+02   -0.72444E-03   -0.97948E-04    96   0.291E-01    0.905E-03
DAV:   2    -0.343826534364E+02    0.77236E-06   -0.84989E-06    64   0.271E-02    0.505E-03
DAV:   3    -0.343826538412E+02   -0.40474E-06   -0.14235E-06    48   0.111E-02    0.203E-03
DAV:   4    -0.343826540109E+02   -0.16978E-06   -0.41276E-07    48   0.558E-03    0.598E-04
DAV:   5    -0.343826540447E+02   -0.33780E-07   -0.12522E-07    48   0.266E-03    0.235E-04
DAV:   6    -0.343826540795E+02   -0.34819E-07   -0.53697E-08    48   0.142E-03
  97 F= -.34382654E+02 E0= -.34382654E+02  d E =-.724283E-03
       N       E                     dE             d eps       ncg     rms          rms(c)
DAV:   1    -0.343833630076E+02   -0.70896E-03   -0.12083E-03    96   0.323E-01    0.101E-02
DAV:   2    -0.343833620941E+02    0.91346E-06   -0.10361E-05    64   0.304E-02    0.564E-03
DAV:   3    -0.343833625358E+02   -0.44162E-06   -0.17021E-06    52   0.122E-02    0.247E-03
DAV:   4    -0.343833627809E+02   -0.24513E-06   -0.52525E-07    48   0.634E-03    0.607E-04
DAV:   5    -0.343833628162E+02   -0.35323E-07   -0.14862E-07    48   0.295E-03    0.266E-04
DAV:   6    -0.343833628605E+02   -0.44246E-07   -0.58925E-08    48   0.153E-03
  98 F= -.34383363E+02 E0= -.34383363E+02  d E =-.708781E-03
       N       E                     dE             d eps       ncg     rms          rms(c)
DAV:   1    -0.343833469061E+02    0.15910E-04   -0.45530E-07    48   0.626E-03    0.273E-04
DAV:   2    -0.343833469399E+02   -0.33814E-07   -0.43618E-08    48   0.158E-03    0.148E-04
DAV:   3    -0.343833469686E+02   -0.28729E-07   -0.23408E-08    48   0.554E-04    0.988E-05
DAV:   4    -0.343833470286E+02   -0.59952E-07   -0.23334E-08    48   0.362E-04    0.340E-05
DAV:   5    -0.343833470626E+02   -0.34086E-07   -0.22961E-08    48   0.199E-04    0.231E-05
DAV:   6    -0.343833471200E+02   -0.57375E-07   -0.25059E-08    48   0.134E-04
  99 F= -.34383347E+02 E0= -.34383347E+02  d E =0.157404E-04
       N       E                     dE             d eps       ncg     rms          rms(c)
DAV:   1    -0.343833173611E+02    0.29702E-04   -0.12552E-06    48   0.107E-02    0.427E-04
DAV:   2    -0.343833173771E+02   -0.15944E-07   -0.80479E-08    48   0.246E-03    0.237E-04
DAV:   3    -0.343833173901E+02   -0.13016E-07   -0.32764E-08    48   0.761E-04    0.149E-04
DAV:   4    -0.343833174159E+02   -0.25802E-07   -0.30690E-08    48   0.448E-04    0.453E-05
DAV:   5    -0.343833174282E+02   -0.12275E-07   -0.29378E-08    48   0.211E-04    0.296E-05
DAV:   6    -0.343833174438E+02   -0.15611E-07   -0.29419E-08    48   0.102E-04
 100 F= -.34383317E+02 E0= -.34383317E+02  d E =0.296762E-04
       N       E                     dE             d eps       ncg     rms          rms(c)
DAV:   1    -0.343832782420E+02    0.39186E-04   -0.18477E-06    48   0.131E-02    0.480E-04
DAV:   2    -0.343832782447E+02   -0.26625E-08   -0.10506E-07    48   0.295E-03    0.263E-04
DAV:   3    -0.343832782489E+02   -0.41739E-08   -0.38181E-08    48   0.913E-04    0.158E-04
DAV:   4    -0.343832782557E+02   -0.68134E-08   -0.32761E-08    48   0.455E-04    0.525E-05
DAV:   5    -0.343832782591E+02   -0.34265E-08   -0.31198E-08    48   0.222E-04    0.293E-05
DAV:   6    -0.343832782617E+02   -0.25616E-08   -0.30872E-08    48   0.115E-04
 101 F= -.34383278E+02 E0= -.34383278E+02  d E =0.391821E-04
       N       E                     dE             d eps       ncg     rms          rms(c)
DAV:   1    -0.343832385517E+02    0.39707E-04   -0.21755E-06    48   0.142E-02    0.466E-04
DAV:   2    -0.343832385533E+02   -0.16219E-08   -0.11457E-07    48   0.314E-03    0.252E-04
DAV:   3    -0.343832385563E+02   -0.29206E-08   -0.40937E-08    48   0.977E-04    0.119E-04
DAV:   4    -0.343832385582E+02   -0.19087E-08   -0.33637E-08    48   0.442E-04    0.394E-05
DAV:   5    -0.343832385589E+02   -0.71941E-09   -0.31956E-08    48   0.218E-04    0.208E-05
DAV:   6    -0.343832385589E+02   -0.17280E-10   -0.31501E-08    48   0.126E-04
 102 F= -.34383239E+02 E0= -.34383239E+02  d E =0.397028E-04
       N       E                     dE             d eps       ncg     rms          rms(c)
DAV:   1    -0.343832125412E+02    0.26018E-04   -0.24125E-06    48   0.150E-02    0.440E-04
DAV:   2    -0.343832125464E+02   -0.52910E-08   -0.12301E-07    48   0.328E-03    0.249E-04
DAV:   3    -0.343832125504E+02   -0.39304E-08   -0.42492E-08    48   0.102E-03    0.887E-05
DAV:   4    -0.343832125512E+02   -0.84015E-09   -0.34150E-08    48   0.450E-04    0.332E-05
DAV:   5    -0.343832125513E+02   -0.40473E-10   -0.32272E-08    48   0.220E-04    0.149E-05
DAV:   6    -0.343832125514E+02   -0.11914E-09   -0.31746E-08    48   0.126E-04
 103 F= -.34383213E+02 E0= -.34383213E+02  d E =0.260075E-04
       N       E                     dE             d eps       ncg     rms          rms(c)
DAV:   1    -0.343832183997E+02   -0.58484E-05   -0.24370E-06    48   0.150E-02    0.428E-04
DAV:   2    -0.343832184058E+02   -0.61837E-08   -0.12285E-07    48   0.325E-03    0.241E-04
DAV:   3    -0.343832184089E+02   -0.30332E-08   -0.42105E-08    48   0.101E-03    0.122E-04
DAV:   4    -0.343832184097E+02   -0.78262E-09   -0.34063E-08    48   0.451E-04    0.407E-05
DAV:   5    -0.343832184097E+02   -0.35016E-10   -0.32192E-08    48   0.215E-04    0.201E-05
DAV:   6    -0.343832184097E+02    0.15234E-10   -0.31660E-08    48   0.120E-04
 104 F= -.34383218E+02 E0= -.34383218E+02  d E =-.585831E-05
       N       E                     dE             d eps       ncg     rms          rms(c)
DAV:   1    -0.343832834967E+02   -0.65087E-04   -0.38540E-06    48   0.191E-02    0.611E-04
DAV:   2    -0.343832835017E+02   -0.49306E-08   -0.17950E-07    48   0.406E-03    0.307E-04
DAV:   3    -0.343832835049E+02   -0.31926E-08   -0.50243E-08    48   0.131E-03    0.172E-04
DAV:   4    -0.343832835054E+02   -0.58685E-09   -0.35347E-08    48   0.575E-04    0.622E-05
DAV:   5    -0.343832835055E+02   -0.32969E-10   -0.32191E-08    48   0.266E-04    0.222E-05
DAV:   6    -0.343832835061E+02   -0.61391E-09   -0.31329E-08    48   0.140E-04
 105 F= -.34383284E+02 E0= -.34383284E+02  d E =-.650964E-04
       N       E                     dE             d eps       ncg     rms          rms(c)
DAV:   1    -0.343834527989E+02   -0.16929E-03   -0.11147E-05    48   0.326E-02    0.119E-03
DAV:   2    -0.343834528011E+02   -0.21174E-08   -0.48260E-07    48   0.693E-03    0.574E-04
DAV:   3    -0.343834528111E+02   -0.10027E-07   -0.96315E-08    48   0.232E-03    0.303E-04
DAV:   4    -0.343834528129E+02   -0.18470E-08   -0.45981E-08    48   0.106E-03    0.126E-04
DAV:   5    -0.343834528137E+02   -0.79831E-09   -0.34733E-08    48   0.505E-04    0.446E-05
DAV:   6    -0.343834528146E+02   -0.85220E-09   -0.31736E-08    48   0.282E-04
 106 F= -.34383453E+02 E0= -.34383453E+02  d E =-.169308E-03
       N       E                     dE             d eps       ncg     rms          rms(c)
DAV:   1    -0.343837464409E+02   -0.29363E-03   -0.28227E-05    48   0.514E-02    0.199E-03
DAV:   2    -0.343837464388E+02    0.21066E-08   -0.11856E-06    48   0.110E-02    0.957E-04
DAV:   3    -0.343837464666E+02   -0.27791E-07   -0.20458E-07    48   0.373E-03    0.497E-04
DAV:   4    -0.343837464732E+02   -0.66145E-08   -0.72118E-08    48   0.173E-03    0.210E-04
DAV:   5    -0.343837464753E+02   -0.20671E-08   -0.41790E-08    48   0.830E-04    0.767E-05
DAV:   6    -0.343837464773E+02   -0.20495E-08   -0.33245E-08    48   0.476E-04
 107 F= -.34383746E+02 E0= -.34383746E+02  d E =-.293663E-03
       N       E                     dE             d eps       ncg     rms          rms(c)
DAV:   1    -0.343841827506E+02   -0.43628E-03   -0.58662E-05    48   0.736E-02    0.303E-03
DAV:   2    -0.343841827289E+02    0.21770E-07   -0.24183E-06    64   0.158E-02    0.143E-03
DAV:   3    -0.343841827887E+02   -0.59870E-07   -0.39066E-07    48   0.536E-03    0.786E-04
DAV:   4    -0.343841828075E+02   -0.18743E-07   -0.11652E-07    48   0.250E-03    0.303E-04
DAV:   5    -0.343841828109E+02   -0.34549E-08   -0.53933E-08    48   0.119E-03    0.119E-04
DAV:   6    -0.343841828151E+02   -0.41616E-08   -0.35913E-08    48   0.693E-04
 108 F= -.34384183E+02 E0= -.34384183E+02  d E =-.436338E-03
       N       E                     dE             d eps       ncg     rms          rms(c)
DAV:   1    -0.343847743210E+02   -0.59151E-03   -0.10822E-04    64   0.995E-02    0.423E-03
DAV:   2    -0.343847742688E+02    0.52129E-07   -0.44400E-06    64   0.216E-02    0.201E-03
DAV:   3    -0.343847743772E+02   -0.10839E-06   -0.68301E-07    48   0.728E-03    0.113E-03
DAV:   4    -0.343847744185E+02   -0.41280E-07   -0.18538E-07    48   0.339E-03    0.417E-04
DAV:   5    -0.343847744258E+02   -0.73275E-08   -0.72132E-08    48   0.162E-03    0.176E-04
DAV:   6    -0.343847744337E+02   -0.79187E-08   -0.39415E-08    48   0.928E-04
 109 F= -.34384774E+02 E0= -.34384774E+02  d E =-.591619E-03
       N       E                     dE             d eps       ncg     rms          rms(c)
DAV:   1    -0.343855237152E+02   -0.74929E-03   -0.18173E-04    96   0.126E-01    0.523E-03
DAV:   2    -0.343855231668E+02    0.54842E-06   -0.19666E-06    64   0.132E-02    0.266E-03
DAV:   3    -0.343855232585E+02   -0.91684E-07   -0.36531E-07    48   0.561E-03    0.125E-03
DAV:   4    -0.343855233158E+02   -0.57363E-07   -0.12485E-07    48   0.284E-03    0.361E-04
DAV:   5    -0.343855233277E+02   -0.11895E-07   -0.46765E-08    48   0.130E-03    0.150E-04
DAV:   6    -0.343855233461E+02   -0.18439E-07   -0.29145E-08    48   0.712E-04
 110 F= -.34385523E+02 E0= -.34385523E+02  d E =-.748912E-03
       N       E                     dE             d eps       ncg     rms          rms(c)
DAV:   1    -0.343863937872E+02   -0.87046E-03   -0.25824E-04    96   0.150E-01    0.605E-03
DAV:   2    -0.343863931142E+02    0.67302E-06   -0.27406E-06    64   0.152E-02    0.310E-03
DAV:   3    -0.343863932565E+02   -0.14230E-06   -0.48728E-07    48   0.660E-03    0.134E-03
DAV:   4    -0.343863933313E+02   -0.74759E-07   -0.15192E-07    48   0.324E-03    0.435E-04
DAV:   5    -0.343863933555E+02   -0.24206E-07   -0.54619E-08    48   0.153E-03    0.171E-04
DAV:   6    -0.343863933819E+02   -0.26479E-07   -0.29813E-08    48   0.836E-04
 111 F= -.34386393E+02 E0= -.34386393E+02  d E =-.870036E-03
       N       E                     dE             d eps       ncg     rms          rms(c)
DAV:   1    -0.343872697349E+02   -0.87638E-03   -0.29135E-04    96   0.159E-01    0.661E-03
DAV:   2    -0.343872689219E+02    0.81301E-06   -0.32013E-06    64   0.172E-02    0.341E-03
DAV:   3    -0.343872690619E+02   -0.14001E-06   -0.54363E-07    48   0.705E-03    0.166E-03
DAV:   4    -0.343872691795E+02   -0.11761E-06   -0.17398E-07    48   0.358E-03    0.469E-04
DAV:   5    -0.343872692041E+02   -0.24631E-07   -0.54234E-08    48   0.157E-03    0.216E-04
DAV:   6    -0.343872692387E+02   -0.34581E-07   -0.29174E-08    48   0.846E-04
 112 F= -.34387269E+02 E0= -.34387269E+02  d E =-.875857E-03
       N       E                     dE             d eps       ncg     rms          rms(c)
DAV:   1    -0.343872515544E+02    0.17650E-04   -0.38007E-07    48   0.557E-03    0.277E-04
DAV:   2    -0.343872515857E+02   -0.31255E-07   -0.35545E-08    48   0.135E-03    0.147E-04
DAV:   3    -0.343872516100E+02   -0.24262E-07   -0.20299E-08    48   0.454E-04    0.957E-05
DAV:   4    -0.343872516688E+02   -0.58852E-07   -0.21298E-08    48   0.365E-04    0.343E-05
DAV:   5    -0.343872516903E+02   -0.21502E-07   -0.20407E-08    48   0.179E-04    0.230E-05
DAV:   6    -0.343872517369E+02   -0.46634E-07   -0.22130E-08    48   0.105E-04
 113 F= -.34387252E+02 E0= -.34387252E+02  d E =0.175018E-04
       N       E                     dE             d eps       ncg     rms          rms(c)
DAV:   1    -0.343872213069E+02    0.30383E-04   -0.90915E-07    48   0.880E-03    0.435E-04
DAV:   2    -0.343872213206E+02   -0.13627E-07   -0.63380E-08    48   0.206E-03    0.224E-04
DAV:   3    -0.343872213305E+02   -0.99885E-08   -0.28868E-08    48   0.652E-04    0.139E-04
DAV:   4    -0.343872213547E+02   -0.24164E-07   -0.28915E-08    48   0.472E-04    0.437E-05
DAV:   5    -0.343872213636E+02   -0.89320E-08   -0.27258E-08    48   0.207E-04    0.292E-05
DAV:   6    -0.343872213786E+02   -0.14932E-07   -0.27744E-08    48   0.922E-05
 114 F= -.34387221E+02 E0= -.34387221E+02  d E =0.303584E-04
       N       E                     dE             d eps       ncg     rms          rms(c)
DAV:   1    -0.343871868329E+02    0.34531E-04   -0.82480E-07    48   0.849E-03    0.374E-04
DAV:   2    -0.343871868341E+02   -0.11611E-08   -0.61346E-08    48   0.189E-03    0.191E-04
DAV:   3    -0.343871868360E+02   -0.19352E-08   -0.32325E-08    48   0.605E-04    0.122E-04
DAV:   4    -0.343871868411E+02   -0.50834E-08   -0.30567E-08    48   0.361E-04    0.357E-05
DAV:   5    -0.343871868440E+02   -0.29429E-08   -0.29609E-08    48   0.160E-04    0.219E-05
DAV:   6    -0.343871868467E+02   -0.26416E-08   -0.29765E-08    48   0.722E-05
 115 F= -.34387187E+02 E0= -.34387187E+02  d E =0.345319E-04
       N       E                     dE             d eps       ncg     rms          rms(c)
DAV:   1    -0.343871880240E+02   -0.11800E-05   -0.41034E-08    48   0.992E-04    0.430E-05
DAV:   2    -0.343871880247E+02   -0.63756E-09   -0.30500E-08    48   0.236E-04    0.239E-05
DAV:   3    -0.343871880252E+02   -0.57344E-09   -0.30184E-08    48   0.735E-05    0.148E-05
DAV:   4    -0.343871880256E+02   -0.37539E-09   -0.30377E-08    48   0.529E-05    0.458E-06
DAV:   5    -0.343871880256E+02    0.52978E-10   -0.30409E-08    48   0.239E-05    0.319E-06
DAV:   6    -0.343871880255E+02    0.93678E-10   -0.30525E-08    48   0.107E-05
 116 F= -.34387188E+02 E0= -.34387188E+02  d E =-.117879E-05
       N       E                     dE             d eps       ncg     rms          rms(c)
DAV:   1    -0.343871935586E+02   -0.55330E-05   -0.78043E-08    48   0.206E-03    0.875E-05
DAV:   2    -0.343871935591E+02   -0.53001E-09   -0.32729E-08    48   0.486E-04    0.486E-05
DAV:   3    -0.343871935596E+02   -0.43769E-09   -0.30894E-08    48   0.151E-04    0.312E-05
DAV:   4    -0.343871935595E+02    0.70486E-10   -0.30852E-08    48   0.979E-05    0.917E-06
DAV:   5    -0.343871935594E+02    0.10414E-09   -0.30826E-08    48   0.443E-05    0.640E-06
DAV:   6    -0.343871935592E+02    0.15052E-09   -0.30855E-08    48   0.189E-05
 117 F= -.34387194E+02 E0= -.34387194E+02  d E =-.553378E-05
       N       E                     dE             d eps       ncg     rms          rms(c)
DAV:   1    -0.343872073773E+02   -0.13818E-04   -0.16275E-07    48   0.346E-03    0.143E-04
DAV:   2    -0.343872073781E+02   -0.77512E-09   -0.36475E-08    48   0.799E-04    0.761E-05
DAV:   3    -0.343872073783E+02   -0.22010E-09   -0.31511E-08    48   0.252E-04    0.487E-05
DAV:   4    -0.343872073782E+02    0.15257E-09   -0.31050E-08    48   0.133E-04    0.160E-05
DAV:   5    -0.343872073782E+02   -0.13870E-10   -0.30937E-08    48   0.645E-05    0.912E-06
DAV:   6    -0.343872073779E+02    0.28558E-09   -0.30856E-08    48   0.306E-05
 118 F= -.34387207E+02 E0= -.34387207E+02  d E =-.138187E-04
       N       E                     dE             d eps       ncg     rms          rms(c)
DAV:   1    -0.343872340178E+02   -0.26640E-04   -0.36586E-07    48   0.552E-03    0.227E-04
DAV:   2    -0.343872340180E+02   -0.24897E-09   -0.44781E-08    48   0.125E-03    0.114E-04
DAV:   3    -0.343872340186E+02   -0.57207E-09   -0.32643E-08    48   0.402E-04    0.688E-05
DAV:   4    -0.343872340187E+02   -0.91177E-10   -0.31240E-08    48   0.191E-04    0.245E-05
DAV:   5    -0.343872340183E+02    0.39313E-09   -0.30877E-08    48   0.941E-05    0.120E-05
DAV:   6    -0.343872340183E+02   -0.28876E-10   -0.30791E-08    48   0.498E-05
 119 F= -.34387234E+02 E0= -.34387234E+02  d E =-.266404E-04
       N       E                     dE             d eps       ncg     rms          rms(c)
DAV:   1    -0.343872781776E+02   -0.44159E-04   -0.81316E-07    48   0.845E-03    0.342E-04
DAV:   2    -0.343872781772E+02    0.38267E-09   -0.63007E-08    48   0.188E-03    0.167E-04
DAV:   3    -0.343872781781E+02   -0.84901E-09   -0.35162E-08    48   0.613E-04    0.951E-05
DAV:   4    -0.343872781781E+02   -0.23192E-10   -0.31733E-08    48   0.285E-04    0.345E-05
DAV:   5    -0.343872781776E+02    0.48431E-09   -0.30930E-08    48   0.138E-04    0.158E-05
DAV:   6    -0.343872781778E+02   -0.20509E-09   -0.30723E-08    48   0.784E-05
 120 F= -.34387278E+02 E0= -.34387278E+02  d E =-.441595E-04
       N       E                     dE             d eps       ncg     rms          rms(c)
DAV:   1    -0.343873392237E+02   -0.61046E-04   -0.14762E-06    48   0.115E-02    0.457E-04
DAV:   2    -0.343873392228E+02    0.93598E-09   -0.90219E-08    48   0.254E-03    0.221E-04
DAV:   3    -0.343873392240E+02   -0.12584E-08   -0.39045E-08    48   0.835E-04    0.122E-04
DAV:   4    -0.343873392240E+02    0.15916E-11   -0.32574E-08    48   0.387E-04    0.456E-05
DAV:   5    -0.343873392240E+02    0.83901E-10   -0.31083E-08    48   0.188E-04    0.199E-05
DAV:   6    -0.343873392243E+02   -0.30332E-09   -0.30653E-08    48   0.109E-04
 121 F= -.34387339E+02 E0= -.34387339E+02  d E =-.610465E-04
       N       E                     dE             d eps       ncg     rms          rms(c)
DAV:   1    -0.343874256862E+02   -0.86462E-04   -0.29661E-06    48   0.164E-02    0.639E-04
DAV:   2    -0.343874256850E+02    0.12815E-08   -0.15189E-07    48   0.361E-03    0.310E-04
DAV:   3    -0.343874256881E+02   -0.31171E-08   -0.47834E-08    48   0.119E-03    0.167E-04
DAV:   4    -0.343874256883E+02   -0.20532E-09   -0.34534E-08    48   0.552E-04    0.643E-05
DAV:   5    -0.343874256883E+02   -0.70031E-10   -0.31520E-08    48   0.268E-04    0.272E-05
DAV:   6    -0.343874256887E+02   -0.33720E-09   -0.30679E-08    48   0.157E-04
 122 F= -.34387426E+02 E0= -.34387426E+02  d E =-.864644E-04
       N       E                     dE             d eps       ncg     rms          rms(c)
DAV:   1    -0.343875423288E+02   -0.11664E-03   -0.56018E-06    48   0.226E-02    0.864E-04
DAV:   2    -0.343875423279E+02    0.84822E-09   -0.26194E-07    48   0.499E-03    0.421E-04
DAV:   3    -0.343875423339E+02   -0.59808E-08   -0.63435E-08    48   0.164E-03    0.225E-04
DAV:   4    -0.343875423350E+02   -0.10757E-08   -0.38145E-08    48   0.764E-04    0.882E-05
DAV:   5    -0.343875423355E+02   -0.54547E-09   -0.32433E-08    48   0.370E-04    0.366E-05
DAV:   6    -0.343875423361E+02   -0.60754E-09   -0.30753E-08    48   0.216E-04
 123 F= -.34387542E+02 E0= -.34387542E+02  d E =-.116647E-03
       N       E                     dE             d eps       ncg     rms          rms(c)
DAV:   1    -0.343876937425E+02   -0.15141E-03   -0.10108E-05    48   0.304E-02    0.114E-03
DAV:   2    -0.343876937450E+02   -0.25171E-08   -0.45158E-07    48   0.673E-03    0.558E-04
DAV:   3    -0.343876937557E+02   -0.10669E-07   -0.89895E-08    48   0.221E-03    0.300E-04
DAV:   4    -0.343876937584E+02   -0.26541E-08   -0.44323E-08    48   0.103E-03    0.118E-04
DAV:   5    -0.343876937592E+02   -0.81127E-09   -0.34040E-08    48   0.499E-04    0.484E-05
DAV:   6    -0.343876937602E+02   -0.10532E-08   -0.31101E-08    48   0.290E-04
 124 F= -.34387694E+02 E0= -.34387694E+02  d E =-.151424E-03
       N       E                     dE             d eps       ncg     rms          rms(c)
DAV:   1    -0.343878839348E+02   -0.19018E-03   -0.17716E-05    48   0.403E-02    0.147E-03
DAV:   2    -0.343878839461E+02   -0.11261E-07   -0.77438E-07    48   0.895E-03    0.727E-04
DAV:   3    -0.343878839646E+02   -0.18521E-07   -0.13423E-07    48   0.293E-03    0.397E-04
DAV:   4    -0.343878839698E+02   -0.51871E-08   -0.54783E-08    48   0.137E-03    0.154E-04
DAV:   5    -0.343878839714E+02   -0.16416E-08   -0.36847E-08    48   0.661E-04    0.634E-05
DAV:   6    -0.343878839731E+02   -0.17315E-08   -0.31715E-08    48   0.381E-04
 125 F= -.34387884E+02 E0= -.34387884E+02  d E =-.190213E-03
       N       E                     dE             d eps       ncg     rms          rms(c)
DAV:   1    -0.343881159202E+02   -0.23195E-03   -0.30709E-05    48   0.529E-02    0.189E-03
DAV:   2    -0.343881159522E+02   -0.31975E-07   -0.13300E-06    48   0.118E-02    0.939E-04
DAV:   3    -0.343881159838E+02   -0.31588E-07   -0.20883E-07    48   0.386E-03    0.523E-04
DAV:   4    -0.343881159935E+02   -0.97525E-08   -0.72245E-08    48   0.180E-03    0.199E-04
DAV:   5    -0.343881159962E+02   -0.26678E-08   -0.41624E-08    48   0.869E-04    0.828E-05
DAV:   6    -0.343881159989E+02   -0.26967E-08   -0.33041E-08    48   0.495E-04
 126 F= -.34388116E+02 E0= -.34388116E+02  d E =-.232026E-03
       N       E                     dE             d eps       ncg     rms          rms(c)
DAV:   1    -0.343883901916E+02   -0.27420E-03   -0.53150E-05    48   0.695E-02    0.238E-03
DAV:   2    -0.343883902713E+02   -0.79734E-07   -0.23000E-06    48   0.156E-02    0.121E-03
DAV:   3    -0.343883903240E+02   -0.52674E-07   -0.33627E-07    48   0.506E-03    0.678E-04
DAV:   4    -0.343883903412E+02   -0.17236E-07   -0.10247E-07    48   0.236E-03    0.252E-04
DAV:   5    -0.343883903457E+02   -0.44508E-08   -0.50070E-08    48   0.114E-03    0.107E-04
DAV:   6    -0.343883903496E+02   -0.39392E-08   -0.35495E-08    48   0.644E-04
 127 F= -.34388390E+02 E0= -.34388390E+02  d E =-.274351E-03
       N       E                     dE             d eps       ncg     rms          rms(c)
DAV:   1    -0.343887059262E+02   -0.31558E-03   -0.92788E-05    64   0.914E-02    0.302E-03
DAV:   2    -0.343887061049E+02   -0.17874E-06   -0.40252E-06    48   0.207E-02    0.156E-03
DAV:   3    -0.343887061927E+02   -0.87756E-07   -0.55827E-07    48   0.665E-03    0.883E-04
DAV:   4    -0.343887062225E+02   -0.29788E-07   -0.15560E-07    48   0.310E-03    0.315E-04
DAV:   5    -0.343887062293E+02   -0.67848E-08   -0.65187E-08    48   0.150E-03    0.141E-04
DAV:   6    -0.343887062350E+02   -0.56885E-08   -0.40038E-08    48   0.842E-04
 128 F= -.34388706E+02 E0= -.34388706E+02  d E =-.315885E-03
       N       E                     dE             d eps       ncg     rms          rms(c)
DAV:   1    -0.343890597661E+02   -0.35354E-03   -0.15879E-04    96   0.117E-01    0.372E-03
DAV:   2    -0.343890595820E+02    0.18412E-06   -0.14740E-06    64   0.114E-02    0.205E-03
DAV:   3    -0.343890596526E+02   -0.70626E-07   -0.25807E-07    48   0.461E-03    0.903E-04
DAV:   4    -0.343890596864E+02   -0.33781E-07   -0.95916E-08    48   0.235E-03    0.247E-04
DAV:   5    -0.343890596939E+02   -0.74655E-08   -0.45831E-08    48   0.111E-03    0.105E-04
DAV:   6    -0.343890597035E+02   -0.96484E-08   -0.33519E-08    48   0.592E-04
 129 F= -.34389060E+02 E0= -.34389060E+02  d E =-.353469E-03
       N       E                     dE             d eps       ncg     rms          rms(c)
DAV:   1    -0.343894405031E+02   -0.38081E-03   -0.24689E-04    96   0.145E-01    0.446E-03
DAV:   2    -0.343894402896E+02    0.21349E-06   -0.22363E-06    64   0.138E-02    0.250E-03
DAV:   3    -0.343894404006E+02   -0.11098E-06   -0.37424E-07    48   0.565E-03    0.989E-04
DAV:   4    -0.343894404422E+02   -0.41646E-07   -0.12456E-07    48   0.280E-03    0.301E-04
DAV:   5    -0.343894404553E+02   -0.13039E-07   -0.53518E-08    48   0.133E-03    0.127E-04
DAV:   6    -0.343894404691E+02   -0.13781E-07   -0.35791E-08    48   0.726E-04
 130 F= -.34389440E+02 E0= -.34389440E+02  d E =-.380766E-03
       N       E                     dE             d eps       ncg     rms          rms(c)
DAV:   1    -0.343898323365E+02   -0.39188E-03   -0.35946E-04    96   0.175E-01    0.524E-03
DAV:   2    -0.343898320946E+02    0.24183E-06   -0.32277E-06    64   0.165E-02    0.297E-03
DAV:   3    -0.343898322537E+02   -0.15906E-06   -0.52972E-07    48   0.677E-03    0.110E-03
DAV:   4    -0.343898323067E+02   -0.52964E-07   -0.16602E-07    48   0.332E-03    0.356E-04
DAV:   5    -0.343898323235E+02   -0.16815E-07   -0.64733E-08    48   0.159E-03    0.156E-04
DAV:   6    -0.343898323413E+02   -0.17881E-07   -0.39374E-08    48   0.876E-04
 131 F= -.34389832E+02 E0= -.34389832E+02  d E =-.391872E-03
       N       E                     dE             d eps       ncg     rms          rms(c)
DAV:   1    -0.343902084956E+02   -0.37617E-03   -0.48064E-04    96   0.201E-01    0.597E-03
DAV:   2    -0.343902082232E+02    0.27242E-06   -0.42669E-06    64   0.189E-02    0.341E-03
DAV:   3    -0.343902084198E+02   -0.19661E-06   -0.68360E-07    48   0.771E-03    0.132E-03
DAV:   4    -0.343902084937E+02   -0.73946E-07   -0.21484E-07    48   0.384E-03    0.401E-04
DAV:   5    -0.343902085120E+02   -0.18306E-07   -0.77315E-08    48   0.182E-03    0.187E-04
DAV:   6    -0.343902085326E+02   -0.20552E-07   -0.43200E-08    48   0.989E-04
 132 F= -.34390209E+02 E0= -.34390209E+02  d E =-.376191E-03
       N       E                     dE             d eps       ncg     rms          rms(c)
DAV:   1    -0.343905221864E+02   -0.31367E-03   -0.59564E-04    96   0.223E-01    0.654E-03
DAV:   2    -0.343905219170E+02    0.26940E-06   -0.52909E-06    64   0.209E-02    0.376E-03
DAV:   3    -0.343905221449E+02   -0.22787E-06   -0.84168E-07    48   0.857E-03    0.147E-03
DAV:   4    -0.343905222353E+02   -0.90476E-07   -0.26506E-07    48   0.431E-03    0.457E-04
DAV:   5    -0.343905222546E+02   -0.19297E-07   -0.90040E-08    48   0.203E-03    0.223E-04
DAV:   6    -0.343905222779E+02   -0.23224E-07   -0.47587E-08    48   0.110E-03
 133 F= -.34390522E+02 E0= -.34390522E+02  d E =-.313745E-03
       N       E                     dE             d eps       ncg     rms          rms(c)
DAV:   1    -0.343905140723E+02    0.81823E-05   -0.21651E-07    48   0.406E-03    0.187E-04
DAV:   2    -0.343905140867E+02   -0.14368E-07   -0.39544E-08    48   0.107E-03    0.100E-04
DAV:   3    -0.343905140980E+02   -0.11270E-07   -0.30149E-08    48   0.386E-04    0.645E-05
DAV:   4    -0.343905141243E+02   -0.26298E-07   -0.30106E-08    48   0.269E-04    0.216E-05
DAV:   5    -0.343905141362E+02   -0.11948E-07   -0.29675E-08    48   0.141E-04    0.152E-05
DAV:   6    -0.343905141577E+02   -0.21524E-07   -0.30113E-08    48   0.845E-05
 134 F= -.34390514E+02 E0= -.34390514E+02  d E =0.812011E-05
       N       E                     dE             d eps       ncg     rms          rms(c)
DAV:   1    -0.343905022567E+02    0.11880E-04   -0.58484E-07    48   0.702E-03    0.318E-04
DAV:   2    -0.343905022620E+02   -0.53283E-08   -0.55895E-08    48   0.167E-03    0.174E-04
DAV:   3    -0.343905022659E+02   -0.38991E-08   -0.32817E-08    48   0.513E-04    0.107E-04
DAV:   4    -0.343905022762E+02   -0.10245E-07   -0.32158E-08    48   0.380E-04    0.329E-05
DAV:   5    -0.343905022798E+02   -0.36202E-08   -0.30982E-08    48   0.168E-04    0.230E-05
DAV:   6    -0.343905022850E+02   -0.51851E-08   -0.30847E-08    48   0.745E-05
 135 F= -.34390502E+02 E0= -.34390502E+02  d E =0.118728E-04
