 vasp.5.4.1 24Jun15 (build Jan 13 2020 12:58:22) complex                        
  
 executed on           IFC91_ompi date 2020.02.03  09:53:44
 running on   15 total cores
 each image running on    1 cores
 distrk:  each k-point on    1 cores,    1 groups
 distr:  one band on NCORES_PER_BAND=   1 cores,    1 groups


--------------------------------------------------------------------------------------------------------


 INCAR:
 POTCAR:    PAW_PBE H 15Jun2001                   
 POTCAR:    PAW_PBE C 08Apr2002                   
 POTCAR:    PAW_PBE N 08Apr2002                   
 POTCAR:    PAW_PBE H 15Jun2001                   
   VRHFIN =H: ultrasoft test                                                    
   LEXCH  = PE                                                                  
   EATOM  =    12.4884 eV,    0.9179 Ry                                         
                                                                                
   TITEL  = PAW_PBE H 15Jun2001                                                 
   LULTRA =        F    use ultrasoft PP ?                                      
   IUNSCR =        0    unscreen: 0-lin 1-nonlin 2-no                           
   RPACOR =    0.000    partial core radius                                     
   POMASS =    1.000; ZVAL   =    1.000    mass and valenz                      
   RCORE  =    1.100    outmost cutoff radius                                   
   RWIGS  =    0.700; RWIGS  =    0.370    wigner-seitz radius (au A)           
   ENMAX  =  250.000; ENMIN  =  200.000 eV                                      
   RCLOC  =    0.701    cutoff for local pot                                    
   LCOR   =        T    correct aug charges                                     
   LPAW   =        T    paw PP                                                  
   EAUG   =  400.000                                                            
   RMAX   =    1.123    core radius for proj-oper                               
   RAUG   =    1.200    factor for augmentation sphere                          
   RDEP   =    1.112    radius for radial grids                                 
   RDEPT  =    0.926    core radius for aug-charge                              
                                                                                
   Atomic configuration                                                         
    2 entries                                                                   
     n  l   j            E        occ.                                          
     1  0  0.50        -6.4927   1.0000                                         
     2  1  0.50        -3.4015   0.0000                                         
   Description                                                                  
     l       E           TYP  RCUT    TYP  RCUT                                 
     0     -6.4927494     23  1.100                                             
     0      6.8029130     23  1.100                                             
     1     -4.0817478     23  1.100                                             
  local pseudopotential read in
  atomic valenz-charges read in
  non local Contribution for L=           0  read in
    real space projection operators read in
  non local Contribution for L=           0  read in
    real space projection operators read in
  non local Contribution for L=           1  read in
    real space projection operators read in
    PAW grid and wavefunctions read in
 
   number of l-projection  operators is LMAX  =           3
   number of lm-projection operators is LMMAX =           5
 
 POTCAR:    PAW_PBE C 08Apr2002                   
   VRHFIN =C: s2p2                                                              
   LEXCH  = PE                                                                  
   EATOM  =   147.1560 eV,   10.8157 Ry                                         
                                                                                
   TITEL  = PAW_PBE C 08Apr2002                                                 
   LULTRA =        F    use ultrasoft PP ?                                      
   IUNSCR =        1    unscreen: 0-lin 1-nonlin 2-no                           
   RPACOR =    1.200    partial core radius                                     
   POMASS =   12.011; ZVAL   =    4.000    mass and valenz                      
   RCORE  =    1.500    outmost cutoff radius                                   
   RWIGS  =    1.630; RWIGS  =    0.863    wigner-seitz radius (au A)           
   ENMAX  =  400.000; ENMIN  =  300.000 eV                                      
   ICORE  =        2    local potential                                         
   LCOR   =        T    correct aug charges                                     
   LPAW   =        T    paw PP                                                  
   EAUG   =  644.873                                                            
   DEXC   =    0.000                                                            
   RMAX   =    1.529    core radius for proj-oper                               
   RAUG   =    1.300    factor for augmentation sphere                          
   RDEP   =    1.501    radius for radial grids                                 
   RDEPT  =    1.300    core radius for aug-charge                              
                                                                                
   Atomic configuration                                                         
    4 entries                                                                   
     n  l   j            E        occ.                                          
     1  0  0.50      -273.3789   2.0000                                         
     2  0  0.50       -13.7508   2.0000                                         
     2  1  0.50        -5.2854   2.0000                                         
     3  2  1.50        -5.4423   0.0000                                         
   Description                                                                  
     l       E           TYP  RCUT    TYP  RCUT                                 
     0    -13.7508458     23  1.200                                             
     0     -8.2022199     23  1.200                                             
     1     -5.2854383     23  1.500                                             
     1     34.0145650     23  1.500                                             
     2     -5.4423304      7  1.500                                             
  local pseudopotential read in
  partial core-charges read in
  partial kinetic energy density read in
  atomic valenz-charges read in
  non local Contribution for L=           0  read in
    real space projection operators read in
  non local Contribution for L=           0  read in
    real space projection operators read in
  non local Contribution for L=           1  read in
    real space projection operators read in
  non local Contribution for L=           1  read in
    real space projection operators read in
    PAW grid and wavefunctions read in
 
   number of l-projection  operators is LMAX  =           4
   number of lm-projection operators is LMMAX =           8
 
 POTCAR:    PAW_PBE N 08Apr2002                   
   VRHFIN =N: s2p3                                                              
   LEXCH  = PE                                                                  
   EATOM  =   264.5486 eV,   19.4438 Ry                                         
                                                                                
   TITEL  = PAW_PBE N 08Apr2002                                                 
   LULTRA =        F    use ultrasoft PP ?                                      
   IUNSCR =        1    unscreen: 0-lin 1-nonlin 2-no                           
   RPACOR =    1.200    partial core radius                                     
   POMASS =   14.001; ZVAL   =    5.000    mass and valenz                      
   RCORE  =    1.500    outmost cutoff radius                                   
   RWIGS  =    1.400; RWIGS  =    0.741    wigner-seitz radius (au A)           
   ENMAX  =  400.000; ENMIN  =  300.000 eV                                      
   ICORE  =        2    local potential                                         
   LCOR   =        T    correct aug charges                                     
   LPAW   =        T    paw PP                                                  
   EAUG   =  627.112                                                            
   DEXC   =    0.000                                                            
   RMAX   =    1.529    core radius for proj-oper                               
   RAUG   =    1.300    factor for augmentation sphere                          
   RDEP   =    1.514    radius for radial grids                                 
   RDEPT  =    1.338    core radius for aug-charge                              
                                                                                
   Atomic configuration                                                         
    4 entries                                                                   
     n  l   j            E        occ.                                          
     1  0  0.50      -384.7179   2.0000                                         
     2  0  0.50       -18.5828   2.0000                                         
     2  1  0.50        -7.0898   3.0000                                         
     3  2  1.50        -6.8029   0.0000                                         
   Description                                                                  
     l       E           TYP  RCUT    TYP  RCUT                                 
     0    -18.5828119     23  1.200                                             
     0    -13.5018863     23  1.200                                             
     1     -7.0897853     23  1.500                                             
     1      9.5240782     23  1.500                                             
     2     -6.8029130      7  1.500                                             
  local pseudopotential read in
  partial core-charges read in
  partial kinetic energy density read in
  atomic valenz-charges read in
  non local Contribution for L=           0  read in
    real space projection operators read in
  non local Contribution for L=           0  read in
    real space projection operators read in
  non local Contribution for L=           1  read in
    real space projection operators read in
  non local Contribution for L=           1  read in
    real space projection operators read in
    PAW grid and wavefunctions read in
 
   number of l-projection  operators is LMAX  =           4
   number of lm-projection operators is LMMAX =           8
 

 ----------------------------------------------------------------------------- 
|                                                                             |
|  ADVICE TO THIS USER RUNNING 'VASP/VAMP'   (HEAR YOUR MASTER'S VOICE ...):  |
|                                                                             |
|      You have a (more or less) 'small supercell' and for smaller cells      |
|      it is recommended  to use the reciprocal-space projection scheme!      |
|      The real space optimization is not  efficient for small cells and it   |
|      is also less accurate ...                                              |
|      Therefore set LREAL=.FALSE. in the  INCAR file                         |
|                                                                             |
 ----------------------------------------------------------------------------- 

 Optimization of the real space projectors (new method)

 maximal supplied QI-value         = 34.20
 optimisation between [QCUT,QGAM] = [  9.92, 20.18] = [ 27.55,114.04] Ry 
 Optimized for a Real-space Cutoff    1.26 Angstroem

   l    n(q)    QCUT    max X(q) W(low)/X(q) W(high)/X(q)  e(spline) 
   0      8     9.919    19.460    0.50E-03    0.23E-03    0.29E-06
   0      8     9.919    12.209    0.48E-03    0.23E-03    0.28E-06
   1      7     9.919     4.655    0.17E-03    0.75E-03    0.30E-06
 Optimization of the real space projectors (new method)

 maximal supplied QI-value         = 25.13
 optimisation between [QCUT,QGAM] = [ 10.05, 20.36] = [ 28.30,116.06] Ry 
 Optimized for a Real-space Cutoff    1.30 Angstroem

   l    n(q)    QCUT    max X(q) W(low)/X(q) W(high)/X(q)  e(spline) 
   0      8    10.053   115.676    0.49E-03    0.72E-03    0.18E-06
   0      8    10.053    87.132    0.49E-03    0.71E-03    0.18E-06
   1      7    10.053     4.429    0.32E-03    0.31E-03    0.18E-06
   1      7    10.053     2.733    0.23E-03    0.19E-03    0.20E-06
 Optimization of the real space projectors (new method)

 maximal supplied QI-value         = 25.13
 optimisation between [QCUT,QGAM] = [ 10.05, 20.36] = [ 28.30,116.06] Ry 
 Optimized for a Real-space Cutoff    1.65 Angstroem

   l    n(q)    QCUT    max X(q) W(low)/X(q) W(high)/X(q)  e(spline) 
   0     10    10.053    79.467    0.76E-04    0.72E-04    0.56E-06
   0     10    10.053    66.151    0.76E-04    0.72E-04    0.55E-06
   1     10    10.053     8.350    0.25E-03    0.92E-03    0.41E-05
   1     10    10.053     5.531    0.27E-03    0.10E-02    0.45E-05
  PAW_PBE H 15Jun2001                   :
 energy of atom  1       EATOM=  -12.4884
 kinetic energy error for atom=    0.0098 (will be added to EATOM!!)
  PAW_PBE C 08Apr2002                   :
 energy of atom  2       EATOM= -147.1560
 kinetic energy error for atom=    0.0288 (will be added to EATOM!!)
  PAW_PBE N 08Apr2002                   :
 energy of atom  3       EATOM= -264.5486
 kinetic energy error for atom=    0.0736 (will be added to EATOM!!)
 
 
 POSCAR: H3 C2 N1                                
  positions in direct lattice
  velocities in cartesian coordinates
 exchange correlation table for  LEXCH =        8
   RHO(1)=    0.500       N(1)  =     2000
   RHO(2)=  100.500       N(2)  =     4000

 VTST: version 3.2, (02/03/18)

 CHAIN: initializing optimizer
 
 OPT: Using FIRE optimizer
 OPT: FIRE, Init
 OPT: FIRE, MAXMOVE       0.20000
 OPT: FIRE, TIMESTEP      0.10000
 OPT: FIRE, FTIMEMAX      1.00000
 OPT: FIRE, FTIMEINC      1.10000
 OPT: FIRE, FTIMEDEC      0.50000
 OPT: FIRE, FALPHADEC     0.99000
 OPT: FIRE, FALPHA        0.10000
 OPT: FIRE, FNMIN         5
 
 CHAIN: Read ICHAIN            0
 CHAIN: Running the NEB
 NEB:          SPRING     -5.000000
 NEB:          LCLIMB      T
 NEB:     LTANGENTOLD      F
 NEB:           LDNEB      F
 NEB:        LDNEBORG      F
 NEB:        LNEBCELL      F
 NEB:          EFIRST      0.000000
 NEB:           ELAST      0.000000
 
 POSCAR: H3 C2 N1                                
  positions in direct lattice
  No initial velocities read in
 
 POSCAR: H3 C2 N1                                
  positions in direct lattice
  No initial velocities read in
 


--------------------------------------------------------------------------------------------------------


 ion  position               nearest neighbor table
   1  0.478  0.462  0.499-   4 1.09
   2  0.468  0.518  0.476-   4 1.09
   3  0.480  0.511  0.534-   4 1.11
   4  0.486  0.498  0.500-   1 1.09   2 1.09   3 1.11   5 1.65
   5  0.537  0.498  0.479-   6 1.19   4 1.65
   6  0.550  0.514  0.513-   5 1.19
 
  LATTYP: Found a simple cubic cell.
 ALAT       =    30.0000000000
  
  Lattice vectors:
  
 A1 = (  30.0000000000,   0.0000000000,   0.0000000000)
 A2 = (   0.0000000000,  30.0000000000,   0.0000000000)
 A3 = (   0.0000000000,   0.0000000000,  30.0000000000)


Analysis of symmetry for initial positions (statically):
=====================================================================
 Subroutine PRICEL returns:
 Original cell was already a primitive cell.
 

 Routine SETGRP: Setting up the symmetry group for a 
 simple cubic supercell.


 Subroutine GETGRP returns: Found  1 space group operations
 (whereof  1 operations were pure point group operations)
 out of a pool of 48 trial point group operations.


The static configuration has the point symmetry C_1 .


Analysis of symmetry for dynamics (positions and initial velocities):
=====================================================================
 Subroutine PRICEL returns:
 Original cell was already a primitive cell.
 

 Routine SETGRP: Setting up the symmetry group for a 
 simple cubic supercell.


 Subroutine GETGRP returns: Found  1 space group operations
 (whereof  1 operations were pure point group operations)
 out of a pool of 48 trial point group operations.


The dynamic configuration has the point symmetry C_1 .
 
 
 KPOINTS: Mo2C                                    

Automatic generation of k-mesh.
Space group operators:
 irot       det(A)        alpha          n_x          n_y          n_z        tau_x        tau_y        tau_z
    1     1.000000     0.000000     1.000000     0.000000     0.000000     0.000000     0.000000     0.000000
 
 Subroutine IBZKPT returns following result:
 ===========================================
 
 Found      4 irreducible k-points:
 
 Following reciprocal coordinates:
            Coordinates               Weight
  0.250000  0.250000  0.250000      2.000000
 -0.250000  0.250000  0.250000      2.000000
  0.250000 -0.250000  0.250000      2.000000
 -0.250000 -0.250000  0.250000      2.000000
 
 Following cartesian coordinates:
            Coordinates               Weight
  0.008333  0.008333  0.008333      2.000000
 -0.008333  0.008333  0.008333      2.000000
  0.008333 -0.008333  0.008333      2.000000
 -0.008333 -0.008333  0.008333      2.000000
 


--------------------------------------------------------------------------------------------------------




 Dimension of arrays:
   k-points           NKPTS =      4   k-points in BZ     NKDIM =      4   number of bands    NBANDS=     12
   number of dos      NEDOS =    301   number of ions     NIONS =      6
   non local maximal  LDIM  =      4   non local SUM 2l+1 LMDIM =      8
   total plane-waves  NPLWV = ******
   max r-space proj   IRMAX =   2395   max aug-charges    IRDMAX=   1738
   dimension x,y,z NGX =   150 NGY =  150 NGZ =  150
   dimension x,y,z NGXF=   300 NGYF=  300 NGZF=  300
   support grid    NGXF=   300 NGYF=  300 NGZF=  300
   ions per type =               3   2   1
 NGX,Y,Z   is equivalent  to a cutoff of   8.31,  8.31,  8.31 a.u.
 NGXF,Y,Z  is equivalent  to a cutoff of  16.62, 16.62, 16.62 a.u.


 I would recommend the setting:
   dimension x,y,z NGX =   147 NGY =  147 NGZ =  147
 SYSTEM =  unknown system                          
 POSCAR =  H3 C2 N1                                

 Startparameter for this run:
   NWRITE =      2    write-flag & timer
   PREC   = normal    normal or accurate (medium, high low for compatibility)
   ISTART =      0    job   : 0-new  1-cont  2-samecut
   ICHARG =      2    charge: 1-file 2-atom 10-const
   ISPIN  =      1    spin polarized calculation?
   LNONCOLLINEAR =      F non collinear calculations
   LSORBIT =      F    spin-orbit coupling
   INIWAV =      1    electr: 0-lowe 1-rand  2-diag
   LASPH  =      F    aspherical Exc in radial PAW
   METAGGA=      F    non-selfconsistent MetaGGA calc.

 Electronic Relaxation 1
   ENCUT  =  400.0 eV  29.40 Ry    5.42 a.u.  48.92 48.92 48.92*2*pi/ulx,y,z
   ENINI  =  400.0     initial cutoff
   ENAUG  =  644.9 eV  augmentation charge cutoff
   NELM   =    500;   NELMIN=  6; NELMDL= -5     # of ELM steps 
   EDIFF  = 0.1E-03   stopping-criterion for ELM
   LREAL  =      T    real-space projection
   NLSPLINE    = F    spline interpolate recip. space projectors
   LCOMPAT=      F    compatible to vasp.4.4
   GGA_COMPAT  = T    GGA compatible to vasp.4.4-vasp.4.6
   LMAXPAW     = -100 max onsite density
   LMAXMIX     =    2 max onsite mixed and CHGCAR
   VOSKOWN=      0    Vosko Wilk Nusair interpolation
   ROPT   =   -0.00050  -0.00050  -0.00050
 Ionic relaxation
   EDIFFG = -.1E+00   stopping-criterion for IOM
   NSW    =    300    number of steps for IOM
   NBLOCK =      1;   KBLOCK =    300    inner block; outer block 
   IBRION =      3    ionic relax: 0-MD 1-quasi-New 2-CG
   NFREE  =      0    steps in history (QN), initial steepest desc. (CG)
   ISIF   =      2    stress and relaxation
   IWAVPR =     11    prediction:  0-non 1-charg 2-wave 3-comb
   ISYM   =      2    0-nonsym 1-usesym 2-fastsym
   LCORR  =      T    Harris-Foulkes like correction to forces

   POTIM  = 0.0000    time-step for ionic-motion
   TEIN   =    0.0    initial temperature
   TEBEG  =    0.0;   TEEND  =   0.0 temperature during run
   SMASS  =   2.00    Nose mass-parameter (am)
   estimated Nose-frequenzy (Omega)   =  0.12E+10 period in steps =  0.00 mass=   0.137E-25a.u.
   SCALEE = 1.0000    scale energy and forces
   NPACO  =    256;   APACO  = 16.0  distance and # of slots for P.C.
   PSTRESS=    0.0 pullay stress

  Mass of Ions in am
   POMASS =   1.00 12.01 14.00
  Ionic Valenz
   ZVAL   =   1.00  4.00  5.00
  Atomic Wigner-Seitz radii
   RWIGS  =  -1.00 -1.00 -1.00
  virtual crystal weights 
   VCA    =   1.00  1.00  1.00
   NELECT =      16.0000    total number of electrons
   NUPDOWN=      -1.0000    fix difference up-down

 DOS related values:
   EMIN   =  10.00;   EMAX   =-10.00  energy-range for DOS
   EFERMI =   0.00
   ISMEAR =     0;   SIGMA  =   0.20  broadening in eV -4-tet -1-fermi 0-gaus

 Electronic relaxation 2 (details)
   IALGO  =     38    algorithm
   LDIAG  =      T    sub-space diagonalisation (order eigenvalues)
   LSUBROT=      F    optimize rotation matrix (better conditioning)
   TURBO    =      0    0=normal 1=particle mesh
   IRESTART =      0    0=no restart 2=restart with 2 vectors
   NREBOOT  =      0    no. of reboots
   NMIN     =      0    reboot dimension
   EREF     =   0.00    reference energy to select bands
   IMIX   =      4    mixing-type and parameters
     AMIX     =   0.40;   BMIX     =  1.00
     AMIX_MAG =   1.60;   BMIX_MAG =  1.00
     AMIN     =   0.10
     WC   =   100.;   INIMIX=   1;  MIXPRE=   1;  MAXMIX= -45

 Intra band minimization:
   WEIMIN = 0.0010     energy-eigenvalue tresh-hold
   EBREAK =  0.21E-05  absolut break condition
   DEPER  =   0.30     relativ break condition  

   TIME   =   0.40     timestep for ELM

  volume/ion in A,a.u.               =    4500.00     30367.50
  Fermi-wavevector in a.u.,A,eV,Ry     =   0.137508  0.259852  0.257264  0.018908
  Thomas-Fermi vector in A             =   0.790710
 
 Write flags
   LWAVE  =      F    write WAVECAR
   LCHARG =      F    write CHGCAR
   LVTOT  =      F    write LOCPOT, total local potential
   LVHAR  =      F    write LOCPOT, Hartree potential only
   LELF   =      F    write electronic localiz. function (ELF)
   LORBIT =      0    0 simple, 1 ext, 2 COOP (PROOUT)


 Dipole corrections
   LMONO  =      F    monopole corrections only (constant potential shift)
   LDIPOL =      F    correct potential (dipole corrections)
   IDIPOL =      0    1-x, 2-y, 3-z, 4-all directions 
   EPSILON=  1.0000000 bulk dielectric constant

 Exchange correlation treatment:
   GGA     =    PE    GGA type
   LEXCH   =     8    internal setting for exchange type
   VOSKOWN=      0    Vosko Wilk Nusair interpolation
   LHFCALC =     F    Hartree Fock is set to
   LHFONE  =     F    Hartree Fock one center treatment
   AEXX    =    0.0000 exact exchange contribution

 Linear response parameters
   LEPSILON=     F    determine dielectric tensor
   LRPA    =     F    only Hartree local field effects (RPA)
   LNABLA  =     F    use nabla operator in PAW spheres
   LVEL    =     F    velocity operator in full k-point grid
   LINTERFAST=   F  fast interpolation
   KINTER  =     0    interpolate to denser k-point grid
   CSHIFT  =0.1000    complex shift for real part using Kramers Kronig
   OMEGAMAX=  -1.0    maximum frequency
   DEG_THRESHOLD= 0.2000000E-02 threshold for treating states as degnerate
   RTIME   =    0.100 relaxation time in fs

 Orbital magnetization related:
   ORBITALMAG=     F  switch on orbital magnetization
   LCHIMAG   =     F  perturbation theory with respect to B field
   DQ        =  0.001000  dq finite difference perturbation B field



--------------------------------------------------------------------------------------------------------


 quickmin algorithm: (dynamic with friction)
 charge density and potential will be updated during run
 non-spin polarized calculation
 Variant of blocked Davidson
 Davidson routine will perform the subspace rotation
 perform sub-space diagonalisation
    after iterative eigenvector-optimisation
 modified Broyden-mixing scheme, WC =      100.0
 initial mixing is a Kerker type mixing with AMIX =  0.4000 and BMIX =      1.0000
 Hartree-type preconditioning will be used
 using additional bands            4
 real space projection scheme for non local part
 use partial core corrections
 calculate Harris-corrections to forces 
   (improved forces if not selfconsistent)
 use gradient corrections 
 use of overlap-Matrix (Vanderbilt PP)
 Gauss-broadening in eV      SIGMA  =   0.20


--------------------------------------------------------------------------------------------------------


  energy-cutoff  :      400.00
  volume of cell :    27000.00
      direct lattice vectors                 reciprocal lattice vectors
    30.000000000  0.000000000  0.000000000     0.033333333  0.000000000  0.000000000
     0.000000000 30.000000000  0.000000000     0.000000000  0.033333333  0.000000000
     0.000000000  0.000000000 30.000000000     0.000000000  0.000000000  0.033333333

  length of vectors
    30.000000000 30.000000000 30.000000000     0.033333333  0.033333333  0.033333333


 
 k-points in units of 2pi/SCALE and weight: Mo2C                                    
   0.00833333  0.00833333  0.00833333       0.250
  -0.00833333  0.00833333  0.00833333       0.250
   0.00833333 -0.00833333  0.00833333       0.250
  -0.00833333 -0.00833333  0.00833333       0.250
 
 k-points in reciprocal lattice and weights: Mo2C                                    
   0.25000000  0.25000000  0.25000000       0.250
  -0.25000000  0.25000000  0.25000000       0.250
   0.25000000 -0.25000000  0.25000000       0.250
  -0.25000000 -0.25000000  0.25000000       0.250
 
 position of ions in fractional coordinates (direct lattice) 
   0.47771559  0.46227496  0.49895965
   0.46828388  0.51807196  0.47578217
   0.48049339  0.51072048  0.53380903
   0.48602988  0.49753803  0.49980604
   0.53708211  0.49751982  0.47905785
   0.55040522  0.51389370  0.51258522
 
 position of ions in cartesian coordinates  (Angst):
  14.33146762 13.86824880 14.96878952
  14.04851627 15.54215872 14.27346525
  14.41480164 15.32161434 16.01427075
  14.58089635 14.92614099 14.99418119
  16.11246332 14.92559463 14.37173553
  16.51215653 15.41681095 15.37755661
 


--------------------------------------------------------------------------------------------------------


 k-point  1 :   0.2500 0.2500 0.2500  plane waves:  490454
 k-point  2 :  -0.2500 0.2500 0.2500  plane waves:  490454
 k-point  3 :   0.2500-0.2500 0.2500  plane waves:  490454
 k-point  4 :  -0.2500-0.2500 0.2500  plane waves:  490454

 maximum and minimum number of plane-waves per node :    490454   490454

 maximum number of plane-waves:    490454
 maximum index in each direction: 
   IXMAX=   49   IYMAX=   49   IZMAX=   48
   IXMIN=  -49   IYMIN=  -49   IZMIN=  -49

 WARNING: aliasing errors must be expected set NGX to 198 to avoid them
 WARNING: aliasing errors must be expected set NGY to 198 to avoid them
 WARNING: aliasing errors must be expected set NGZ to 196 to avoid them
 aliasing errors are usually negligible using standard VASP settings
 and one can safely disregard these warnings

 serial   3D FFT for wavefunctions
 parallel 3D FFT for charge:
    minimum data exchange during FFTs selected (reduces bandwidth)


 total amount of memory used by VASP on root node  3203889. kBytes
========================================================================

   base      :      30000. kBytes
   nonlr-proj:        693. kBytes
   fftplans  :     924480. kBytes
   grid      :    1872000. kBytes
   one-center:         18. kBytes
   wavefun   :     376698. kBytes
 
     INWAV:  cpu time    0.0000: real time    0.0004
 Broyden mixing: mesh for mixing (old mesh)
   NGX = 97   NGY = 97   NGZ = 97
  (NGX  =300   NGY  =300   NGZ  =300)
  gives a total of 912673 points

 initial charge density was supplied:
 charge density of overlapping atoms calculated
 number of electron      16.0000000 magnetization 
 keeping initial charge density in first step


--------------------------------------------------------------------------------------------------------


 Maximum index for non-local projection operator         2274
 Maximum index for augmentation-charges         1484 (set IRDMAX)


--------------------------------------------------------------------------------------------------------


 First call to EWALD:  gamma=   0.059
 Maximum number of real-space cells 3x 3x 3
 Maximum number of reciprocal cells 3x 3x 3

 FEWALD executed in parallel
    FEWALD:  cpu time    0.0020: real time    0.0020


----------------------------------------- Iteration    1(   1)  ---------------------------------------


    POTLOK:  cpu time   20.0550: real time   20.0389
    SETDIJ:  cpu time    0.0080: real time    0.0081
     EDDAV:  cpu time   88.5075: real time   88.4334
       DOS:  cpu time    0.0000: real time    0.0003
    --------------------------------------------
      LOOP:  cpu time  108.5735: real time  108.4853

 eigenvalue-minimisations  :   160
 total energy-change (2. order) : 0.1095636E+03  (-0.2125070E+03)
 number of electron      16.0000000 magnetization 
 augmentation part       16.0000000 magnetization 

 Free energy of the ion-electron system (eV)
  ---------------------------------------------------
  alpha Z        PSCENC =         0.04144063
  Ewald energy   TEWEN  =       695.11567674
  -Hartree energ DENC   =     -1114.69338894
  -exchange      EXHF   =         0.00000000
  -V(xc)+E(xc)   XCENC  =        51.14956886
  PAW double counting   =       428.37890668     -430.73533574
  entropy T*S    EENTRO =        -0.24548434
  eigenvalues    EBANDS =      -115.61317334
  atomic energy  EATOM  =       596.16534815
  Solvation  Ediel_sol  =         0.00000000
  ---------------------------------------------------
  free energy    TOTEN  =       109.56355870 eV

  energy without entropy =      109.80904304  energy(sigma->0) =      109.68630087


--------------------------------------------------------------------------------------------------------




----------------------------------------- Iteration    1(   2)  ---------------------------------------


     EDDAV:  cpu time  105.5380: real time  105.4511
       DOS:  cpu time    0.0000: real time    0.0002
    --------------------------------------------
      LOOP:  cpu time  105.5390: real time  105.4537

 eigenvalue-minimisations  :   192
 total energy-change (2. order) :-0.1078258E+03  (-0.1042098E+03)
 number of electron      16.0000000 magnetization 
 augmentation part       16.0000000 magnetization 

 Free energy of the ion-electron system (eV)
  ---------------------------------------------------
  alpha Z        PSCENC =         0.04144063
  Ewald energy   TEWEN  =       695.11567674
  -Hartree energ DENC   =     -1114.69338894
  -exchange      EXHF   =         0.00000000
  -V(xc)+E(xc)   XCENC  =        51.14956886
  PAW double counting   =       428.37890668     -430.73533574
  entropy T*S    EENTRO =         0.00000000
  eigenvalues    EBANDS =      -223.68449627
  atomic energy  EATOM  =       596.16534815
  Solvation  Ediel_sol  =         0.00000000
  ---------------------------------------------------
  free energy    TOTEN  =         1.73772011 eV

  energy without entropy =        1.73772011  energy(sigma->0) =        1.73772011


--------------------------------------------------------------------------------------------------------




----------------------------------------- Iteration    1(   3)  ---------------------------------------


     EDDAV:  cpu time   78.8680: real time   78.8042
       DOS:  cpu time    0.0000: real time    0.0002
    --------------------------------------------
      LOOP:  cpu time   78.8700: real time   78.8075

 eigenvalue-minimisations  :   128
 total energy-change (2. order) :-0.3575863E+02  (-0.3543257E+02)
 number of electron      16.0000000 magnetization 
 augmentation part       16.0000000 magnetization 

 Free energy of the ion-electron system (eV)
  ---------------------------------------------------
  alpha Z        PSCENC =         0.04144063
  Ewald energy   TEWEN  =       695.11567674
  -Hartree energ DENC   =     -1114.69338894
  -exchange      EXHF   =         0.00000000
  -V(xc)+E(xc)   XCENC  =        51.14956886
  PAW double counting   =       428.37890668     -430.73533574
  entropy T*S    EENTRO =         0.00000000
  eigenvalues    EBANDS =      -259.44313058
  atomic energy  EATOM  =       596.16534815
  Solvation  Ediel_sol  =         0.00000000
  ---------------------------------------------------
  free energy    TOTEN  =       -34.02091421 eV

  energy without entropy =      -34.02091421  energy(sigma->0) =      -34.02091421


--------------------------------------------------------------------------------------------------------




----------------------------------------- Iteration    1(   4)  ---------------------------------------


     EDDAV:  cpu time   67.3628: real time   67.3079
       DOS:  cpu time    0.0000: real time    0.0002
    --------------------------------------------
      LOOP:  cpu time   67.3638: real time   67.3115

 eigenvalue-minimisations  :   104
 total energy-change (2. order) :-0.3237151E+01  (-0.3165816E+01)
 number of electron      16.0000000 magnetization 
 augmentation part       16.0000000 magnetization 

 Free energy of the ion-electron system (eV)
  ---------------------------------------------------
  alpha Z        PSCENC =         0.04144063
  Ewald energy   TEWEN  =       695.11567674
  -Hartree energ DENC   =     -1114.69338894
  -exchange      EXHF   =         0.00000000
  -V(xc)+E(xc)   XCENC  =        51.14956886
  PAW double counting   =       428.37890668     -430.73533574
  entropy T*S    EENTRO =         0.00000000
  eigenvalues    EBANDS =      -262.68028129
  atomic energy  EATOM  =       596.16534815
  Solvation  Ediel_sol  =         0.00000000
  ---------------------------------------------------
  free energy    TOTEN  =       -37.25806491 eV

  energy without entropy =      -37.25806491  energy(sigma->0) =      -37.25806491


--------------------------------------------------------------------------------------------------------




----------------------------------------- Iteration    1(   5)  ---------------------------------------


     EDDAV:  cpu time   95.5945: real time   95.5166
       DOS:  cpu time    0.0000: real time    0.0002
    CHARGE:  cpu time    5.9541: real time    5.9505
    MIXING:  cpu time    0.6659: real time    0.6651
    --------------------------------------------
      LOOP:  cpu time  102.2165: real time  102.1358

 eigenvalue-minimisations  :   160
 total energy-change (2. order) :-0.1076057E+00  (-0.1072691E+00)
 number of electron      15.9999999 magnetization 
 augmentation part        0.4560552 magnetization 

 Broyden mixing:
  rms(total) = 0.10389E+01    rms(broyden)= 0.10375E+01
  rms(prec ) = 0.10728E+01
  weight for this iteration     100.00

 Free energy of the ion-electron system (eV)
  ---------------------------------------------------
  alpha Z        PSCENC =         0.04144063
  Ewald energy   TEWEN  =       695.11567674
  -Hartree energ DENC   =     -1114.69338894
  -exchange      EXHF   =         0.00000000
  -V(xc)+E(xc)   XCENC  =        51.14956886
  PAW double counting   =       428.37890668     -430.73533574
  entropy T*S    EENTRO =         0.00000000
  eigenvalues    EBANDS =      -262.78788701
  atomic energy  EATOM  =       596.16534815
  Solvation  Ediel_sol  =         0.00000000
  ---------------------------------------------------
  free energy    TOTEN  =       -37.36567064 eV

  energy without entropy =      -37.36567064  energy(sigma->0) =      -37.36567064


--------------------------------------------------------------------------------------------------------




----------------------------------------- Iteration    1(   6)  ---------------------------------------


    POTLOK:  cpu time   24.5313: real time   24.5118
    SETDIJ:  cpu time    0.0080: real time    0.0082
     EDDAV:  cpu time   79.7729: real time   79.7069
       DOS:  cpu time    0.0000: real time    0.0002
    CHARGE:  cpu time    5.6651: real time    5.6611
    MIXING:  cpu time    0.6699: real time    0.6695
    --------------------------------------------
      LOOP:  cpu time  110.6492: real time  110.5613

 eigenvalue-minimisations  :   128
 total energy-change (2. order) : 0.2465886E+01  (-0.4208766E+00)
 number of electron      15.9999998 magnetization 
 augmentation part        0.4089819 magnetization 

 Broyden mixing:
  rms(total) = 0.57341E+00    rms(broyden)= 0.57323E+00
  rms(prec ) = 0.58790E+00
  weight for this iteration     100.00

 eigenvalues of (default mixing * dielectric matrix)
  average eigenvalue GAMMA=   1.5946
  1.5946

 Free energy of the ion-electron system (eV)
  ---------------------------------------------------
  alpha Z        PSCENC =         0.04144063
  Ewald energy   TEWEN  =       695.11567674
  -Hartree energ DENC   =     -1142.36798263
  -exchange      EXHF   =         0.00000000
  -V(xc)+E(xc)   XCENC  =        52.67932934
  PAW double counting   =       686.87832618     -689.50075730
  entropy T*S    EENTRO =         0.00000000
  eigenvalues    EBANDS =      -233.91116580
  atomic energy  EATOM  =       596.16534815
  Solvation  Ediel_sol  =         0.00000000
  ---------------------------------------------------
  free energy    TOTEN  =       -34.89978469 eV

  energy without entropy =      -34.89978469  energy(sigma->0) =      -34.89978469


--------------------------------------------------------------------------------------------------------




----------------------------------------- Iteration    1(   7)  ---------------------------------------


    POTLOK:  cpu time   24.1113: real time   24.0916
    SETDIJ:  cpu time    0.0080: real time    0.0083
     EDDAV:  cpu time   79.3479: real time   79.2823
       DOS:  cpu time    0.0000: real time    0.0002
    CHARGE:  cpu time    5.7651: real time    5.7610
    MIXING:  cpu time    0.7079: real time    0.7075
    --------------------------------------------
      LOOP:  cpu time  109.9423: real time  109.8545

 eigenvalue-minimisations  :   128
 total energy-change (2. order) : 0.6053377E+00  (-0.1659355E+00)
 number of electron      15.9999998 magnetization 
 augmentation part        0.4077358 magnetization 

 Broyden mixing:
  rms(total) = 0.23817E+00    rms(broyden)= 0.23811E+00
  rms(prec ) = 0.24489E+00
  weight for this iteration     100.00

 eigenvalues of (default mixing * dielectric matrix)
  average eigenvalue GAMMA=   1.4685
  0.9135  2.0234

 Free energy of the ion-electron system (eV)
  ---------------------------------------------------
  alpha Z        PSCENC =         0.04144063
  Ewald energy   TEWEN  =       695.11567674
  -Hartree energ DENC   =     -1161.22730307
  -exchange      EXHF   =         0.00000000
  -V(xc)+E(xc)   XCENC  =        53.82045229
  PAW double counting   =      1007.29474037    -1010.04841827
  entropy T*S    EENTRO =         0.00000000
  eigenvalues    EBANDS =      -215.45638382
  atomic energy  EATOM  =       596.16534815
  Solvation  Ediel_sol  =         0.00000000
  ---------------------------------------------------
  free energy    TOTEN  =       -34.29444699 eV

  energy without entropy =      -34.29444699  energy(sigma->0) =      -34.29444699


--------------------------------------------------------------------------------------------------------




----------------------------------------- Iteration    1(   8)  ---------------------------------------


    POTLOK:  cpu time   23.4664: real time   23.4471
    SETDIJ:  cpu time    0.0080: real time    0.0082
     EDDAV:  cpu time   79.5829: real time   79.5171
       DOS:  cpu time    0.0000: real time    0.0002
    CHARGE:  cpu time    5.7921: real time    5.7875
    MIXING:  cpu time    0.7859: real time    0.7846
    --------------------------------------------
      LOOP:  cpu time  109.6363: real time  109.5488

 eigenvalue-minimisations  :   128
 total energy-change (2. order) : 0.8521805E-01  (-0.1834091E-01)
 number of electron      15.9999998 magnetization 
 augmentation part        0.3923533 magnetization 

 Broyden mixing:
  rms(total) = 0.10130E+00    rms(broyden)= 0.10125E+00
  rms(prec ) = 0.10506E+00
  weight for this iteration     100.00

 eigenvalues of (default mixing * dielectric matrix)
  average eigenvalue GAMMA=   1.4883
  2.2901  1.4631  0.7118

 Free energy of the ion-electron system (eV)
  ---------------------------------------------------
  alpha Z        PSCENC =         0.04144063
  Ewald energy   TEWEN  =       695.11567674
  -Hartree energ DENC   =     -1167.73419422
  -exchange      EXHF   =         0.00000000
  -V(xc)+E(xc)   XCENC  =        54.24308875
  PAW double counting   =      1154.45246164    -1157.22442811
  entropy T*S    EENTRO =         0.00000000
  eigenvalues    EBANDS =      -209.26862252
  atomic energy  EATOM  =       596.16534815
  Solvation  Ediel_sol  =         0.00000000
  ---------------------------------------------------
  free energy    TOTEN  =       -34.20922894 eV

  energy without entropy =      -34.20922894  energy(sigma->0) =      -34.20922894


--------------------------------------------------------------------------------------------------------




----------------------------------------- Iteration    1(   9)  ---------------------------------------


    POTLOK:  cpu time   23.0575: real time   23.0383
    SETDIJ:  cpu time    0.0080: real time    0.0082
     EDDAV:  cpu time   79.2889: real time   79.2237
       DOS:  cpu time    0.0000: real time    0.0002
    CHARGE:  cpu time    5.7191: real time    5.7144
    MIXING:  cpu time    0.8089: real time    0.8085
    --------------------------------------------
      LOOP:  cpu time  108.8824: real time  108.7967

 eigenvalue-minimisations  :   128
 total energy-change (2. order) : 0.2030545E-01  (-0.3765764E-02)
 number of electron      15.9999998 magnetization 
 augmentation part        0.3947122 magnetization 

 Broyden mixing:
  rms(total) = 0.28852E-01    rms(broyden)= 0.28840E-01
  rms(prec ) = 0.33012E-01
  weight for this iteration     100.00

 eigenvalues of (default mixing * dielectric matrix)
  average eigenvalue GAMMA=   1.4238
  2.2158  1.6869  1.0440  0.7487

 Free energy of the ion-electron system (eV)
  ---------------------------------------------------
  alpha Z        PSCENC =         0.04144063
  Ewald energy   TEWEN  =       695.11567674
  -Hartree energ DENC   =     -1169.43603058
  -exchange      EXHF   =         0.00000000
  -V(xc)+E(xc)   XCENC  =        54.34977222
  PAW double counting   =      1218.93551410    -1221.67980103
  entropy T*S    EENTRO =         0.00000000
  eigenvalues    EBANDS =      -207.68084372
  atomic energy  EATOM  =       596.16534815
  Solvation  Ediel_sol  =         0.00000000
  ---------------------------------------------------
  free energy    TOTEN  =       -34.18892350 eV

  energy without entropy =      -34.18892350  energy(sigma->0) =      -34.18892350


--------------------------------------------------------------------------------------------------------




----------------------------------------- Iteration    1(  10)  ---------------------------------------


    POTLOK:  cpu time   23.1175: real time   23.0989
    SETDIJ:  cpu time    0.0090: real time    0.0082
     EDDAV:  cpu time   78.9910: real time   78.9263
       DOS:  cpu time    0.0000: real time    0.0002
    CHARGE:  cpu time    5.7461: real time    5.7411
    MIXING:  cpu time    0.8429: real time    0.8421
    --------------------------------------------
      LOOP:  cpu time  108.7075: real time  108.6203

 eigenvalue-minimisations  :   128
 total energy-change (2. order) : 0.1898826E-02  (-0.6367231E-03)
 number of electron      15.9999998 magnetization 
 augmentation part        0.3961858 magnetization 

 Broyden mixing:
  rms(total) = 0.12935E-01    rms(broyden)= 0.12922E-01
  rms(prec ) = 0.17862E-01
  weight for this iteration     100.00

 eigenvalues of (default mixing * dielectric matrix)
  average eigenvalue GAMMA=   1.4126
  2.0703  2.0703  1.2804  0.7912  0.8507

 Free energy of the ion-electron system (eV)
  ---------------------------------------------------
  alpha Z        PSCENC =         0.04144063
  Ewald energy   TEWEN  =       695.11567674
  -Hartree energ DENC   =     -1170.16940561
  -exchange      EXHF   =         0.00000000
  -V(xc)+E(xc)   XCENC  =        54.36039424
  PAW double counting   =      1219.44764361    -1222.18442130
  entropy T*S    EENTRO =         0.00000000
  eigenvalues    EBANDS =      -206.96370113
  atomic energy  EATOM  =       596.16534815
  Solvation  Ediel_sol  =         0.00000000
  ---------------------------------------------------
  free energy    TOTEN  =       -34.18702467 eV

  energy without entropy =      -34.18702467  energy(sigma->0) =      -34.18702467


--------------------------------------------------------------------------------------------------------




----------------------------------------- Iteration    1(  11)  ---------------------------------------


    POTLOK:  cpu time   22.9225: real time   22.9058
    SETDIJ:  cpu time    0.0080: real time    0.0085
     EDDAV:  cpu time   75.1886: real time   75.1257
       DOS:  cpu time    0.0000: real time    0.0002
    CHARGE:  cpu time    5.7441: real time    5.7392
    MIXING:  cpu time    0.8999: real time    0.8993
    --------------------------------------------
      LOOP:  cpu time  104.7651: real time  104.6826

 eigenvalue-minimisations  :   120
 total energy-change (2. order) :-0.2086931E-03  (-0.1008786E-03)
 number of electron      15.9999998 magnetization 
 augmentation part        0.3955092 magnetization 

 Broyden mixing:
  rms(total) = 0.86148E-02    rms(broyden)= 0.86135E-02
  rms(prec ) = 0.12847E-01
  weight for this iteration     100.00

 eigenvalues of (default mixing * dielectric matrix)
  average eigenvalue GAMMA=   1.5566
  2.5208  2.5208  1.2844  1.2844  0.7769  0.9524

 Free energy of the ion-electron system (eV)
  ---------------------------------------------------
  alpha Z        PSCENC =         0.04144063
  Ewald energy   TEWEN  =       695.11567674
  -Hartree energ DENC   =     -1171.15964572
  -exchange      EXHF   =         0.00000000
  -V(xc)+E(xc)   XCENC  =        54.38818458
  PAW double counting   =      1218.80278560    -1221.53790444
  entropy T*S    EENTRO =         0.00000000
  eigenvalues    EBANDS =      -206.00311891
  atomic energy  EATOM  =       596.16534815
  Solvation  Ediel_sol  =         0.00000000
  ---------------------------------------------------
  free energy    TOTEN  =       -34.18723336 eV

  energy without entropy =      -34.18723336  energy(sigma->0) =      -34.18723336


--------------------------------------------------------------------------------------------------------




----------------------------------------- Iteration    1(  12)  ---------------------------------------


    POTLOK:  cpu time   23.0575: real time   23.0392
    SETDIJ:  cpu time    0.0090: real time    0.0083
     EDDAV:  cpu time   64.8931: real time   64.8400
       DOS:  cpu time    0.0000: real time    0.0002
    CHARGE:  cpu time    5.8581: real time    5.8535
    MIXING:  cpu time    0.9629: real time    0.9620
    --------------------------------------------
      LOOP:  cpu time   94.7816: real time   94.7068

 eigenvalue-minimisations  :   100
 total energy-change (2. order) :-0.3170575E-02  (-0.2001012E-03)
 number of electron      15.9999998 magnetization 
 augmentation part        0.3953302 magnetization 

 Broyden mixing:
  rms(total) = 0.41757E-02    rms(broyden)= 0.41734E-02
  rms(prec ) = 0.68280E-02
  weight for this iteration     100.00

 eigenvalues of (default mixing * dielectric matrix)
  average eigenvalue GAMMA=   1.6433
  3.4557  2.3495  1.6099  0.7832  0.8822  1.2113  1.2113

 Free energy of the ion-electron system (eV)
  ---------------------------------------------------
  alpha Z        PSCENC =         0.04144063
  Ewald energy   TEWEN  =       695.11567674
  -Hartree energ DENC   =     -1172.62939159
  -exchange      EXHF   =         0.00000000
  -V(xc)+E(xc)   XCENC  =        54.42167007
  PAW double counting   =      1215.08262953    -1217.81408123
  entropy T*S    EENTRO =         0.00000000
  eigenvalues    EBANDS =      -204.57369624
  atomic energy  EATOM  =       596.16534815
  Solvation  Ediel_sol  =         0.00000000
  ---------------------------------------------------
  free energy    TOTEN  =       -34.19040394 eV

  energy without entropy =      -34.19040394  energy(sigma->0) =      -34.19040394


--------------------------------------------------------------------------------------------------------




----------------------------------------- Iteration    1(  13)  ---------------------------------------


    POTLOK:  cpu time   22.7435: real time   22.7245
    SETDIJ:  cpu time    0.0080: real time    0.0082
     EDDAV:  cpu time   93.6758: real time   93.5992
       DOS:  cpu time    0.0000: real time    0.0002
    CHARGE:  cpu time    5.8021: real time    5.7971
    MIXING:  cpu time    1.0418: real time    1.0404
    --------------------------------------------
      LOOP:  cpu time  123.2723: real time  123.1735

 eigenvalue-minimisations  :   156
 total energy-change (2. order) :-0.3869344E-02  (-0.1191091E-03)
 number of electron      15.9999998 magnetization 
 augmentation part        0.3950205 magnetization 

 Broyden mixing:
  rms(total) = 0.30149E-02    rms(broyden)= 0.30128E-02
  rms(prec ) = 0.45620E-02
  weight for this iteration     100.00

 eigenvalues of (default mixing * dielectric matrix)
  average eigenvalue GAMMA=   1.7208
  4.1291  2.4621  1.6259  1.6259  1.3274  0.9726  0.7892  0.8344

 Free energy of the ion-electron system (eV)
  ---------------------------------------------------
  alpha Z        PSCENC =         0.04144063
  Ewald energy   TEWEN  =       695.11567674
  -Hartree energ DENC   =     -1173.44129557
  -exchange      EXHF   =         0.00000000
  -V(xc)+E(xc)   XCENC  =        54.43846617
  PAW double counting   =      1214.44545402    -1217.17697703
  entropy T*S    EENTRO =         0.00000000
  eigenvalues    EBANDS =      -203.78238638
  atomic energy  EATOM  =       596.16534815
  Solvation  Ediel_sol  =         0.00000000
  ---------------------------------------------------
  free energy    TOTEN  =       -34.19427328 eV

  energy without entropy =      -34.19427328  energy(sigma->0) =      -34.19427328


--------------------------------------------------------------------------------------------------------




----------------------------------------- Iteration    1(  14)  ---------------------------------------


    POTLOK:  cpu time   23.7874: real time   23.7676
    SETDIJ:  cpu time    0.0080: real time    0.0084
     EDDAV:  cpu time   75.9874: real time   75.9255
       DOS:  cpu time    0.0000: real time    0.0002
    CHARGE:  cpu time    5.8001: real time    5.7958
    MIXING:  cpu time    1.0748: real time    1.0740
    --------------------------------------------
      LOOP:  cpu time  106.6588: real time  106.5764

 eigenvalue-minimisations  :   120
 total energy-change (2. order) :-0.3827224E-02  (-0.3956028E-04)
 number of electron      15.9999998 magnetization 
 augmentation part        0.3950191 magnetization 

 Broyden mixing:
  rms(total) = 0.17794E-02    rms(broyden)= 0.17791E-02
  rms(prec ) = 0.27583E-02
  weight for this iteration     100.00

 eigenvalues of (default mixing * dielectric matrix)
  average eigenvalue GAMMA=   1.8094
  4.7452  2.6631  2.3486  1.5546  1.2145  1.2145  0.7793  0.8824  0.8824

 Free energy of the ion-electron system (eV)
  ---------------------------------------------------
  alpha Z        PSCENC =         0.04144063
  Ewald energy   TEWEN  =       695.11567674
  -Hartree energ DENC   =     -1173.73885269
  -exchange      EXHF   =         0.00000000
  -V(xc)+E(xc)   XCENC  =        54.43480427
  PAW double counting   =      1212.71170222    -1215.44279077
  entropy T*S    EENTRO =         0.00000000
  eigenvalues    EBANDS =      -203.48542905
  atomic energy  EATOM  =       596.16534815
  Solvation  Ediel_sol  =         0.00000000
  ---------------------------------------------------
  free energy    TOTEN  =       -34.19810051 eV

  energy without entropy =      -34.19810051  energy(sigma->0) =      -34.19810051


--------------------------------------------------------------------------------------------------------




----------------------------------------- Iteration    1(  15)  ---------------------------------------


    POTLOK:  cpu time   23.5344: real time   23.5154
    SETDIJ:  cpu time    0.0080: real time    0.0082
     EDDAV:  cpu time   80.4918: real time   80.4269
       DOS:  cpu time    0.0000: real time    0.0002
    CHARGE:  cpu time    5.8371: real time    5.8326
    MIXING:  cpu time    1.2128: real time    1.2116
    --------------------------------------------
      LOOP:  cpu time  111.0871: real time  110.9983

 eigenvalue-minimisations  :   128
 total energy-change (2. order) :-0.2625319E-02  (-0.2397129E-04)
 number of electron      15.9999998 magnetization 
 augmentation part        0.3949929 magnetization 

 Broyden mixing:
  rms(total) = 0.10423E-02    rms(broyden)= 0.10421E-02
  rms(prec ) = 0.16636E-02
  weight for this iteration     100.00

 eigenvalues of (default mixing * dielectric matrix)
  average eigenvalue GAMMA=   1.9361
  5.9855  3.0453  2.2966  1.5286  1.5286  1.2142  1.2142  0.7799  0.8842  0.8842

 Free energy of the ion-electron system (eV)
  ---------------------------------------------------
  alpha Z        PSCENC =         0.04144063
  Ewald energy   TEWEN  =       695.11567674
  -Hartree energ DENC   =     -1173.91232695
  -exchange      EXHF   =         0.00000000
  -V(xc)+E(xc)   XCENC  =        54.43359099
  PAW double counting   =      1212.97115923    -1215.70251342
  entropy T*S    EENTRO =         0.00000000
  eigenvalues    EBANDS =      -203.31310120
  atomic energy  EATOM  =       596.16534815
  Solvation  Ediel_sol  =         0.00000000
  ---------------------------------------------------
  free energy    TOTEN  =       -34.20072582 eV

  energy without entropy =      -34.20072582  energy(sigma->0) =      -34.20072582


--------------------------------------------------------------------------------------------------------




----------------------------------------- Iteration    1(  16)  ---------------------------------------


    POTLOK:  cpu time   23.5884: real time   23.5698
    SETDIJ:  cpu time    0.0080: real time    0.0082
     EDDAV:  cpu time   80.4848: real time   80.4192
       DOS:  cpu time    0.0000: real time    0.0002
    CHARGE:  cpu time    5.9661: real time    5.9613
    MIXING:  cpu time    1.3158: real time    1.3143
    --------------------------------------------
      LOOP:  cpu time  111.3651: real time  111.2764

 eigenvalue-minimisations  :   128
 total energy-change (2. order) :-0.1969883E-02  (-0.1896116E-04)
 number of electron      15.9999998 magnetization 
 augmentation part        0.3949646 magnetization 

 Broyden mixing:
  rms(total) = 0.63918E-03    rms(broyden)= 0.63885E-03
  rms(prec ) = 0.94292E-03
  weight for this iteration     100.00

 eigenvalues of (default mixing * dielectric matrix)
  average eigenvalue GAMMA=   2.0826
  7.0610  3.5383  2.3712  2.3712  1.4709  1.2650  1.2650  0.7812  0.9576  0.9576
  0.8695

 Free energy of the ion-electron system (eV)
  ---------------------------------------------------
  alpha Z        PSCENC =         0.04144063
  Ewald energy   TEWEN  =       695.11567674
  -Hartree energ DENC   =     -1174.01924577
  -exchange      EXHF   =         0.00000000
  -V(xc)+E(xc)   XCENC  =        54.43130826
  PAW double counting   =      1212.81823281    -1215.54961082
  entropy T*S    EENTRO =         0.00000000
  eigenvalues    EBANDS =      -203.20584571
  atomic energy  EATOM  =       596.16534815
  Solvation  Ediel_sol  =         0.00000000
  ---------------------------------------------------
  free energy    TOTEN  =       -34.20269571 eV

  energy without entropy =      -34.20269571  energy(sigma->0) =      -34.20269571


--------------------------------------------------------------------------------------------------------




----------------------------------------- Iteration    1(  17)  ---------------------------------------


    POTLOK:  cpu time   23.6894: real time   23.6707
    SETDIJ:  cpu time    0.0090: real time    0.0083
     EDDAV:  cpu time   60.8098: real time   60.7606
       DOS:  cpu time    0.0000: real time    0.0002
    CHARGE:  cpu time    5.9221: real time    5.9177
    MIXING:  cpu time    1.3458: real time    1.3444
    --------------------------------------------
      LOOP:  cpu time   91.7780: real time   91.9310

 eigenvalue-minimisations  :    88
 total energy-change (2. order) :-0.1074460E-02  (-0.5732506E-05)
 number of electron      15.9999998 magnetization 
 augmentation part        0.3949545 magnetization 

 Broyden mixing:
  rms(total) = 0.32286E-03    rms(broyden)= 0.32278E-03
  rms(prec ) = 0.47616E-03
  weight for this iteration     100.00

 eigenvalues of (default mixing * dielectric matrix)
  average eigenvalue GAMMA=   2.1633
  7.5932  4.1650  2.5744  2.1604  1.9553  1.5040  1.2330  1.2330  0.7811  0.9454
  0.9454  0.8695

 Free energy of the ion-electron system (eV)
  ---------------------------------------------------
  alpha Z        PSCENC =         0.04144063
  Ewald energy   TEWEN  =       695.11567674
  -Hartree energ DENC   =     -1174.03303796
  -exchange      EXHF   =         0.00000000
  -V(xc)+E(xc)   XCENC  =        54.42901492
  PAW double counting   =      1213.12646869    -1215.85767988
  entropy T*S    EENTRO =         0.00000000
  eigenvalues    EBANDS =      -203.19100146
  atomic energy  EATOM  =       596.16534815
  Solvation  Ediel_sol  =         0.00000000
  ---------------------------------------------------
  free energy    TOTEN  =       -34.20377017 eV

  energy without entropy =      -34.20377017  energy(sigma->0) =      -34.20377017


--------------------------------------------------------------------------------------------------------




----------------------------------------- Iteration    1(  18)  ---------------------------------------


    POTLOK:  cpu time   23.7114: real time   23.6927
    SETDIJ:  cpu time    0.0080: real time    0.0082
     EDDAV:  cpu time   65.4441: real time   65.3917
       DOS:  cpu time    0.0000: real time    0.0002
    CHARGE:  cpu time    6.0661: real time    6.0610
    MIXING:  cpu time    1.4798: real time    1.4793
    --------------------------------------------
      LOOP:  cpu time   96.7123: real time   96.6364

 eigenvalue-minimisations  :    96
 total energy-change (2. order) :-0.4492012E-03  (-0.4041520E-05)
 number of electron      15.9999998 magnetization 
 augmentation part        0.3949524 magnetization 

 Broyden mixing:
  rms(total) = 0.19400E-03    rms(broyden)= 0.19396E-03
  rms(prec ) = 0.27140E-03
  weight for this iteration     100.00

 eigenvalues of (default mixing * dielectric matrix)
  average eigenvalue GAMMA=   2.2496
  8.2818  4.8135  2.7484  2.6327  2.1831  1.4900  1.2459  1.2459  0.7813  0.8736
  1.0184  0.9653  0.9653

 Free energy of the ion-electron system (eV)
  ---------------------------------------------------
  alpha Z        PSCENC =         0.04144063
  Ewald energy   TEWEN  =       695.11567674
  -Hartree energ DENC   =     -1174.03450125
  -exchange      EXHF   =         0.00000000
  -V(xc)+E(xc)   XCENC  =        54.42835495
  PAW double counting   =      1213.18241187    -1215.91360718
  entropy T*S    EENTRO =         0.00000000
  eigenvalues    EBANDS =      -203.18934327
  atomic energy  EATOM  =       596.16534815
  Solvation  Ediel_sol  =         0.00000000
  ---------------------------------------------------
  free energy    TOTEN  =       -34.20421937 eV

  energy without entropy =      -34.20421937  energy(sigma->0) =      -34.20421937


--------------------------------------------------------------------------------------------------------




----------------------------------------- Iteration    1(  19)  ---------------------------------------


    POTLOK:  cpu time   24.5283: real time   24.5082
    SETDIJ:  cpu time    0.0080: real time    0.0082
     EDDAV:  cpu time   54.6177: real time   54.5729
       DOS:  cpu time    0.0000: real time    0.0002
    CHARGE:  cpu time    5.8671: real time    5.8627
    MIXING:  cpu time    1.3978: real time    1.3963
    --------------------------------------------
      LOOP:  cpu time   86.4209: real time   86.3523

 eigenvalue-minimisations  :    76
 total energy-change (2. order) :-0.1993430E-03  (-0.1690342E-05)
 number of electron      15.9999998 magnetization 
 augmentation part        0.3949478 magnetization 

 Broyden mixing:
  rms(total) = 0.99225E-04    rms(broyden)= 0.99174E-04
  rms(prec ) = 0.14057E-03
  weight for this iteration     100.00

 eigenvalues of (default mixing * dielectric matrix)
  average eigenvalue GAMMA=   2.2686
  8.5631  4.9682  3.1720  2.4726  2.0933  1.9638  1.4701  1.2495  1.2495  0.7813
  1.0063  0.9509  0.9509  0.8691

 Free energy of the ion-electron system (eV)
  ---------------------------------------------------
  alpha Z        PSCENC =         0.04144063
  Ewald energy   TEWEN  =       695.11567674
  -Hartree energ DENC   =     -1174.03138468
  -exchange      EXHF   =         0.00000000
  -V(xc)+E(xc)   XCENC  =        54.42780891
  PAW double counting   =      1213.02401820    -1215.75521088
  entropy T*S    EENTRO =         0.00000000
  eigenvalues    EBANDS =      -203.19211578
  atomic energy  EATOM  =       596.16534815
  Solvation  Ediel_sol  =         0.00000000
  ---------------------------------------------------
  free energy    TOTEN  =       -34.20441871 eV

  energy without entropy =      -34.20441871  energy(sigma->0) =      -34.20441871


--------------------------------------------------------------------------------------------------------




----------------------------------------- Iteration    1(  20)  ---------------------------------------


    POTLOK:  cpu time   23.7514: real time   23.7329
    SETDIJ:  cpu time    0.0090: real time    0.0085
     EDDAV:  cpu time   62.1665: real time   62.1158
       DOS:  cpu time    0.0000: real time    0.0002
    --------------------------------------------
      LOOP:  cpu time   85.9289: real time   85.8616

 eigenvalue-minimisations  :    92
 total energy-change (2. order) :-0.8611519E-04  (-0.5459070E-06)
 number of electron      15.9999998 magnetization 
 augmentation part        0.3949478 magnetization 

 Free energy of the ion-electron system (eV)
  ---------------------------------------------------
  alpha Z        PSCENC =         0.04144063
  Ewald energy   TEWEN  =       695.11567674
  -Hartree energ DENC   =     -1174.03319328
  -exchange      EXHF   =         0.00000000
  -V(xc)+E(xc)   XCENC  =        54.42765826
  PAW double counting   =      1213.01415454    -1215.74534735
  entropy T*S    EENTRO =         0.00000000
  eigenvalues    EBANDS =      -203.19024251
  atomic energy  EATOM  =       596.16534815
  Solvation  Ediel_sol  =         0.00000000
  ---------------------------------------------------
  free energy    TOTEN  =       -34.20450483 eV

  energy without entropy =      -34.20450483  energy(sigma->0) =      -34.20450483


--------------------------------------------------------------------------------------------------------




 average (electrostatic) potential at core
  the test charge radii are     0.5201  0.6991  0.7089
  (the norm of the test charge is              1.0000)
       1 -43.0226       2 -43.0213       3 -42.8064       4 -60.3899       5 -59.7733
       6 -74.3251
 
 
 
 E-fermi :  -6.4063     XC(G=0):  -0.0911     alpha+bet : -0.0137


 k-point     1 :       0.2500    0.2500    0.2500
  band No.  band energies     occupation 
      1     -23.7035      2.00000
      2     -18.0166      2.00000
      3     -12.1528      2.00000
      4     -11.5268      2.00000
      5     -10.9136      2.00000
      6      -9.4624      2.00000
      7      -8.4174      2.00000
      8      -7.4021      2.00000
      9      -3.1407      0.00000
     10      -0.6548      0.00000
     11      -0.3939      0.00000
     12      -0.0046      0.00000

 k-point     2 :      -0.2500    0.2500    0.2500
  band No.  band energies     occupation 
      1     -23.7035      2.00000
      2     -18.0165      2.00000
      3     -12.1528      2.00000
      4     -11.5268      2.00000
      5     -10.9136      2.00000
      6      -9.4624      2.00000
      7      -8.4174      2.00000
      8      -7.4021      2.00000
      9      -3.1407      0.00000
     10      -0.6549      0.00000
     11      -0.3939      0.00000
     12      -0.0068      0.00000

 k-point     3 :       0.2500   -0.2500    0.2500
  band No.  band energies     occupation 
      1     -23.7035      2.00000
      2     -18.0165      2.00000
      3     -12.1528      2.00000
      4     -11.5268      2.00000
      5     -10.9136      2.00000
      6      -9.4624      2.00000
      7      -8.4174      2.00000
      8      -7.4021      2.00000
      9      -3.1407      0.00000
     10      -0.6549      0.00000
     11      -0.3939      0.00000
     12      -0.0064      0.00000

 k-point     4 :      -0.2500   -0.2500    0.2500
  band No.  band energies     occupation 
      1     -23.7035      2.00000
      2     -18.0165      2.00000
      3     -12.1528      2.00000
      4     -11.5268      2.00000
      5     -10.9136      2.00000
      6      -9.4624      2.00000
      7      -8.4174      2.00000
      8      -7.4021      2.00000
      9      -3.1407      0.00000
     10      -0.6549      0.00000
     11      -0.3939      0.00000
     12      -0.0060      0.00000


--------------------------------------------------------------------------------------------------------


 soft charge-density along one line, spin component           1
         0         1         2         3         4         5         6         7         8         9
 total charge-density along one line
 
 pseudopotential strength for first ion, spin component:           1
 -2.361  -4.073  -0.002   0.000   0.000
 -4.073  -6.939  -0.006   0.000  -0.001
 -0.002  -0.006  -0.329   0.000   0.001
  0.000   0.000   0.000  -0.334   0.000
  0.000  -0.001   0.001   0.000  -0.333
 total augmentation occupancy for first ion, spin component:           1
  3.561  -0.643   0.448   0.011   0.106
 -0.643   0.133  -0.082  -0.002  -0.021
  0.448  -0.082   0.057   0.001   0.011
  0.011  -0.002   0.001   0.009   0.000
  0.106  -0.021   0.011   0.000   0.011


------------------------ aborting loop because EDIFF is reached ----------------------------------------


    CHARGE:  cpu time    5.9571: real time    5.9526
    FORLOC:  cpu time    3.0045: real time    3.0017
    FORNL :  cpu time   18.3692: real time   18.3536
    STRESS:  cpu time   57.4633: real time   57.4160
    FORCOR:  cpu time   23.5314: real time   23.5121
    FORHAR:  cpu time    8.1048: real time    8.0979
    MIXING:  cpu time    1.4198: real time    1.4189
    OFIELD:  cpu time    0.0000: real time    0.0000

  FORCE on cell =-STRESS in cart. coord.  units (eV):
  Direction    XX          YY          ZZ          XY          YZ          ZX
  --------------------------------------------------------------------------------------
  Alpha Z     0.04144     0.04144     0.04144
  Ewald     359.34287    95.35742   240.41551    72.71657    89.90740    45.80384
  Hartree   497.72132   309.99272   366.31814    41.81930    35.40266    14.80505
  E(xc)     -59.26331   -59.56849   -59.04611     0.14970     0.31461     0.16708
  Local   -1017.63361  -575.18063  -765.55883  -111.70234  -119.07459   -58.90784
  n-local   -18.14032   -23.64432   -27.71741    -0.65193    -2.81000    -3.25523
  augment     0.22981     0.64311     0.63803     0.02183     0.04249     0.21365
  Kinetic   238.25910   251.61290   243.30816    -1.39080    -3.78454     2.86364
  Fock        0.00000     0.00000     0.00000     0.00000     0.00000     0.00000
  -------------------------------------------------------------------------------------
  Total       0.55730    -0.74584    -1.60106     0.96232    -0.00199     1.69020
  in kB       0.03307    -0.04426    -0.09501     0.05710    -0.00012     0.10030
  external pressure =       -0.04 kB  Pullay stress =        0.00 kB


 VOLUME and BASIS-vectors are now :
 -----------------------------------------------------------------------------
  energy-cutoff  :      400.00
  volume of cell :    27000.00
      direct lattice vectors                 reciprocal lattice vectors
    30.000000000  0.000000000  0.000000000     0.033333333  0.000000000  0.000000000
     0.000000000 30.000000000  0.000000000     0.000000000  0.033333333  0.000000000
     0.000000000  0.000000000 30.000000000     0.000000000  0.000000000  0.033333333

  length of vectors
    30.000000000 30.000000000 30.000000000     0.033333333  0.033333333  0.033333333


 FORCES acting on ions
    electron-ion (+dipol)            ewald-force                    non-local-force                 convergence-correction
 -----------------------------------------------------------------------------------------------
   0.272E+02 0.607E+02 -.661E-01   -.289E+02 -.666E+02 -.183E+00   0.130E+01 0.574E+01 0.131E+00   -.158E-04 -.909E-04 0.783E-05
   0.430E+02 -.328E+02 0.388E+02   -.462E+02 0.360E+02 -.428E+02   0.283E+01 -.336E+01 0.391E+01   -.425E-04 0.613E-04 -.562E-04
   0.267E+02 -.190E+02 -.566E+02   -.273E+02 0.209E+02 0.615E+02   0.938E+00 -.199E+01 -.517E+01   0.153E-04 0.460E-04 0.105E-03
   0.955E+02 0.131E+02 -.771E+01   -.102E+03 -.139E+02 0.859E+01   0.674E+01 0.593E+00 -.131E+01   0.209E-03 0.705E-04 0.796E-04
   -.378E+02 0.767E+02 0.198E+03   0.387E+02 -.834E+02 -.214E+03   -.177E+01 0.687E+01 0.170E+02   0.832E-04 0.255E-03 0.555E-03
   -.153E+03 -.924E+02 -.158E+03   0.166E+03 0.107E+03 0.187E+03   -.117E+02 -.142E+02 -.290E+02   -.324E-03 -.450E-04 -.995E-05
 -----------------------------------------------------------------------------------------------
   0.165E+01 0.636E+01 0.144E+02   0.000E+00 0.000E+00 0.000E+00   -.165E+01 -.636E+01 -.144E+02   -.750E-04 0.297E-03 0.681E-03
 
 
 POSITION                                       TOTAL-FORCE (eV/Angst)
 -----------------------------------------------------------------------------------
     14.33147     13.86825     14.96879        -0.337681     -0.142297     -0.119150
     14.04852     15.54216     14.27347        -0.343773     -0.085015     -0.143099
     14.41480     15.32161     16.01427         0.365761     -0.058071     -0.290732
     14.58090     14.92614     14.99418        -0.152809     -0.207629     -0.430504
     16.11246     14.92559     14.37174        -0.909239      0.189996      0.809689
     16.51216     15.41681     15.37756         1.377741      0.303016      0.173796
 -----------------------------------------------------------------------------------
    total drift:                                0.001256      0.000365      0.005314


--------------------------------------------------------------------------------------------------------



  FREE ENERGIE OF THE ION-ELECTRON SYSTEM (eV)
  ---------------------------------------------------
  free  energy   TOTEN  =       -34.20450483 eV

  energy  without entropy=      -34.20450483  energy(sigma->0) =      -34.20450483
 


--------------------------------------------------------------------------------------------------------


    POTLOK:  cpu time   20.9928: real time   20.9761


--------------------------------------------------------------------------------------------------------


 NEB: the previous image is higher in energy: T
 NEB: the next image is higher in energy    : F
 NEB: only prev energy greater

 NEB: Tangent
 ----------------------------------------------
     -0.16562     -0.06877     -0.05722
     -0.16656     -0.04131     -0.06890
      0.17421     -0.02783     -0.13910
     -0.07539     -0.10038     -0.20652
     -0.43414      0.08912      0.38749
      0.66750      0.14918      0.08425

 NEB: forces: par spring, perp REAL, dneb     0.000663    0.017482    0.000000
 NEB: distance to prev, next image, angle between     0.357699    0.357567  159.602067
 NEB: projections on to tangent (spring, REAL)    -0.000663    2.075122

 stress matrix after NEB project (eV)
      0.55730      0.96232      1.69020
      0.96232     -0.74584     -0.00199
      1.69020     -0.00199     -1.60106
  FORCES: max atom, RMS     0.010879    0.007142
  FORCE total and by dimension    0.017494    0.008051
  Stress total and by dimension    3.316020    1.690205
 
 OPT: Flag T
 OPT: FIRE Step
 OPT: FIRE, TIMESTEP      0.10000
 OPT: FIRE, alpha         0.10000


--------------------------------------------------------------------------------------------------------


    WAVPRE:  cpu time    9.8405: real time    9.8327
 FEWALD executed in parallel
    FEWALD:  cpu time    0.0000: real time    0.0003
    ORTHCH:  cpu time    6.8140: real time    6.8083
     LOOP+:  cpu time 2410.9235: real time 2409.2376


----------------------------------------- Iteration    2(   1)  ---------------------------------------


    POTLOK:  cpu time   26.6899: real time   26.6695
    SETDIJ:  cpu time    0.0090: real time    0.0087
     EDDAV:  cpu time   54.8547: real time   54.8103
       DOS:  cpu time    0.0000: real time    0.0002
    CHARGE:  cpu time    6.2111: real time    6.2067
    MIXING:  cpu time    0.6449: real time    0.6451
    --------------------------------------------
      LOOP:  cpu time   88.4136: real time   88.3433

 eigenvalue-minimisations  :    72
 total energy-change (2. order) :-0.1108400E-03  (-0.8222644E-05)
 number of electron      15.9999998 magnetization 
 augmentation part        0.3949932 magnetization 

 Broyden mixing:
  rms(total) = 0.23222E-03    rms(broyden)= 0.22959E-03
  rms(prec ) = 0.23698E-03
  weight for this iteration     100.00

 Free energy of the ion-electron system (eV)
  ---------------------------------------------------
  alpha Z        PSCENC =         0.04144063
  Ewald energy   TEWEN  =       695.16568223
  -Hartree energ DENC   =     -1174.06929480
  -exchange      EXHF   =         0.00000000
  -V(xc)+E(xc)   XCENC  =        54.42828230
  PAW double counting   =      1213.02166568    -1215.75287419
  entropy T*S    EENTRO =         0.00000000
  eigenvalues    EBANDS =      -203.20477954
  atomic energy  EATOM  =       596.16534815
  Solvation  Ediel_sol  =         0.00000000
  ---------------------------------------------------
  free energy    TOTEN  =       -34.20452955 eV

  energy without entropy =      -34.20452955  energy(sigma->0) =      -34.20452955


--------------------------------------------------------------------------------------------------------




----------------------------------------- Iteration    2(   2)  ---------------------------------------


    POTLOK:  cpu time   22.6706: real time   22.6522
    SETDIJ:  cpu time    0.0080: real time    0.0083
     EDDAV:  cpu time   64.7222: real time   64.6692
       DOS:  cpu time    0.0000: real time    0.0002
    CHARGE:  cpu time    5.9301: real time    5.9259
    MIXING:  cpu time    0.6849: real time    0.6842
    --------------------------------------------
      LOOP:  cpu time   94.0177: real time   93.9439

 eigenvalue-minimisations  :    96
 total energy-change (2. order) :-0.8081501E-05  (-0.4221333E-06)
 number of electron      15.9999998 magnetization 
 augmentation part        0.3949954 magnetization 

 Broyden mixing:
  rms(total) = 0.15833E-03    rms(broyden)= 0.15814E-03
  rms(prec ) = 0.16326E-03
  weight for this iteration     100.00

 eigenvalues of (default mixing * dielectric matrix)
  average eigenvalue GAMMA=   1.2523
  1.2523

 Free energy of the ion-electron system (eV)
  ---------------------------------------------------
  alpha Z        PSCENC =         0.04144063
  Ewald energy   TEWEN  =       695.16568223
  -Hartree energ DENC   =     -1174.07235773
  -exchange      EXHF   =         0.00000000
  -V(xc)+E(xc)   XCENC  =        54.42838701
  PAW double counting   =      1213.08519930    -1215.81646432
  entropy T*S    EENTRO =         0.00000000
  eigenvalues    EBANDS =      -203.20177291
  atomic energy  EATOM  =       596.16534815
  Solvation  Ediel_sol  =         0.00000000
  ---------------------------------------------------
  free energy    TOTEN  =       -34.20453763 eV

  energy without entropy =      -34.20453763  energy(sigma->0) =      -34.20453763


--------------------------------------------------------------------------------------------------------




----------------------------------------- Iteration    2(   3)  ---------------------------------------


    POTLOK:  cpu time   22.7145: real time   22.6968
    SETDIJ:  cpu time    0.0080: real time    0.0082
     EDDAV:  cpu time   59.8079: real time   59.7599
       DOS:  cpu time    0.0000: real time    0.0002
    CHARGE:  cpu time    5.8851: real time    5.8799
    MIXING:  cpu time    0.7059: real time    0.7055
    --------------------------------------------
      LOOP:  cpu time   89.1245: real time   89.0551

 eigenvalue-minimisations  :    88
 total energy-change (2. order) :-0.7639602E-05  (-0.4618408E-07)
 number of electron      15.9999998 magnetization 
 augmentation part        0.3949990 magnetization 

 Broyden mixing:
  rms(total) = 0.98574E-04    rms(broyden)= 0.98545E-04
  rms(prec ) = 0.10252E-03
  weight for this iteration     100.00

 eigenvalues of (default mixing * dielectric matrix)
  average eigenvalue GAMMA=   1.5890
  0.9735  2.2045

 Free energy of the ion-electron system (eV)
  ---------------------------------------------------
  alpha Z        PSCENC =         0.04144063
  Ewald energy   TEWEN  =       695.16568223
  -Hartree energ DENC   =     -1174.07436661
  -exchange      EXHF   =         0.00000000
  -V(xc)+E(xc)   XCENC  =        54.42845796
  PAW double counting   =      1213.14642770    -1215.87773866
  entropy T*S    EENTRO =         0.00000000
  eigenvalues    EBANDS =      -203.19979667
  atomic energy  EATOM  =       596.16534815
  Solvation  Ediel_sol  =         0.00000000
  ---------------------------------------------------
  free energy    TOTEN  =       -34.20454527 eV

  energy without entropy =      -34.20454527  energy(sigma->0) =      -34.20454527


--------------------------------------------------------------------------------------------------------




----------------------------------------- Iteration    2(   4)  ---------------------------------------


    POTLOK:  cpu time   22.6236: real time   22.6057
    SETDIJ:  cpu time    0.0080: real time    0.0082
     EDDAV:  cpu time   51.6691: real time   51.6268
[...]
  Solvation  Ediel_sol  =         0.00000000
  ---------------------------------------------------
  free energy    TOTEN  =       -34.39050226 eV

  energy without entropy =      -34.39050226  energy(sigma->0) =      -34.39050226


--------------------------------------------------------------------------------------------------------




----------------------------------------- Iteration  135(   2)  ---------------------------------------


    POTLOK:  cpu time   28.8446: real time   28.8209
    SETDIJ:  cpu time    0.0080: real time    0.0084
     EDDAV:  cpu time   45.6031: real time   45.5660
       DOS:  cpu time    0.0000: real time    0.0002
    CHARGE:  cpu time    6.5160: real time    6.5112
    MIXING:  cpu time    0.7449: real time    0.7442
    --------------------------------------------
      LOOP:  cpu time   81.7186: real time   81.6542

 eigenvalue-minimisations  :    48
 total energy-change (2. order) :-0.5328275E-08  (-0.5589478E-08)
 number of electron      15.9999996 magnetization 
 augmentation part        0.4038155 magnetization 

 Broyden mixing:
  rms(total) = 0.17393E-04    rms(broyden)= 0.17371E-04
  rms(prec ) = 0.17843E-04
  weight for this iteration     100.00

 eigenvalues of (default mixing * dielectric matrix)
  average eigenvalue GAMMA=   0.9843
  0.9843

 Free energy of the ion-electron system (eV)
  ---------------------------------------------------
  alpha Z        PSCENC =         0.04144063
  Ewald energy   TEWEN  =       695.03301570
  -Hartree energ DENC   =     -1174.34203968
  -exchange      EXHF   =         0.00000000
  -V(xc)+E(xc)   XCENC  =        54.53013929
  PAW double counting   =      1238.98209496    -1241.73028166
  entropy T*S    EENTRO =         0.00000000
  eigenvalues    EBANDS =      -203.07021966
  atomic energy  EATOM  =       596.16534815
  Solvation  Ediel_sol  =         0.00000000
  ---------------------------------------------------
  free energy    TOTEN  =       -34.39050226 eV

  energy without entropy =      -34.39050226  energy(sigma->0) =      -34.39050226


--------------------------------------------------------------------------------------------------------




----------------------------------------- Iteration  135(   3)  ---------------------------------------


    POTLOK:  cpu time   26.1390: real time   26.1179
    SETDIJ:  cpu time    0.0090: real time    0.0083
     EDDAV:  cpu time   44.9142: real time   44.8784
       DOS:  cpu time    0.0000: real time    0.0002
    CHARGE:  cpu time    6.7950: real time    6.7905
    MIXING:  cpu time    0.8319: real time    0.8305
    --------------------------------------------
      LOOP:  cpu time   78.6910: real time   78.6295

 eigenvalue-minimisations  :    48
 total energy-change (2. order) :-0.3899117E-08  (-0.3281689E-08)
 number of electron      15.9999996 magnetization 
 augmentation part        0.4038148 magnetization 

 Broyden mixing:
  rms(total) = 0.10743E-04    rms(broyden)= 0.10741E-04
  rms(prec ) = 0.10955E-04
  weight for this iteration     100.00

 eigenvalues of (default mixing * dielectric matrix)
  average eigenvalue GAMMA=   1.5487
  0.8180  2.2794

 Free energy of the ion-electron system (eV)
  ---------------------------------------------------
  alpha Z        PSCENC =         0.04144063
  Ewald energy   TEWEN  =       695.03301570
  -Hartree energ DENC   =     -1174.34187127
  -exchange      EXHF   =         0.00000000
  -V(xc)+E(xc)   XCENC  =        54.53013123
  PAW double counting   =      1238.97711647    -1241.72529905
  entropy T*S    EENTRO =         0.00000000
  eigenvalues    EBANDS =      -203.07038413
  atomic energy  EATOM  =       596.16534815
  Solvation  Ediel_sol  =         0.00000000
  ---------------------------------------------------
  free energy    TOTEN  =       -34.39050227 eV

  energy without entropy =      -34.39050227  energy(sigma->0) =      -34.39050227


--------------------------------------------------------------------------------------------------------




----------------------------------------- Iteration  135(   4)  ---------------------------------------


    POTLOK:  cpu time   26.2210: real time   26.1998
    SETDIJ:  cpu time    0.0090: real time    0.0085
     EDDAV:  cpu time   44.7652: real time   44.7298
       DOS:  cpu time    0.0000: real time    0.0002
    CHARGE:  cpu time    6.9269: real time    6.9220
    MIXING:  cpu time    0.8199: real time    0.8188
    --------------------------------------------
      LOOP:  cpu time   78.7440: real time   78.6823

 eigenvalue-minimisations  :    48
 total energy-change (2. order) :-0.1024478E-07  (-0.3215844E-08)
 number of electron      15.9999996 magnetization 
 augmentation part        0.4038150 magnetization 

 Broyden mixing:
  rms(total) = 0.32868E-05    rms(broyden)= 0.32829E-05
  rms(prec ) = 0.33951E-05
  weight for this iteration     100.00

 eigenvalues of (default mixing * dielectric matrix)
  average eigenvalue GAMMA=   1.3386
  2.1780  0.9189  0.9189

 Free energy of the ion-electron system (eV)
  ---------------------------------------------------
  alpha Z        PSCENC =         0.04144063
  Ewald energy   TEWEN  =       695.03301570
  -Hartree energ DENC   =     -1174.34153988
  -exchange      EXHF   =         0.00000000
  -V(xc)+E(xc)   XCENC  =        54.53011539
  PAW double counting   =      1238.96895866    -1241.71713430
  entropy T*S    EENTRO =         0.00000000
  eigenvalues    EBANDS =      -203.07070663
  atomic energy  EATOM  =       596.16534815
  Solvation  Ediel_sol  =         0.00000000
  ---------------------------------------------------
  free energy    TOTEN  =       -34.39050228 eV

  energy without entropy =      -34.39050228  energy(sigma->0) =      -34.39050228


--------------------------------------------------------------------------------------------------------




----------------------------------------- Iteration  135(   5)  ---------------------------------------


    POTLOK:  cpu time   26.2640: real time   26.2430
    SETDIJ:  cpu time    0.0090: real time    0.0085
     EDDAV:  cpu time   43.1454: real time   43.1107
       DOS:  cpu time    0.0000: real time    0.0002
    CHARGE:  cpu time    6.7130: real time    6.7079
    MIXING:  cpu time    0.8849: real time    0.8845
    --------------------------------------------
      LOOP:  cpu time   77.0183: real time   76.9584

 eigenvalue-minimisations  :    48
 total energy-change (2. order) :-0.3620244E-08  (-0.3098203E-08)
 number of electron      15.9999996 magnetization 
 augmentation part        0.4038152 magnetization 

 Broyden mixing:
  rms(total) = 0.22985E-05    rms(broyden)= 0.22976E-05
  rms(prec ) = 0.23589E-05
  weight for this iteration     100.00

 eigenvalues of (default mixing * dielectric matrix)
  average eigenvalue GAMMA=   1.4418
  2.3072  1.5251  0.8760  1.0587

 Free energy of the ion-electron system (eV)
  ---------------------------------------------------
  alpha Z        PSCENC =         0.04144063
  Ewald energy   TEWEN  =       695.03301570
  -Hartree energ DENC   =     -1174.34157299
  -exchange      EXHF   =         0.00000000
  -V(xc)+E(xc)   XCENC  =        54.53011695
  PAW double counting   =      1238.96860513    -1241.71678135
  entropy T*S    EENTRO =         0.00000000
  eigenvalues    EBANDS =      -203.07067450
  atomic energy  EATOM  =       596.16534815
  Solvation  Ediel_sol  =         0.00000000
  ---------------------------------------------------
  free energy    TOTEN  =       -34.39050228 eV

  energy without entropy =      -34.39050228  energy(sigma->0) =      -34.39050228


--------------------------------------------------------------------------------------------------------




----------------------------------------- Iteration  135(   6)  ---------------------------------------


    POTLOK:  cpu time   26.1610: real time   26.1400
    SETDIJ:  cpu time    0.0080: real time    0.0086
     EDDAV:  cpu time   43.2434: real time   43.2071
       DOS:  cpu time    0.0000: real time    0.0002
    --------------------------------------------
      LOOP:  cpu time   69.4134: real time   69.3598

 eigenvalue-minimisations  :    48
 total energy-change (2. order) :-0.5185143E-08  (-0.3084700E-08)
 number of electron      15.9999996 magnetization 
 augmentation part        0.4038152 magnetization 

 Free energy of the ion-electron system (eV)
  ---------------------------------------------------
  alpha Z        PSCENC =         0.04144063
  Ewald energy   TEWEN  =       695.03301570
  -Hartree energ DENC   =     -1174.34159581
  -exchange      EXHF   =         0.00000000
  -V(xc)+E(xc)   XCENC  =        54.53011809
  PAW double counting   =      1238.96743579    -1241.71561238
  entropy T*S    EENTRO =         0.00000000
  eigenvalues    EBANDS =      -203.07065246
  atomic energy  EATOM  =       596.16534815
  Solvation  Ediel_sol  =         0.00000000
  ---------------------------------------------------
  free energy    TOTEN  =       -34.39050228 eV

  energy without entropy =      -34.39050228  energy(sigma->0) =      -34.39050228


--------------------------------------------------------------------------------------------------------




 average (electrostatic) potential at core
  the test charge radii are     0.5201  0.6991  0.7089
  (the norm of the test charge is              1.0000)
       1 -42.9448       2 -42.9441       3 -42.6709       4 -60.2203       5 -59.8225
       6 -74.2518
 
 
 
 E-fermi :  -6.5379     XC(G=0):  -0.0612     alpha+bet : -0.0137


 k-point     1 :       0.2500    0.2500    0.2500
  band No.  band energies     occupation 
      1     -23.6032      2.00000
      2     -18.0793      2.00000
      3     -12.1146      2.00000
      4     -11.4853      2.00000
      5     -10.9244      2.00000
      6      -9.4265      2.00000
      7      -8.4148      2.00000
      8      -7.4872      2.00000
      9      -3.3005      0.00000
     10      -0.6117      0.00000
     11      -0.3777      0.00000
     12       0.0271      0.00000

 k-point     2 :      -0.2500    0.2500    0.2500
  band No.  band energies     occupation 
      1     -23.6032      2.00000
      2     -18.0792      2.00000
      3     -12.1146      2.00000
      4     -11.4853      2.00000
      5     -10.9244      2.00000
      6      -9.4265      2.00000
      7      -8.4148      2.00000
      8      -7.4872      2.00000
      9      -3.3005      0.00000
     10      -0.6117      0.00000
     11      -0.3777      0.00000
     12       0.0247      0.00000

 k-point     3 :       0.2500   -0.2500    0.2500
  band No.  band energies     occupation 
      1     -23.6032      2.00000
      2     -18.0792      2.00000
      3     -12.1146      2.00000
      4     -11.4853      2.00000
      5     -10.9244      2.00000
      6      -9.4265      2.00000
      7      -8.4148      2.00000
      8      -7.4872      2.00000
      9      -3.3005      0.00000
     10      -0.6117      0.00000
     11      -0.3777      0.00000
     12       0.0255      0.00000

 k-point     4 :      -0.2500   -0.2500    0.2500
  band No.  band energies     occupation 
      1     -23.6032      2.00000
      2     -18.0792      2.00000
      3     -12.1146      2.00000
      4     -11.4853      2.00000
      5     -10.9244      2.00000
      6      -9.4265      2.00000
      7      -8.4148      2.00000
      8      -7.4872      2.00000
      9      -3.3005      0.00000
     10      -0.6117      0.00000
     11      -0.3777      0.00000
     12       0.0255      0.00000


--------------------------------------------------------------------------------------------------------


 soft charge-density along one line, spin component           1
         0         1         2         3         4         5         6         7         8         9
 total charge-density along one line
 
 pseudopotential strength for first ion, spin component:           1
 -2.360  -4.071  -0.002   0.000   0.000
 -4.071  -6.935  -0.006   0.000  -0.001
 -0.002  -0.006  -0.329   0.000   0.001
  0.000   0.000   0.000  -0.334   0.000
  0.000  -0.001   0.001   0.000  -0.334
 total augmentation occupancy for first ion, spin component:           1
  3.566  -0.643   0.447   0.008   0.106
 -0.643   0.133  -0.082  -0.002  -0.021
  0.447  -0.082   0.057   0.001   0.011
  0.008  -0.002   0.001   0.009   0.000
  0.106  -0.021   0.011   0.000   0.011


------------------------ aborting loop because EDIFF is reached ----------------------------------------


    CHARGE:  cpu time    6.5600: real time    6.5544
    FORLOC:  cpu time    2.8816: real time    2.8793
    FORNL :  cpu time   20.3789: real time   20.3621
    STRESS:  cpu time   59.7799: real time   59.7315
    FORCOR:  cpu time   23.9834: real time   23.9638
    FORHAR:  cpu time    8.4167: real time    8.4087
    MIXING:  cpu time    0.7889: real time    0.7895
    OFIELD:  cpu time    0.0000: real time    0.0000

  FORCE on cell =-STRESS in cart. coord.  units (eV):
  Direction    XX          YY          ZZ          XY          YZ          ZX
  --------------------------------------------------------------------------------------
  Alpha Z     0.04144     0.04144     0.04144
  Ewald     373.63195    93.32072   228.08030    80.84741    84.34698    60.45121
  Hartree   504.28338   309.53494   360.52326    45.77119    32.91010    21.63635
  E(xc)     -59.33202   -59.68450   -59.19943     0.17429     0.29393     0.21768
  Local   -1038.68153  -572.46786  -747.08910  -123.54618  -111.11584   -79.54150
  n-local   -19.51856   -24.10700   -27.70225    -0.91922    -2.58380    -3.71367
  augment     0.27754     0.60435     0.55751     0.04341     0.03024     0.23749
  Kinetic   240.78516   252.02550   242.96562    -1.15455    -3.90052     2.68681
  Fock        0.00000     0.00000     0.00000     0.00000     0.00000     0.00000
  -------------------------------------------------------------------------------------
  Total       1.48737    -0.73242    -1.82265     1.21634    -0.01891     1.97437
  in kB       0.08826    -0.04346    -0.10816     0.07218    -0.00112     0.11716
  external pressure =       -0.02 kB  Pullay stress =        0.00 kB


 VOLUME and BASIS-vectors are now :
 -----------------------------------------------------------------------------
  energy-cutoff  :      400.00
  volume of cell :    27000.00
      direct lattice vectors                 reciprocal lattice vectors
    30.000000000  0.000000000  0.000000000     0.033333333  0.000000000  0.000000000
     0.000000000 30.000000000  0.000000000     0.000000000  0.033333333  0.000000000
     0.000000000  0.000000000 30.000000000     0.000000000  0.000000000  0.033333333

  length of vectors
    30.000000000 30.000000000 30.000000000     0.033333333  0.033333333  0.033333333


 FORCES acting on ions
    electron-ion (+dipol)            ewald-force                    non-local-force                 convergence-correction
 -----------------------------------------------------------------------------------------------
   0.270E+02 0.608E+02 -.163E+00   -.287E+02 -.667E+02 -.815E-01   0.128E+01 0.573E+01 0.808E-01   0.388E-06 -.207E-05 -.515E-06
   0.433E+02 -.328E+02 0.384E+02   -.466E+02 0.361E+02 -.424E+02   0.287E+01 -.339E+01 0.384E+01   -.201E-06 -.101E-05 -.103E-05
   0.260E+02 -.189E+02 -.568E+02   -.265E+02 0.208E+02 0.616E+02   0.848E+00 -.198E+01 -.517E+01   0.521E-06 -.105E-05 0.245E-06
   0.969E+02 0.139E+02 -.698E+01   -.104E+03 -.146E+02 0.803E+01   0.636E+01 0.474E+00 -.154E+01   -.320E-06 -.637E-05 -.484E-06
   -.295E+02 0.741E+02 0.196E+03   0.294E+02 -.799E+02 -.210E+03   -.878E+00 0.605E+01 0.153E+02   0.828E-05 -.530E-05 0.161E-06
   -.162E+03 -.900E+02 -.153E+03   0.176E+03 0.104E+03 0.183E+03   -.125E+02 -.140E+02 -.291E+02   0.797E-05 -.577E-05 0.284E-05
 -----------------------------------------------------------------------------------------------
   0.202E+01 0.707E+01 0.166E+02   0.000E+00 0.000E+00 0.000E+00   -.202E+01 -.708E+01 -.166E+02   0.166E-04 -.216E-04 0.122E-05
 
 
 POSITION                                       TOTAL-FORCE (eV/Angst)
 -----------------------------------------------------------------------------------
     14.32420     13.86082     14.95956        -0.442313     -0.161587     -0.164598
     14.03220     15.53652     14.26889        -0.456847     -0.127855     -0.176407
     14.42501     15.31396     16.00284         0.326565     -0.089212     -0.357135
     14.57408     14.91813     14.97912        -0.235152     -0.239159     -0.495721
     16.08262     14.94759     14.40912        -1.052536      0.271162      1.126148
     16.56220     15.42355     15.38047         1.860283      0.346652      0.067712
 -----------------------------------------------------------------------------------
    total drift:                               -0.000334     -0.004922      0.007035


--------------------------------------------------------------------------------------------------------



  FREE ENERGIE OF THE ION-ELECTRON SYSTEM (eV)
  ---------------------------------------------------
  free  energy   TOTEN  =       -34.39050228 eV

  energy  without entropy=      -34.39050228  energy(sigma->0) =      -34.39050228
 
 d Force =-0.1191576E-04[-0.119E-04,-0.119E-04]  d Energy =-0.1187277E-04-0.430E-07
 d Force = 0.2947125E-02[ 0.295E-02, 0.295E-02]  d Ewald  = 0.2947125E-02-0.550E-10


--------------------------------------------------------------------------------------------------------


    POTLOK:  cpu time   23.5744: real time   23.5548


--------------------------------------------------------------------------------------------------------


 NEB: the previous image is higher in energy: T
 NEB: the next image is higher in energy    : F
 NEB: only prev energy greater

 NEB: Tangent
 ----------------------------------------------
     -0.16594     -0.06049     -0.06132
     -0.17071     -0.04789     -0.06614
      0.12229     -0.03330     -0.13369
     -0.08804     -0.08950     -0.18544
     -0.39385      0.10201      0.42137
      0.69624      0.12918      0.02523

 NEB: forces: par spring, perp REAL, dneb     0.000304    0.002620    0.000000
 NEB: distance to prev, next image, angle between     0.346672    0.346733  161.247916
 NEB: projections on to tangent (spring, REAL)     0.000304    2.672147

 stress matrix after NEB project (eV)
      1.48737      1.21634      1.97437
      1.21634     -0.73242     -0.01891
      1.97437     -0.01891     -1.82265
  FORCES: max atom, RMS     0.001530    0.001077
  FORCE total and by dimension    0.002637    0.001500
  Stress total and by dimension    4.102031    1.974367
 OPT: skip step - force has converged


--------------------------------------------------------------------------------------------------------


  
 reached required accuracy - stopping structural energy minimisation
     LOOP+:  cpu time  680.8775: real time  680.3522
    4ORBIT:  cpu time    0.0000: real time    0.0000

 total amount of memory used by VASP on root node  3203889. kBytes
========================================================================

   base      :      30000. kBytes
   nonlr-proj:        693. kBytes
   fftplans  :     924480. kBytes
   grid      :    1872000. kBytes
   one-center:         18. kBytes
   wavefun   :     376698. kBytes
 
  
  
 General timing and accounting informations for this job:
 ========================================================
  
                  Total CPU time used (sec):    97162.109
                            User time (sec):    95648.461
                          System time (sec):     1513.645
                         Elapsed time (sec):    97128.458
  
                   Maximum memory used (kb):     4750960.
                   Average memory used (kb):           0.
  
                          Minor page faults:    112035332
                          Major page faults:            7
                 Voluntary context switches:        15501
