unknown system                          
           1
    30.000000    0.000000    0.000000
     0.000000   30.000000    0.000000
     0.000000    0.000000   30.000000
   H    C    N 
   3   2   1
Direct configuration=     1
   0.47771763  0.46227511  0.49895952
   0.46828453  0.51807220  0.47578215
   0.48049477  0.51072038  0.53380836
   0.48603111  0.49753828  0.49980544
   0.53707943  0.49752149  0.47905963
   0.55040260  0.51389149  0.51258486
Direct configuration=     2
   0.47772054  0.46227478  0.49895874
   0.46828476  0.51807239  0.47578142
   0.48049869  0.51071996  0.53380605
   0.48603260  0.49753791  0.49980271
   0.53706961  0.49752377  0.47906247
   0.55040386  0.51389015  0.51258858
Direct configuration=     3
   0.47772179  0.46227268  0.49895626
   0.46828219  0.51807188  0.47577870
   0.48050761  0.51071880  0.53380007
   0.48603284  0.49753535  0.49979488
   0.53704763  0.49752876  0.47907361
   0.55041800  0.51389148  0.51259643
Direct configuration=     4
   0.47771796  0.46226710  0.49895068
   0.46827354  0.51806984  0.47577219
   0.48052512  0.51071631  0.53378751
   0.48603010  0.49752855  0.49977803
   0.53700824  0.49754146  0.47910711
   0.55045509  0.51389567  0.51260444
Direct configuration=     5
   0.47770559  0.46225610  0.49894034
   0.46825540  0.51806532  0.47575985
   0.48055531  0.51071174  0.53376502
   0.48602254  0.49751518  0.49974777
   0.53694323  0.49756559  0.47917436
   0.55052799  0.51390502  0.51261262
Direct configuration=     6
   0.47768180  0.46223812  0.49892369
   0.46822491  0.51805748  0.47573984
   0.48060231  0.51070434  0.53372906
   0.48600834  0.49749335  0.49970058
   0.53684289  0.49760173  0.47928104
   0.55064981  0.51392393  0.51262575
Direct configuration=     7
   0.47763917  0.46220831  0.49889621
   0.46817369  0.51804374  0.47570688
   0.48067994  0.51069170  0.53366878
   0.48598233  0.49745699  0.49962480
   0.53668436  0.49766050  0.47945727
   0.55085057  0.51395770  0.51264602
Direct configuration=     8
   0.47756987  0.46216240  0.49885463
   0.46809321  0.51802184  0.47565723
   0.48080369  0.51067174  0.53357329
   0.48593650  0.49740130  0.49951137
   0.53646021  0.49775748  0.47974190
   0.55114659  0.51400419  0.51266153
Direct configuration=     9
   0.47747440  0.46210708  0.49879965
   0.46798502  0.51798824  0.47559609
   0.48093535  0.51064140  0.53345142
   0.48585861  0.49733565  0.49938432
   0.53620808  0.49787298  0.48007790
   0.55154859  0.51407359  0.51269059
Direct configuration=    10
   0.47747338  0.46210823  0.49879943
   0.46798404  0.51798718  0.47559673
   0.48092520  0.51064093  0.53345470
   0.48585794  0.49733711  0.49938810
   0.53622188  0.49787609  0.48008133
   0.55154762  0.51406941  0.51267967
Direct configuration=    11
   0.47747141  0.46211053  0.49879918
   0.46798213  0.51798518  0.47559817
   0.48090552  0.51064013  0.53346134
   0.48585664  0.49733988  0.49939527
   0.53624513  0.49787781  0.48007917
   0.55154923  0.51406541  0.51266684
Direct configuration=    12
   0.47746867  0.46211380  0.49879901
   0.46797951  0.51798244  0.47560043
   0.48087890  0.51063920  0.53347064
   0.48585503  0.49734352  0.49940451
   0.53627102  0.49787382  0.48006342
   0.55155692  0.51406618  0.51266195
Direct configuration=    13
   0.47746479  0.46211754  0.49879892
   0.46797579  0.51797906  0.47560329
   0.48084859  0.51063817  0.53348138
   0.48585368  0.49734742  0.49941409
   0.53629668  0.49786564  0.48003835
   0.55157053  0.51407112  0.51266394
Direct configuration=    14
   0.47745827  0.46212083  0.49879862
   0.46796945  0.51797486  0.47560626
   0.48081887  0.51063689  0.53349140
   0.48585272  0.49735073  0.49942158
   0.53632346  0.49786132  0.48002212
   0.55158728  0.51407432  0.51265999
Direct configuration=    15
   0.47745773  0.46212069  0.49879854
   0.46796890  0.51797471  0.47560621
   0.48081938  0.51063682  0.53349103
   0.48585276  0.49735055  0.49942110
   0.53632341  0.49786234  0.48002455
   0.55158790  0.51407383  0.51265853
Direct configuration=    16
   0.47745630  0.46212029  0.49879834
   0.46796743  0.51797436  0.47560604
   0.48082073  0.51063664  0.53349010
   0.48585263  0.49735006  0.49941988
   0.53632292  0.49786438  0.48002944
   0.55159005  0.51407322  0.51265616
Direct configuration=    17
   0.47745391  0.46211961  0.49879806
   0.46796494  0.51797382  0.47560580
   0.48082311  0.51063640  0.53348864
   0.48585232  0.49734924  0.49941797
   0.53632223  0.49786713  0.48003585
   0.55159355  0.51407275  0.51265364
Direct configuration=    18
   0.47745061  0.46211868  0.49879774
   0.46796148  0.51797310  0.47560552
   0.48082646  0.51063610  0.53348667
   0.48585185  0.49734810  0.49941538
   0.53632098  0.49787021  0.48004292
   0.55159867  0.51407277  0.51265173
Direct configuration=    19
   0.47744652  0.46211757  0.49879737
   0.46795717  0.51797219  0.47560523
   0.48083066  0.51063573  0.53348426
   0.48585129  0.49734667  0.49941219
   0.53631890  0.49787320  0.48004983
   0.55160552  0.51407357  0.51265108
Direct configuration=    20
   0.47744178  0.46211635  0.49879696
   0.46795216  0.51797111  0.47560494
   0.48083554  0.51063531  0.53348145
   0.48585065  0.49734499  0.49940855
   0.53631589  0.49787596  0.48005618
   0.55161403  0.51407523  0.51265189
Direct configuration=    21
   0.47743590  0.46211493  0.49879645
   0.46794592  0.51796972  0.47560465
   0.48084161  0.51063474  0.53347791
   0.48584985  0.49734288  0.49940408
   0.53631159  0.49787871  0.48006255
   0.55162519  0.51407797  0.51265433
Direct configuration=    22
   0.47742867  0.46211331  0.49879582
   0.46793823  0.51796792  0.47560435
   0.48084902  0.51063399  0.53347344
   0.48584883  0.49734027  0.49939873
   0.53630603  0.49788187  0.48006977
   0.55163927  0.51408159  0.51265786
Direct configuration=    23
   0.47741997  0.46211153  0.49879498
   0.46792896  0.51796559  0.47560406
   0.48085782  0.51063296  0.53346788
   0.48584751  0.49733716  0.49939247
   0.53629979  0.49788640  0.48007986
   0.55165600  0.51408532  0.51266072
Direct configuration=    24
   0.47740995  0.46210965  0.49879389
   0.46791827  0.51796267  0.47560378
   0.48086773  0.51063162  0.53346123
   0.48584583  0.49733362  0.49938544
   0.53629349  0.49789313  0.48009455
   0.55167480  0.51408826  0.51266107
Direct configuration=    25
   0.47739889  0.46210786  0.49879248
   0.46790642  0.51795907  0.47560357
   0.48087825  0.51062990  0.53345361
   0.48584375  0.49732980  0.49937787
   0.53628695  0.49790205  0.48011392
   0.55169580  0.51409026  0.51265851
Direct configuration=    26
   0.47738768  0.46210663  0.49879062
   0.46789428  0.51795459  0.47560363
   0.48088794  0.51062776  0.53344555
   0.48584145  0.49732601  0.49937027
   0.53627736  0.49791058  0.48013277
   0.55172135  0.51409339  0.51265712
Direct configuration=    27
   0.47738778  0.46210669  0.49879060
   0.46789437  0.51795456  0.47560365
   0.48088772  0.51062775  0.53344563
   0.48584149  0.49732605  0.49937032
   0.53627708  0.49791039  0.48013241
   0.55172161  0.51409352  0.51265736
Direct configuration=    28
   0.47738799  0.46210680  0.49879054
   0.46789455  0.51795449  0.47560368
   0.48088729  0.51062773  0.53344578
   0.48584159  0.49732612  0.49937042
   0.53627653  0.49791005  0.48013177
   0.55172211  0.51409376  0.51265777
Direct configuration=    29
   0.47738828  0.46210698  0.49879044
   0.46789480  0.51795438  0.47560373
   0.48088664  0.51062769  0.53344600
   0.48584174  0.49732623  0.49937057
   0.53627576  0.49790964  0.48013099
   0.55172284  0.51409403  0.51265823
Direct configuration=    30
   0.47738865  0.46210721  0.49879031
   0.46789511  0.51795421  0.47560379
   0.48088577  0.51062763  0.53344626
   0.48584194  0.49732636  0.49937075
   0.53627482  0.49790929  0.48013032
   0.55172377  0.51409425  0.51265853
Direct configuration=    31
   0.47738906  0.46210748  0.49879012
   0.46789543  0.51795399  0.47560385
   0.48088475  0.51062754  0.53344655
   0.48584218  0.49732651  0.49937095
   0.53627381  0.49790910  0.48012999
   0.55172483  0.51409433  0.51265850
Direct configuration=    32
   0.47738947  0.46210777  0.49878989
   0.46789574  0.51795371  0.47560391
   0.48088362  0.51062742  0.53344682
   0.48584244  0.49732666  0.49937115
   0.53627279  0.49790915  0.48013013
   0.55172599  0.51409424  0.51265806
Direct configuration=    33
   0.47738989  0.46210812  0.49878958
   0.46789603  0.51795332  0.47560398
   0.48088232  0.51062725  0.53344708
   0.48584276  0.49732682  0.49937134
   0.53627163  0.49790952  0.48013089
   0.55172743  0.51409393  0.51265711
Direct configuration=    34
   0.47739029  0.46210851  0.49878916
   0.46789625  0.51795279  0.47560403
   0.48088083  0.51062699  0.53344728
   0.48584310  0.49732695  0.49937148
   0.53627023  0.49791029  0.48013240
   0.55172935  0.51409341  0.51265561
Direct configuration=    35
   0.47739061  0.46210895  0.49878859
   0.46789632  0.51795206  0.47560407
   0.48087918  0.51062663  0.53344736
   0.48584346  0.49732704  0.49937154
   0.53626833  0.49791150  0.48013469
   0.55173215  0.51409277  0.51265372
Direct configuration=    36
   0.47739078  0.46210940  0.49878781
   0.46789614  0.51795106  0.47560407
   0.48087741  0.51062612  0.53344724
   0.48584378  0.49732703  0.49937142
   0.53626554  0.49791310  0.48013759
   0.55173641  0.51409224  0.51265183
Direct configuration=    37
   0.47739069  0.46210983  0.49878678
   0.46789556  0.51794972  0.47560401
   0.48087559  0.51062540  0.53344681
   0.48584396  0.49732686  0.49937102
   0.53626141  0.49791509  0.48014094
   0.55174286  0.51409205  0.51265039
Direct configuration=    38
   0.47739020  0.46211013  0.49878540
   0.46789434  0.51794795  0.47560384
   0.48087382  0.51062441  0.53344595
   0.48584385  0.49732644  0.49937018
   0.53625558  0.49791772  0.48014508
   0.55175227  0.51409229  0.51264951
Direct configuration=    39
   0.47738913  0.46211013  0.49878356
   0.46789217  0.51794568  0.47560343
   0.48087218  0.51062306  0.53344451
   0.48584320  0.49732562  0.49936871
   0.53624796  0.49792174  0.48015116
   0.55176540  0.51409271  0.51264859
Direct configuration=    40
   0.47738766  0.46210964  0.49878121
   0.46788893  0.51794289  0.47560277
   0.48087050  0.51062128  0.53344261
   0.48584180  0.49732439  0.49936673
   0.53623932  0.49792827  0.48016018
   0.55178185  0.51409248  0.51264647
Direct configuration=    41
   0.47738630  0.46210837  0.49877830
   0.46788460  0.51793968  0.47560183
   0.48086819  0.51061897  0.53344068
   0.48583930  0.49732282  0.49936456
   0.53623045  0.49793811  0.48017167
   0.55180120  0.51409099  0.51264292
Direct configuration=    42
   0.47738558  0.46210606  0.49877497
   0.46787912  0.51793637  0.47560062
   0.48086482  0.51061622  0.53343929
   0.48583559  0.49732110  0.49936237
   0.53622083  0.49794977  0.48018146
   0.55182412  0.51408943  0.51264126
Direct configuration=    43
   0.47738572  0.46210598  0.49877496
   0.46787907  0.51793641  0.47560061
   0.48086473  0.51061620  0.53343940
   0.48583546  0.49732113  0.49936239
   0.53622087  0.49794982  0.48018115
   0.55182421  0.51408940  0.51264146
Direct configuration=    44
   0.47738602  0.46210583  0.49877495
   0.46787897  0.51793650  0.47560059
   0.48086453  0.51061617  0.53343961
   0.48583521  0.49732119  0.49936243
   0.53622096  0.49794998  0.48018057
   0.55182437  0.51408929  0.51264180
Direct configuration=    45
   0.47738648  0.46210558  0.49877493
   0.46787881  0.51793663  0.47560057
   0.48086423  0.51061612  0.53343993
   0.48583484  0.49732127  0.49936250
   0.53622114  0.49795029  0.48017986
   0.55182457  0.51408906  0.51264218
Direct configuration=    46
   0.47738708  0.46210526  0.49877489
   0.46787858  0.51793681  0.47560052
   0.48086383  0.51061603  0.53344034
   0.48583436  0.49732136  0.49936260
   0.53622141  0.49795081  0.48017913
   0.55182478  0.51408867  0.51264248
Direct configuration=    47
   0.47738782  0.46210488  0.49877484
   0.46787829  0.51793702  0.47560046
   0.48086333  0.51061591  0.53344080
   0.48583382  0.49732147  0.49936274
   0.53622178  0.49795159  0.48017847
   0.55182500  0.51408808  0.51264265
Direct configuration=    48
   0.47738870  0.46210443  0.49877476
   0.46787794  0.51793726  0.47560039
   0.48086274  0.51061575  0.53344130
   0.48583324  0.49732158  0.49936289
   0.53622217  0.49795261  0.48017792
   0.55182526  0.51408732  0.51264270
Direct configuration=    49
   0.47738983  0.46210388  0.49877463
   0.46787748  0.51793754  0.47560029
   0.48086198  0.51061550  0.53344188
   0.48583257  0.49732169  0.49936309
   0.53622251  0.49795400  0.48017737
   0.55182569  0.51408633  0.51264270
Direct configuration=    50
   0.47739123  0.46210321  0.49877443
   0.46787688  0.51793785  0.47560016
   0.48086102  0.51061514  0.53344250
   0.48583183  0.49732178  0.49936328
   0.53622259  0.49795579  0.48017677
   0.55182652  0.51408517  0.51264283
Direct configuration=    51
   0.47739290  0.46210243  0.49877411
   0.46787609  0.51793813  0.47560002
   0.48085986  0.51061462  0.53344309
   0.48583104  0.49732183  0.49936341
   0.53622212  0.49795802  0.48017613
   0.55182804  0.51408391  0.51264319
Direct configuration=    52
   0.47739480  0.46210153  0.49877362
   0.46787506  0.51793831  0.47559988
   0.48085856  0.51061389  0.53344356
   0.48583020  0.49732180  0.49936335
   0.53622083  0.49796085  0.48017579
   0.55183061  0.51408257  0.51264376
Direct configuration=    53
   0.47739681  0.46210047  0.49877288
   0.46787361  0.51793828  0.47559971
   0.48085718  0.51061286  0.53344375
   0.48582929  0.49732161  0.49936290
   0.53621842  0.49796463  0.48017641
   0.55183475  0.51408109  0.51264431
Direct configuration=    54
   0.47739873  0.46209919  0.49877173
   0.46787151  0.51793787  0.47559951
   0.48085586  0.51061142  0.53344341
   0.48582822  0.49732114  0.49936179
   0.53621445  0.49796986  0.48017891
   0.55184128  0.51407947  0.51264461
Direct configuration=    55
   0.47740030  0.46209759  0.49876997
   0.46786836  0.51793684  0.47559923
   0.48085484  0.51060937  0.53344219
   0.48582691  0.49732019  0.49935967
   0.53620810  0.49797713  0.48018425
   0.55185155  0.51407781  0.51264465
Direct configuration=    56
   0.47740107  0.46209553  0.49876731
   0.46786354  0.51793489  0.47559874
   0.48085439  0.51060647  0.53343966
   0.48582514  0.49731850  0.49935607
   0.53619833  0.49798706  0.48019341
   0.55186759  0.51407649  0.51264477
Direct configuration=    57
   0.47740047  0.46209277  0.49876334
   0.46785617  0.51793166  0.47559789
   0.48085485  0.51060242  0.53343531
   0.48582260  0.49731573  0.49935054
   0.53618424  0.49800047  0.48020756
   0.55189173  0.51407590  0.51264531
Direct configuration=    58
   0.47739846  0.46208914  0.49875768
   0.46784563  0.51792685  0.47559667
   0.48085603  0.51059690  0.53342915
   0.48581919  0.49731185  0.49934327
   0.53616718  0.49801884  0.48022772
   0.55192356  0.51407538  0.51264547
Direct configuration=    59
   0.47739567  0.46208443  0.49874986
   0.46783132  0.51792008  0.47559544
   0.48085701  0.51058950  0.53342216
   0.48581509  0.49730686  0.49933460
   0.53614930  0.49804305  0.48025076
   0.55196167  0.51407502  0.51264714
Direct configuration=    60
   0.47739586  0.46208434  0.49874967
   0.46783110  0.51791994  0.47559553
   0.48085679  0.51058934  0.53342233
   0.48581506  0.49730688  0.49933468
   0.53614969  0.49804337  0.48025012
   0.55196155  0.51407508  0.51264763
Direct configuration=    61
   0.47739634  0.46208405  0.49874922
   0.46783053  0.51791961  0.47559577
   0.48085642  0.51058888  0.53342266
   0.48581505  0.49730684  0.49933481
   0.53615058  0.49804461  0.48024904
   0.55196113  0.51407497  0.51264846
Direct configuration=    62
   0.47739714  0.46208359  0.49874850
   0.46782965  0.51791908  0.47559614
   0.48085591  0.51058811  0.53342313
   0.48581506  0.49730675  0.49933500
   0.53615194  0.49804675  0.48024762
   0.55196036  0.51407468  0.51264958
Direct configuration=    63
   0.47739828  0.46208296  0.49874753
   0.46782848  0.51791839  0.47559666
   0.48085526  0.51058705  0.53342371
   0.48581512  0.49730660  0.49933522
   0.53615367  0.49804972  0.48024584
   0.55195925  0.51407423  0.51265100
Direct configuration=    64
   0.47739978  0.46208222  0.49874633
   0.46782708  0.51791754  0.47559731
   0.48085450  0.51058572  0.53342438
   0.48581528  0.49730641  0.49933544
   0.53615562  0.49805341  0.48024377
   0.55195780  0.51407366  0.51265273
Direct configuration=    65
   0.47740168  0.46208139  0.49874492
   0.46782550  0.51791657  0.47559809
   0.48085367  0.51058411  0.53342509
   0.48581558  0.49730621  0.49933563
   0.53615758  0.49805767  0.48024146
   0.55195605  0.51407301  0.51265476
Direct configuration=    66
   0.47740429  0.46208043  0.49874314
   0.46782362  0.51791538  0.47559910
   0.48085272  0.51058205  0.53342587
   0.48581610  0.49730600  0.49933574
   0.53615946  0.49806285  0.48023876
   0.55195386  0.51407225  0.51265736
Direct configuration=    67
   0.47740778  0.46207939  0.49874095
   0.46782145  0.51791399  0.47560033
   0.48085176  0.51057948  0.53342659
   0.48581691  0.49730582  0.49933567
   0.53616088  0.49806882  0.48023586
   0.55195128  0.51407144  0.51266056
Direct configuration=    68
   0.47741215  0.46207833  0.49873839
   0.46781898  0.51791250  0.47560171
   0.48085093  0.51057642  0.53342705
   0.48581809  0.49730581  0.49933519
   0.53616142  0.49807534  0.48023366
   0.55194849  0.51407055  0.51266395
Direct configuration=    69
   0.47741220  0.46207834  0.49873837
   0.46781896  0.51791251  0.47560170
   0.48085097  0.51057640  0.53342701
   0.48581808  0.49730581  0.49933515
   0.53616131  0.49807533  0.48023378
   0.55194854  0.51407056  0.51266394
Direct configuration=    70
   0.47741229  0.46207836  0.49873833
   0.46781891  0.51791252  0.47560168
   0.48085104  0.51057636  0.53342692
   0.48581806  0.49730580  0.49933506
   0.53616108  0.49807532  0.48023405
   0.55194868  0.51407060  0.51266393
Direct configuration=    71
   0.47741240  0.46207837  0.49873826
   0.46781881  0.51791254  0.47560164
   0.48085116  0.51057628  0.53342677
   0.48581803  0.49730578  0.49933490
   0.53616069  0.49807531  0.48023448
   0.55194897  0.51407067  0.51266391
Direct configuration=    72
   0.47741251  0.46207837  0.49873815
   0.46781865  0.51791255  0.47560157
   0.48085133  0.51057619  0.53342656
   0.48581795  0.49730573  0.49933467
   0.53616013  0.49807532  0.48023510
   0.55194948  0.51407079  0.51266391
Direct configuration=    73
   0.47741259  0.46207834  0.49873801
   0.46781841  0.51791254  0.47560147
   0.48085156  0.51057606  0.53342628
   0.48581784  0.49730565  0.49933435
   0.53615936  0.49807538  0.48023595
   0.55195030  0.51407097  0.51266390
Direct configuration=    74
   0.47741261  0.46207828  0.49873782
   0.46781807  0.51791252  0.47560132
   0.48085186  0.51057590  0.53342591
   0.48581766  0.49730553  0.49933392
   0.53615836  0.49807550  0.48023709
   0.55195149  0.51407122  0.51266390
Direct configuration=    75
   0.47741253  0.46207815  0.49873754
   0.46781754  0.51791246  0.47560111
   0.48085228  0.51057568  0.53342539
   0.48581739  0.49730533  0.49933330
   0.53615696  0.49807577  0.48023876
   0.55195336  0.51407157  0.51266386
Direct configuration=    76
   0.47741231  0.46207792  0.49873715
   0.46781678  0.51791235  0.47560080
   0.48085282  0.51057538  0.53342469
   0.48581697  0.49730502  0.49933246
   0.53615512  0.49807623  0.48024111
   0.55195604  0.51407205  0.51266375
Direct configuration=    77
   0.47741193  0.46207757  0.49873663
   0.46781575  0.51791217  0.47560038
   0.48085348  0.51057499  0.53342379
   0.48581638  0.49730461  0.49933138
   0.53615283  0.49807698  0.48024428
   0.55195969  0.51407262  0.51266349
Direct configuration=    78
   0.47741134  0.46207706  0.49873594
   0.46781440  0.51791192  0.47559984
   0.48085420  0.51057447  0.53342269
   0.48581559  0.49730406  0.49933008
   0.53615007  0.49807812  0.48024836
   0.55196446  0.51407332  0.51266305
Direct configuration=    79
   0.47741052  0.46207636  0.49873504
   0.46781269  0.51791154  0.47559917
   0.48085488  0.51057380  0.53342142
   0.48581455  0.49730336  0.49932858
   0.53614685  0.49807968  0.48025326
   0.55197056  0.51407419  0.51266249
Direct configuration=    80
   0.47740954  0.46207549  0.49873391
   0.46781070  0.51791103  0.47559842
   0.48085533  0.51057297  0.53342007
   0.48581302  0.49730239  0.49932696
   0.53614330  0.49808175  0.48025863
   0.55197816  0.51407533  0.51266197
Direct configuration=    81
   0.47740853  0.46207440  0.49873245
   0.46780856  0.51791031  0.47559762
   0.48085507  0.51057188  0.53341885
   0.48581111  0.49730119  0.49932540
   0.53613974  0.49808454  0.48026433
   0.55198704  0.51407663  0.51266131
Direct configuration=    82
   0.47740855  0.46207438  0.49873243
   0.46780857  0.51791029  0.47559763
   0.48085498  0.51057186  0.53341888
   0.48581113  0.49730120  0.49932543
   0.53613978  0.49808460  0.48026430
   0.55198705  0.51407662  0.51266129
Direct configuration=    83
   0.47740860  0.46207434  0.49873238
   0.46780859  0.51791025  0.47559765
   0.48085480  0.51057180  0.53341895
   0.48581115  0.49730121  0.49932550
   0.53613985  0.49808474  0.48026424
   0.55198707  0.51407660  0.51266125
Direct configuration=    84
   0.47740869  0.46207427  0.49873229
   0.46780861  0.51791019  0.47559769
   0.48085451  0.51057170  0.53341906
   0.48581119  0.49730122  0.49932559
   0.53613995  0.49808498  0.48026414
   0.55198711  0.51407658  0.51266120
Direct configuration=    85
   0.47740884  0.46207417  0.49873215
   0.46780863  0.51791011  0.47559774
   0.48085412  0.51057153  0.53341920
   0.48581124  0.49730121  0.49932571
   0.53614004  0.49808535  0.48026400
   0.55198719  0.51407657  0.51266117
Direct configuration=    86
   0.47740906  0.46207403  0.49873194
   0.46780863  0.51790999  0.47559781
   0.48085362  0.51057128  0.53341938
   0.48581128  0.49730118  0.49932584
   0.53614012  0.49808588  0.48026383
   0.55198734  0.51407658  0.51266117
Direct configuration=    87
   0.47740938  0.46207384  0.49873166
   0.46780861  0.51790983  0.47559791
   0.48085302  0.51057092  0.53341957
   0.48581132  0.49730111  0.49932596
   0.53614014  0.49808663  0.48026365
   0.55198759  0.51407662  0.51266122
Direct configuration=    88
   0.47740986  0.46207356  0.49873121
   0.46780851  0.51790959  0.47559804
   0.48085225  0.51057036  0.53341981
   0.48581134  0.49730096  0.49932608
   0.53614005  0.49808776  0.48026347
   0.55198804  0.51407672  0.51266135
Direct configuration=    89
   0.47741055  0.46207313  0.49873054
   0.46780830  0.51790925  0.47559824
   0.48085127  0.51056949  0.53342007
   0.48581134  0.49730071  0.49932616
   0.53613977  0.49808948  0.48026338
   0.55198882  0.51407689  0.51266158
Direct configuration=    90
   0.47741156  0.46207250  0.49872952
   0.46780788  0.51790873  0.47559851
   0.48085004  0.51056816  0.53342034
   0.48581130  0.49730028  0.49932613
   0.53613918  0.49809208  0.48026349
   0.55199009  0.51407720  0.51266197
Direct configuration=    91
   0.47741301  0.46207156  0.49872800
   0.46780711  0.51790798  0.47559889
   0.48084854  0.51056616  0.53342060
   0.48581119  0.49729960  0.49932592
   0.53613812  0.49809596  0.48026399
   0.55199209  0.51407768  0.51266256
Direct configuration=    92
   0.47741516  0.46207015  0.49872576
   0.46780586  0.51790692  0.47559947
   0.48084669  0.51056318  0.53342087
   0.48581101  0.49729861  0.49932548
   0.53613650  0.49810171  0.48026496
   0.55199484  0.51407837  0.51266342
Direct configuration=    93
   0.47741834  0.46206808  0.49872253
   0.46780392  0.51790543  0.47560035
   0.48084443  0.51055880  0.53342119
   0.48581077  0.49729722  0.49932477
   0.53613423  0.49811003  0.48026631
   0.55199837  0.51407939  0.51266482
Direct configuration=    94
   0.47742305  0.46206505  0.49871792
   0.46780099  0.51790340  0.47560170
   0.48084172  0.51055247  0.53342164
   0.48581045  0.49729532  0.49932372
   0.53613121  0.49812188  0.48026801
   0.55200264  0.51408084  0.51266697
Direct configuration=    95
   0.47742958  0.46206095  0.49871174
   0.46779683  0.51790078  0.47560361
   0.48083858  0.51054396  0.53342230
   0.48581005  0.49729295  0.49932232
   0.53612743  0.49813734  0.48026966
   0.55200759  0.51408296  0.51267035
Direct configuration=    96
   0.47743825  0.46205577  0.49870379
   0.46779117  0.51789763  0.47560612
   0.48083511  0.51053321  0.53342323
   0.48580958  0.49729024  0.49932051
   0.53612320  0.49815619  0.48027126
   0.55201274  0.51408590  0.51267505
Direct configuration=    97
   0.47744929  0.46204989  0.49869406
   0.46778357  0.51789417  0.47560922
   0.48083156  0.51052060  0.53342455
   0.48580907  0.49728740  0.49931829
   0.53611974  0.49817742  0.48027372
   0.55201682  0.51408947  0.51268011
Direct configuration=    98
   0.47744941  0.46204995  0.49869401
   0.46778347  0.51789420  0.47560925
   0.48083158  0.51052062  0.53342458
   0.48580908  0.49728744  0.49931829
   0.53611982  0.49817714  0.48027356
   0.55201669  0.51408961  0.51268027
Direct configuration=    99
   0.47744963  0.46205005  0.49869391
   0.46778327  0.51789425  0.47560929
   0.48083164  0.51052064  0.53342464
   0.48580910  0.49728751  0.49931829
   0.53611999  0.49817665  0.48027333
   0.55201643  0.51408985  0.51268050
Direct configuration=   100
   0.47744995  0.46205018  0.49869376
   0.46778295  0.51789432  0.47560936
   0.48083174  0.51052067  0.53342471
   0.48580912  0.49728762  0.49931827
   0.53612027  0.49817601  0.48027316
   0.55201603  0.51409016  0.51268071
Direct configuration=   101
   0.47745032  0.46205032  0.49869355
   0.46778251  0.51789439  0.47560944
   0.48083189  0.51052070  0.53342476
   0.48580914  0.49728775  0.49931822
   0.53612067  0.49817529  0.48027319
   0.55201553  0.51409050  0.51268081
Direct configuration=   102
   0.47745071  0.46205045  0.49869328
   0.46778195  0.51789446  0.47560952
   0.48083211  0.51052071  0.53342477
   0.48580914  0.49728789  0.49931811
   0.53612109  0.49817457  0.48027350
   0.55201506  0.51409087  0.51268079
Direct configuration=   103
   0.47745104  0.46205054  0.49869296
   0.46778129  0.51789450  0.47560958
   0.48083240  0.51052071  0.53342472
   0.48580911  0.49728801  0.49931791
   0.53612139  0.49817388  0.48027406
   0.55201482  0.51409131  0.51268073
Direct configuration=   104
   0.47745129  0.46205059  0.49869255
   0.46778044  0.51789450  0.47560962
   0.48083283  0.51052066  0.53342454
   0.48580902  0.49728809  0.49931756
   0.53612142  0.49817318  0.48027498
   0.55201506  0.51409193  0.51268071
Direct configuration=   105
   0.47745135  0.46205053  0.49869202
   0.46777933  0.51789443  0.47560960
   0.48083345  0.51052055  0.53342416
   0.48580882  0.49728806  0.49931697
   0.53612092  0.49817256  0.48027643
   0.55201620  0.51409282  0.51268078
Direct configuration=   106
   0.47745114  0.46205036  0.49869138
   0.46777796  0.51789425  0.47560949
   0.48083426  0.51052035  0.53342354
   0.48580849  0.49728788  0.49931613
   0.53611983  0.49817215  0.48027859
   0.55201838  0.51409395  0.51268084
Direct configuration=   107
   0.47745059  0.46205003  0.49869059
   0.46777635  0.51789395  0.47560926
   0.48083523  0.51052003  0.53342261
   0.48580800  0.49728749  0.49931501
   0.53611821  0.49817222  0.48028185
   0.55202169  0.51409522  0.51268063
Direct configuration=   108
   0.47744960  0.46204953  0.49868968
   0.46777455  0.51789349  0.47560891
   0.48083628  0.51051955  0.53342138
   0.48580733  0.49728683  0.49931367
   0.53611603  0.49817298  0.48028630
   0.55202626  0.51409657  0.51268003
Direct configuration=   109
   0.47744814  0.46204884  0.49868868
   0.46777274  0.51789281  0.47560842
   0.48083718  0.51051887  0.53341991
   0.48580648  0.49728585  0.49931218
   0.53611309  0.49817441  0.48029135
   0.55203242  0.51409816  0.51267943
Direct configuration=   110
   0.47744622  0.46204794  0.49868767
   0.46777117  0.51789189  0.47560787
   0.48083756  0.51051796  0.53341843
   0.48580551  0.49728461  0.49931069
   0.53610943  0.49817656  0.48029632
   0.55204018  0.51409999  0.51267897
Direct configuration=   111
   0.47744406  0.46204690  0.49868676
   0.46777005  0.51789075  0.47560734
   0.48083700  0.51051681  0.53341732
   0.48580456  0.49728331  0.49930945
   0.53610616  0.49817997  0.48030180
   0.55204823  0.51410120  0.51267729
Direct configuration=   112
   0.47744411  0.46204691  0.49868678
   0.46777012  0.51789075  0.47560736
   0.48083687  0.51051680  0.53341741
   0.48580459  0.49728333  0.49930952
   0.53610616  0.49817992  0.48030148
   0.55204821  0.51410123  0.51267742
Direct configuration=   113
   0.47744421  0.46204693  0.49868682
   0.46777024  0.51789075  0.47560740
   0.48083661  0.51051676  0.53341759
   0.48580466  0.49728338  0.49930965
   0.53610617  0.49817989  0.48030093
   0.55204817  0.51410124  0.51267759
Direct configuration=   114
   0.47744433  0.46204693  0.49868684
   0.46777037  0.51789074  0.47560746
   0.48083626  0.51051666  0.53341782
   0.48580473  0.49728342  0.49930981
   0.53610622  0.49817999  0.48030037
   0.55204813  0.51410120  0.51267766
Direct configuration=   115
   0.47744434  0.46204693  0.49868684
   0.46777037  0.51789074  0.47560746
   0.48083625  0.51051664  0.53341783
   0.48580473  0.49728341  0.49930981
   0.53610622  0.49818004  0.48030040
   0.55204814  0.51410119  0.51267763
Direct configuration=   116
   0.47744434  0.46204691  0.49868682
   0.46777035  0.51789073  0.47560747
   0.48083623  0.51051661  0.53341784
   0.48580473  0.49728340  0.49930980
   0.53610622  0.49818013  0.48030045
   0.55204819  0.51410117  0.51267757
Direct configuration=   117
   0.47744434  0.46204688  0.49868678
   0.46777030  0.51789071  0.47560748