   6   6   0   0
  0.4500000E+04  0.3000000E-08  0.3000000E-08  0.3000000E-08  0.0000000E+00
  1.000000000000000E-004
  CAR 
 unknown system                          
      2.02895692    -26.13959085  301     -6.23345031      1.00000000
    -26.140  0.0000E+00  0.0000E+00
    -26.046  0.0000E+00  0.0000E+00
    -25.952  0.0000E+00  0.0000E+00
    -25.858  0.0000E+00  0.0000E+00
    -25.764  0.0000E+00  0.0000E+00
    -25.670  0.0000E+00  0.0000E+00
    -25.576  0.0000E+00  0.0000E+00
    -25.482  0.0000E+00  0.0000E+00
    -25.388  0.0000E+00  0.0000E+00
    -25.295  0.1182E-16  0.1110E-17
    -25.201  0.2207E-14  0.2084E-15
    -25.107  0.2813E-12  0.2662E-13
    -25.013  0.2322E-10  0.2207E-11
    -24.919  0.1244E-08  0.1190E-09
    -24.825  0.4323E-07  0.4178E-08
    -24.731  0.9766E-06  0.9587E-07
    -24.637  0.1435E-04  0.1443E-05
    -24.543  0.1373E-03  0.1434E-04
    -24.449  0.8568E-03  0.9478E-04
    -24.356  0.3488E-02  0.4223E-03
    -24.262  0.9275E-02  0.1293E-02
    -24.168  0.1612E-01  0.2806E-02
    -24.074  0.1831E-01  0.4526E-02
    -23.980  0.1360E-01  0.5803E-02
    -23.886  0.6605E-02  0.6423E-02
    -23.792  0.2096E-02  0.6620E-02
    -23.698  0.4341E-03  0.6661E-02
    -23.604  0.5867E-04  0.6666E-02
    -23.511  0.5166E-05  0.6667E-02
    -23.417  0.2962E-06  0.6667E-02
    -23.323  0.1104E-07  0.6667E-02
    -23.229  0.2673E-09  0.6667E-02
    -23.135  0.4199E-11  0.6667E-02
    -23.041  0.4277E-13  0.6667E-02
    -22.947  0.2838E-15  0.6667E-02
    -22.853  0.0000E+00  0.6667E-02
    -22.759  0.0000E+00  0.6667E-02
    -22.665  0.0000E+00  0.6667E-02
    -22.572  0.0000E+00  0.6667E-02
    -22.478  0.0000E+00  0.6667E-02
    -22.384  0.0000E+00  0.6667E-02
    -22.290  0.0000E+00  0.6667E-02
    -22.196  0.0000E+00  0.6667E-02
    -22.102  0.0000E+00  0.6667E-02
    -22.008  0.0000E+00  0.6667E-02
    -21.914  0.0000E+00  0.6667E-02
    -21.820  0.0000E+00  0.6667E-02
    -21.727  0.0000E+00  0.6667E-02
    -21.633  0.0000E+00  0.6667E-02
    -21.539  0.0000E+00  0.6667E-02
    -21.445  0.0000E+00  0.6667E-02
    -21.351  0.0000E+00  0.6667E-02
    -21.257  0.0000E+00  0.6667E-02
    -21.163  0.0000E+00  0.6667E-02
    -21.069  0.0000E+00  0.6667E-02
    -20.975  0.0000E+00  0.6667E-02
    -20.881  0.0000E+00  0.6667E-02
    -20.788  0.0000E+00  0.6667E-02
    -20.694  0.0000E+00  0.6667E-02
    -20.600  0.0000E+00  0.6667E-02
    -20.506  0.0000E+00  0.6667E-02
    -20.412  0.0000E+00  0.6667E-02
    -20.318  0.0000E+00  0.6667E-02
    -20.224  0.0000E+00  0.6667E-02
    -20.130  0.0000E+00  0.6667E-02
    -20.036  0.0000E+00  0.6667E-02
    -19.943  0.0000E+00  0.6667E-02
    -19.849  0.0000E+00  0.6667E-02
    -19.755  0.3941E-17  0.6667E-02
    -19.661  0.8474E-15  0.6667E-02
    -19.567  0.1172E-12  0.6667E-02
    -19.473  0.1050E-10  0.6667E-02
    -19.379  0.6097E-09  0.6667E-02
    -19.285  0.2298E-07  0.6667E-02
    -19.191  0.5627E-06  0.6667E-02
    -19.097  0.8962E-05  0.6668E-02
    -19.004  0.9293E-04  0.6676E-02
    -18.910  0.6281E-03  0.6735E-02
    -18.816  0.2770E-02  0.6995E-02
    -18.722  0.7976E-02  0.7744E-02
    -18.628  0.1501E-01  0.9154E-02
    -18.534  0.1847E-01  0.1089E-01
    -18.440  0.1485E-01  0.1228E-01
    -18.346  0.7811E-02  0.1302E-01
    -18.252  0.2684E-02  0.1327E-01
    -18.159  0.6023E-03  0.1332E-01
    -18.065  0.8818E-04  0.1333E-01
    -17.971  0.8415E-05  0.1333E-01
    -17.877  0.5228E-06  0.1333E-01
    -17.783  0.2113E-07  0.1333E-01
    -17.689  0.5546E-09  0.1333E-01
    -17.595  0.9449E-11  0.1333E-01
    -17.501  0.1044E-12  0.1333E-01
    -17.407  0.7489E-15  0.1333E-01
    -17.313  0.0000E+00  0.1333E-01
    -17.220  0.0000E+00  0.1333E-01
    -17.126  0.0000E+00  0.1333E-01
    -17.032  0.0000E+00  0.1333E-01
    -16.938  0.0000E+00  0.1333E-01
    -16.844  0.0000E+00  0.1333E-01
    -16.750  0.0000E+00  0.1333E-01
    -16.656  0.0000E+00  0.1333E-01
    -16.562  0.0000E+00  0.1333E-01
    -16.468  0.0000E+00  0.1333E-01
    -16.374  0.0000E+00  0.1333E-01
    -16.281  0.0000E+00  0.1333E-01
    -16.187  0.0000E+00  0.1333E-01
    -16.093  0.0000E+00  0.1333E-01
    -15.999  0.0000E+00  0.1333E-01
    -15.905  0.0000E+00  0.1333E-01
    -15.811  0.0000E+00  0.1333E-01
    -15.717  0.0000E+00  0.1333E-01
    -15.623  0.0000E+00  0.1333E-01
    -15.529  0.0000E+00  0.1333E-01
    -15.436  0.0000E+00  0.1333E-01
    -15.342  0.0000E+00  0.1333E-01
    -15.248  0.0000E+00  0.1333E-01
    -15.154  0.0000E+00  0.1333E-01
    -15.060  0.0000E+00  0.1333E-01
    -14.966  0.0000E+00  0.1333E-01
    -14.872  0.0000E+00  0.1333E-01
    -14.778  0.0000E+00  0.1333E-01
    -14.684  0.0000E+00  0.1333E-01
    -14.590  0.0000E+00  0.1333E-01
    -14.497  0.3941E-16  0.1333E-01
    -14.403  0.7065E-14  0.1333E-01
    -14.309  0.8140E-12  0.1333E-01
    -14.215  0.6078E-10  0.1333E-01
    -14.121  0.2944E-08  0.1333E-01
    -14.027  0.9259E-07  0.1333E-01
    -13.933  0.1893E-05  0.1333E-01
    -13.839  0.2518E-04  0.1334E-01
    -13.745  0.2182E-03  0.1336E-01
    -13.652  0.1233E-02  0.1347E-01
    -13.558  0.4546E-02  0.1390E-01
    -13.464  0.1095E-01  0.1493E-01
    -13.370  0.1724E-01  0.1655E-01
    -13.276  0.1775E-01  0.1821E-01
    -13.182  0.1195E-01  0.1933E-01
    -13.088  0.5256E-02  0.1983E-01
    -12.994  0.1511E-02  0.1997E-01
    -12.900  0.2835E-03  0.2000E-01
    -12.806  0.3469E-04  0.2000E-01
    -12.713  0.2765E-05  0.2000E-01
    -12.619  0.1435E-06  0.2000E-01
    -12.525  0.4888E-08  0.2000E-01
    -12.431  0.2705E-08  0.2000E-01
    -12.337  0.8954E-07  0.2000E-01
    -12.243  0.2007E-05  0.2000E-01
    -12.149  0.2928E-04  0.2000E-01
    -12.055  0.2785E-03  0.2003E-01
    -11.961  0.1729E-02  0.2019E-01
    -11.868  0.7011E-02  0.2085E-01
    -11.774  0.1858E-01  0.2259E-01
    -11.680  0.3223E-01  0.2562E-01
    -11.586  0.3657E-01  0.2905E-01
    -11.492  0.2717E-01  0.3161E-01
    -11.398  0.1320E-01  0.3285E-01
    -11.304  0.4197E-02  0.3324E-01
    -11.210  0.8718E-03  0.3332E-01
    -11.116  0.1183E-03  0.3333E-01
    -11.022  0.1046E-04  0.3333E-01
    -10.929  0.6032E-06  0.3333E-01
    -10.835  0.2264E-07  0.3333E-01
    -10.741  0.5522E-09  0.3333E-01
    -10.647  0.8751E-11  0.3333E-01
    -10.553  0.8999E-13  0.3333E-01
    -10.459  0.5991E-15  0.3333E-01
    -10.365  0.0000E+00  0.3333E-01
    -10.271  0.0000E+00  0.3333E-01
    -10.177  0.0000E+00  0.3333E-01
    -10.084  0.0000E+00  0.3333E-01
     -9.990  0.0000E+00  0.3333E-01
     -9.896  0.1182E-15  0.3333E-01
     -9.802  0.1939E-13  0.3333E-01
     -9.708  0.2043E-11  0.3333E-01
     -9.614  0.1396E-09  0.3333E-01
     -9.520  0.6187E-08  0.3333E-01
     -9.426  0.1781E-06  0.3333E-01
     -9.332  0.3334E-05  0.3333E-01
     -9.238  0.4061E-04  0.3334E-01
     -9.145  0.3223E-03  0.3337E-01
     -9.051  0.1668E-02  0.3352E-01
     -8.957  0.5636E-02  0.3405E-01
     -8.863  0.1244E-01  0.3522E-01
     -8.769  0.1796E-01  0.3691E-01
     -8.675  0.1699E-01  0.3850E-01
     -8.581  0.1081E-01  0.3952E-01
     -8.487  0.6010E-02  0.4008E-01
     -8.393  0.7046E-02  0.4074E-01
     -8.300  0.1301E-01  0.4197E-01
     -8.206  0.1811E-01  0.4367E-01
     -8.112  0.1670E-01  0.4523E-01
     -8.018  0.1007E-01  0.4618E-01
     -7.924  0.3972E-02  0.4655E-01
     -7.830  0.1024E-02  0.4665E-01
     -7.736  0.1872E-03  0.4667E-01
     -7.642  0.1629E-03  0.4668E-01
     -7.548  0.8908E-03  0.4677E-01
     -7.454  0.3586E-02  0.4710E-01
     -7.361  0.9440E-02  0.4799E-01
     -7.267  0.1624E-01  0.4951E-01
     -7.173  0.1827E-01  0.5123E-01
     -7.079  0.1344E-01  0.5249E-01
     -6.985  0.6462E-02  0.5310E-01
     -6.891  0.2030E-02  0.5329E-01
     -6.797  0.4164E-03  0.5333E-01
     -6.703  0.5571E-04  0.5333E-01
     -6.609  0.4858E-05  0.5333E-01
     -6.516  0.2757E-06  0.5333E-01
     -6.422  0.1017E-07  0.5333E-01
     -6.328  0.2438E-09  0.5333E-01
     -6.234  0.3793E-11  0.5333E-01
     -6.140  0.3824E-13  0.5333E-01
     -6.046  0.2522E-15  0.5333E-01
     -5.952  0.0000E+00  0.5333E-01
     -5.858  0.0000E+00  0.5333E-01
     -5.764  0.0000E+00  0.5333E-01
     -5.670  0.0000E+00  0.5333E-01
     -5.577  0.0000E+00  0.5333E-01
     -5.483  0.0000E+00  0.5333E-01
     -5.389  0.0000E+00  0.5333E-01
     -5.295  0.0000E+00  0.5333E-01
     -5.201  0.0000E+00  0.5333E-01
     -5.107  0.0000E+00  0.5333E-01
     -5.013  0.0000E+00  0.5333E-01
     -4.919  0.0000E+00  0.5333E-01
     -4.825  0.0000E+00  0.5333E-01
     -4.731  0.0000E+00  0.5333E-01
     -4.638  0.0000E+00  0.5333E-01
     -4.544  0.0000E+00  0.5333E-01
     -4.450  0.0000E+00  0.5333E-01
     -4.356  0.0000E+00  0.5333E-01
     -4.262  0.0000E+00  0.5333E-01
     -4.168  0.0000E+00  0.5333E-01
     -4.074  0.0000E+00  0.5333E-01
     -3.980  0.0000E+00  0.5333E-01
     -3.886  0.0000E+00  0.5333E-01
     -3.793  0.0000E+00  0.5333E-01
     -3.699  0.0000E+00  0.5333E-01
     -3.605  0.0000E+00  0.5333E-01
     -3.511  0.0000E+00  0.5333E-01
     -3.417  0.3941E-16  0.5333E-01
     -3.323  0.6728E-14  0.5333E-01
     -3.229  0.7787E-12  0.5333E-01
     -3.135  0.5839E-10  0.5333E-01
     -3.041  0.2840E-08  0.5333E-01
     -2.947  0.8971E-07  0.5333E-01
     -2.854  0.1842E-05  0.5333E-01
     -2.760  0.2460E-04  0.5334E-01
     -2.666  0.2140E-03  0.5336E-01
     -2.572  0.1214E-02  0.5347E-01
     -2.478  0.4497E-02  0.5389E-01
     -2.384  0.1088E-01  0.5491E-01
     -2.290  0.1720E-01  0.5653E-01
     -2.196  0.1778E-01  0.5820E-01
     -2.102  0.1202E-01  0.5933E-01
     -2.009  0.5310E-02  0.5983E-01
     -1.915  0.1533E-02  0.5997E-01
     -1.821  0.2887E-03  0.6000E-01
     -1.727  0.3549E-04  0.6000E-01
     -1.633  0.2949E-05  0.6000E-01
     -1.539  0.2311E-05  0.6000E-01
     -1.445  0.2819E-04  0.6000E-01
     -1.351  0.2393E-03  0.6003E-01
     -1.257  0.1325E-02  0.6015E-01
     -1.163  0.4787E-02  0.6060E-01
     -1.070  0.1130E-01  0.6166E-01
     -0.976  0.1744E-01  0.6330E-01
     -0.882  0.1762E-01  0.6495E-01
     -0.788  0.1189E-01  0.6607E-01
     -0.694  0.6533E-02  0.6668E-01
     -0.600  0.6717E-02  0.6731E-01
     -0.506  0.1228E-01  0.6847E-01
     -0.412  0.1787E-01  0.7014E-01
     -0.318  0.1765E-01  0.7180E-01
     -0.225  0.1301E-01  0.7302E-01
     -0.131  0.1117E-01  0.7407E-01
     -0.037  0.1489E-01  0.7547E-01
      0.057  0.1854E-01  0.7721E-01
      0.151  0.1608E-01  0.7872E-01
      0.245  0.9204E-02  0.7958E-01
      0.339  0.3446E-02  0.7991E-01
      0.433  0.8428E-03  0.7999E-01
      0.527  0.1345E-03  0.8000E-01
      0.621  0.1400E-04  0.8000E-01
      0.714  0.9486E-06  0.8000E-01
      0.808  0.4182E-07  0.8000E-01
      0.902  0.1198E-08  0.8000E-01
      0.996  0.2228E-10  0.8000E-01
      1.090  0.2687E-12  0.8000E-01
      1.184  0.2097E-14  0.8000E-01
      1.278  0.1379E-16  0.8000E-01
      1.372  0.0000E+00  0.8000E-01
      1.466  0.0000E+00  0.8000E-01
      1.559  0.0000E+00  0.8000E-01
      1.653  0.0000E+00  0.8000E-01
      1.747  0.0000E+00  0.8000E-01
      1.841  0.0000E+00  0.8000E-01
      1.935  0.0000E+00  0.8000E-01
      2.029  0.0000E+00  0.8000E-01
