    6    6  300    1
  0.4500000E+04  0.3000000E-08  0.3000000E-08  0.3000000E-08  0.0000000E+00
  1.000000000000000E-004
  CAR 
 unknown system                          
     16      4     12
 
  0.2500000E+00  0.2500000E+00  0.2500000E+00  0.2500000E+00
    1      -24.139591   1.000000
    2      -18.582185   1.000000
    3      -13.363428   1.000000
    4      -11.658618   1.000000
    5      -11.644816   1.000000
    6       -8.781841   1.000000
    7       -8.223357   1.000000
    8       -7.240644   1.000000
    9       -2.282888   0.000000
   10       -0.973749   0.000000
   11       -0.419638   0.000000
   12        0.025898   0.000000
 
 -0.2500000E+00  0.2500000E+00  0.2500000E+00  0.2500000E+00
    1      -24.139590   1.000000
    2      -18.582187   1.000000
    3      -13.363434   1.000000
    4      -11.658611   1.000000
    5      -11.644811   1.000000
    6       -8.781833   1.000000
    7       -8.223359   1.000000
    8       -7.240651   1.000000
    9       -2.282889   0.000000
   10       -0.973748   0.000000
   11       -0.419638   0.000000
   12        0.028376   0.000000
 
  0.2500000E+00 -0.2500000E+00  0.2500000E+00  0.2500000E+00
    1      -24.139591   1.000000
    2      -18.582186   1.000000
    3      -13.363430   1.000000
    4      -11.658615   1.000000
    5      -11.644819   1.000000
    6       -8.781830   1.000000
    7       -8.223367   1.000000
    8       -7.240646   1.000000
    9       -2.282880   0.000000
   10       -0.973761   0.000000
   11       -0.419636   0.000000
   12        0.028744   0.000000
 
 -0.2500000E+00 -0.2500000E+00  0.2500000E+00  0.2500000E+00
    1      -24.139591   1.000000
    2      -18.582186   1.000000
    3      -13.363432   1.000000
    4      -11.658616   1.000000
    5      -11.644817   1.000000
    6       -8.781832   1.000000
    7       -8.223366   1.000000
    8       -7.240646   1.000000
    9       -2.282880   0.000000
   10       -0.973764   0.000000
   11       -0.419636   0.000000
   12        0.028957   0.000000
