 vasp.5.4.1 24Jun15 (build Jan 13 2020 12:58:22) complex                        
  
 executed on           IFC91_ompi date 2020.02.03  02:42:24
 running on   15 total cores
 each image running on    1 cores
 distrk:  each k-point on    1 cores,    1 groups
 distr:  one band on NCORES_PER_BAND=   1 cores,    1 groups


--------------------------------------------------------------------------------------------------------


 INCAR:
 POTCAR:    PAW_PBE H 15Jun2001                   
 POTCAR:    PAW_PBE C 08Apr2002                   
 POTCAR:    PAW_PBE N 08Apr2002                   
 POTCAR:    PAW_PBE H 15Jun2001                   
   VRHFIN =H: ultrasoft test                                                    
   LEXCH  = PE                                                                  
   EATOM  =    12.4884 eV,    0.9179 Ry                                         
                                                                                
   TITEL  = PAW_PBE H 15Jun2001                                                 
   LULTRA =        F    use ultrasoft PP ?                                      
   IUNSCR =        0    unscreen: 0-lin 1-nonlin 2-no                           
   RPACOR =    0.000    partial core radius                                     
   POMASS =    1.000; ZVAL   =    1.000    mass and valenz                      
   RCORE  =    1.100    outmost cutoff radius                                   
   RWIGS  =    0.700; RWIGS  =    0.370    wigner-seitz radius (au A)           
   ENMAX  =  250.000; ENMIN  =  200.000 eV                                      
   RCLOC  =    0.701    cutoff for local pot                                    
   LCOR   =        T    correct aug charges                                     
   LPAW   =        T    paw PP                                                  
   EAUG   =  400.000                                                            
   RMAX   =    1.123    core radius for proj-oper                               
   RAUG   =    1.200    factor for augmentation sphere                          
   RDEP   =    1.112    radius for radial grids                                 
   RDEPT  =    0.926    core radius for aug-charge                              
                                                                                
   Atomic configuration                                                         
    2 entries                                                                   
     n  l   j            E        occ.                                          
     1  0  0.50        -6.4927   1.0000                                         
     2  1  0.50        -3.4015   0.0000                                         
   Description                                                                  
     l       E           TYP  RCUT    TYP  RCUT                                 
     0     -6.4927494     23  1.100                                             
     0      6.8029130     23  1.100                                             
     1     -4.0817478     23  1.100                                             
  local pseudopotential read in
  atomic valenz-charges read in
  non local Contribution for L=           0  read in
    real space projection operators read in
  non local Contribution for L=           0  read in
    real space projection operators read in
  non local Contribution for L=           1  read in
    real space projection operators read in
    PAW grid and wavefunctions read in
 
   number of l-projection  operators is LMAX  =           3
   number of lm-projection operators is LMMAX =           5
 
 POTCAR:    PAW_PBE C 08Apr2002                   
   VRHFIN =C: s2p2                                                              
   LEXCH  = PE                                                                  
   EATOM  =   147.1560 eV,   10.8157 Ry                                         
                                                                                
   TITEL  = PAW_PBE C 08Apr2002                                                 
   LULTRA =        F    use ultrasoft PP ?                                      
   IUNSCR =        1    unscreen: 0-lin 1-nonlin 2-no                           
   RPACOR =    1.200    partial core radius                                     
   POMASS =   12.011; ZVAL   =    4.000    mass and valenz                      
   RCORE  =    1.500    outmost cutoff radius                                   
   RWIGS  =    1.630; RWIGS  =    0.863    wigner-seitz radius (au A)           
   ENMAX  =  400.000; ENMIN  =  300.000 eV                                      
   ICORE  =        2    local potential                                         
   LCOR   =        T    correct aug charges                                     
   LPAW   =        T    paw PP                                                  
   EAUG   =  644.873                                                            
   DEXC   =    0.000                                                            
   RMAX   =    1.529    core radius for proj-oper                               
   RAUG   =    1.300    factor for augmentation sphere                          
   RDEP   =    1.501    radius for radial grids                                 
   RDEPT  =    1.300    core radius for aug-charge                              
                                                                                
   Atomic configuration                                                         
    4 entries                                                                   
     n  l   j            E        occ.                                          
     1  0  0.50      -273.3789   2.0000                                         
     2  0  0.50       -13.7508   2.0000                                         
     2  1  0.50        -5.2854   2.0000                                         
     3  2  1.50        -5.4423   0.0000                                         
   Description                                                                  
     l       E           TYP  RCUT    TYP  RCUT                                 
     0    -13.7508458     23  1.200                                             
     0     -8.2022199     23  1.200                                             
     1     -5.2854383     23  1.500                                             
     1     34.0145650     23  1.500                                             
     2     -5.4423304      7  1.500                                             
  local pseudopotential read in
  partial core-charges read in
  partial kinetic energy density read in
  atomic valenz-charges read in
  non local Contribution for L=           0  read in
    real space projection operators read in
  non local Contribution for L=           0  read in
    real space projection operators read in
  non local Contribution for L=           1  read in
    real space projection operators read in
  non local Contribution for L=           1  read in
    real space projection operators read in
    PAW grid and wavefunctions read in
 
   number of l-projection  operators is LMAX  =           4
   number of lm-projection operators is LMMAX =           8
 
 POTCAR:    PAW_PBE N 08Apr2002                   
   VRHFIN =N: s2p3                                                              
   LEXCH  = PE                                                                  
   EATOM  =   264.5486 eV,   19.4438 Ry                                         
                                                                                
   TITEL  = PAW_PBE N 08Apr2002                                                 
   LULTRA =        F    use ultrasoft PP ?                                      
   IUNSCR =        1    unscreen: 0-lin 1-nonlin 2-no                           
   RPACOR =    1.200    partial core radius                                     
   POMASS =   14.001; ZVAL   =    5.000    mass and valenz                      
   RCORE  =    1.500    outmost cutoff radius                                   
   RWIGS  =    1.400; RWIGS  =    0.741    wigner-seitz radius (au A)           
   ENMAX  =  400.000; ENMIN  =  300.000 eV                                      
   ICORE  =        2    local potential                                         
   LCOR   =        T    correct aug charges                                     
   LPAW   =        T    paw PP                                                  
   EAUG   =  627.112                                                            
   DEXC   =    0.000                                                            
   RMAX   =    1.529    core radius for proj-oper                               
   RAUG   =    1.300    factor for augmentation sphere                          
   RDEP   =    1.514    radius for radial grids                                 
   RDEPT  =    1.338    core radius for aug-charge                              
                                                                                
   Atomic configuration                                                         
    4 entries                                                                   
     n  l   j            E        occ.                                          
     1  0  0.50      -384.7179   2.0000                                         
     2  0  0.50       -18.5828   2.0000                                         
     2  1  0.50        -7.0898   3.0000                                         
     3  2  1.50        -6.8029   0.0000                                         
   Description                                                                  
     l       E           TYP  RCUT    TYP  RCUT                                 
     0    -18.5828119     23  1.200                                             
     0    -13.5018863     23  1.200                                             
     1     -7.0897853     23  1.500                                             
     1      9.5240782     23  1.500                                             
     2     -6.8029130      7  1.500                                             
  local pseudopotential read in
  partial core-charges read in
  partial kinetic energy density read in
  atomic valenz-charges read in
  non local Contribution for L=           0  read in
    real space projection operators read in
  non local Contribution for L=           0  read in
    real space projection operators read in
  non local Contribution for L=           1  read in
    real space projection operators read in
  non local Contribution for L=           1  read in
    real space projection operators read in
    PAW grid and wavefunctions read in
 
   number of l-projection  operators is LMAX  =           4
   number of lm-projection operators is LMMAX =           8
 

 ----------------------------------------------------------------------------- 
|                                                                             |
|  ADVICE TO THIS USER RUNNING 'VASP/VAMP'   (HEAR YOUR MASTER'S VOICE ...):  |
|                                                                             |
|      You have a (more or less) 'small supercell' and for smaller cells      |
|      it is recommended  to use the reciprocal-space projection scheme!      |
|      The real space optimization is not  efficient for small cells and it   |
|      is also less accurate ...                                              |
|      Therefore set LREAL=.FALSE. in the  INCAR file                         |
|                                                                             |
 ----------------------------------------------------------------------------- 

 Optimization of the real space projectors (new method)

 maximal supplied QI-value         = 34.20
 optimisation between [QCUT,QGAM] = [  9.92, 20.18] = [ 27.55,114.04] Ry 
 Optimized for a Real-space Cutoff    1.26 Angstroem

   l    n(q)    QCUT    max X(q) W(low)/X(q) W(high)/X(q)  e(spline) 
   0      8     9.919    19.460    0.50E-03    0.23E-03    0.29E-06
   0      8     9.919    12.209    0.48E-03    0.23E-03    0.28E-06
   1      7     9.919     4.655    0.17E-03    0.75E-03    0.30E-06
 Optimization of the real space projectors (new method)

 maximal supplied QI-value         = 25.13
 optimisation between [QCUT,QGAM] = [ 10.05, 20.36] = [ 28.30,116.06] Ry 
 Optimized for a Real-space Cutoff    1.30 Angstroem

   l    n(q)    QCUT    max X(q) W(low)/X(q) W(high)/X(q)  e(spline) 
   0      8    10.053   115.676    0.49E-03    0.72E-03    0.18E-06
   0      8    10.053    87.132    0.49E-03    0.71E-03    0.18E-06
   1      7    10.053     4.429    0.32E-03    0.31E-03    0.18E-06
   1      7    10.053     2.733    0.23E-03    0.19E-03    0.20E-06
 Optimization of the real space projectors (new method)

 maximal supplied QI-value         = 25.13
 optimisation between [QCUT,QGAM] = [ 10.05, 20.36] = [ 28.30,116.06] Ry 
 Optimized for a Real-space Cutoff    1.65 Angstroem

   l    n(q)    QCUT    max X(q) W(low)/X(q) W(high)/X(q)  e(spline) 
   0     10    10.053    79.467    0.76E-04    0.72E-04    0.56E-06
   0     10    10.053    66.151    0.76E-04    0.72E-04    0.55E-06
   1     10    10.053     8.350    0.25E-03    0.92E-03    0.41E-05
   1     10    10.053     5.531    0.27E-03    0.10E-02    0.45E-05
  PAW_PBE H 15Jun2001                   :
 energy of atom  1       EATOM=  -12.4884
 kinetic energy error for atom=    0.0098 (will be added to EATOM!!)
  PAW_PBE C 08Apr2002                   :
 energy of atom  2       EATOM= -147.1560
 kinetic energy error for atom=    0.0288 (will be added to EATOM!!)
  PAW_PBE N 08Apr2002                   :
 energy of atom  3       EATOM= -264.5486
 kinetic energy error for atom=    0.0736 (will be added to EATOM!!)
 
 
 POSCAR: H3 C2 N1                                
  positions in direct lattice
  velocities in cartesian coordinates
 exchange correlation table for  LEXCH =        8
   RHO(1)=    0.500       N(1)  =     2000
   RHO(2)=  100.500       N(2)  =     4000

 VTST: version 3.2, (02/03/18)

 CHAIN: initializing optimizer
 
 OPT: Using FIRE optimizer
 OPT: FIRE, Init
 OPT: FIRE, MAXMOVE       0.20000
 OPT: FIRE, TIMESTEP      0.10000
 OPT: FIRE, FTIMEMAX      1.00000
 OPT: FIRE, FTIMEINC      1.10000
 OPT: FIRE, FTIMEDEC      0.50000
 OPT: FIRE, FALPHADEC     0.99000
 OPT: FIRE, FALPHA        0.10000
 OPT: FIRE, FNMIN         5
 
 CHAIN: Read ICHAIN            0
 CHAIN: Running the NEB
 NEB:          SPRING     -5.000000
 NEB:          LCLIMB      T
 NEB:     LTANGENTOLD      F
 NEB:           LDNEB      F
 NEB:        LDNEBORG      F
 NEB:        LNEBCELL      F
 NEB:          EFIRST      0.000000
 NEB:           ELAST      0.000000
 
 POSCAR: H3 C2 N1                                
  positions in direct lattice
  No initial velocities read in
 
 POSCAR: H3 C2 N1                                
  positions in direct lattice
  No initial velocities read in
 


--------------------------------------------------------------------------------------------------------


 ion  position               nearest neighbor table
   1  0.474  0.468  0.508-   4 1.10
   2  0.477  0.512  0.467-   4 1.10
   3  0.468  0.525  0.525-   4 1.09
   4  0.485  0.503  0.502-   3 1.09   1 1.10   2 1.10   6 1.45
   5  0.562  0.486  0.488-   6 1.19
   6  0.532  0.505  0.508-   5 1.19   4 1.45
 
  LATTYP: Found a simple cubic cell.
 ALAT       =    30.0000000000
  
  Lattice vectors:
  
 A1 = (  30.0000000000,   0.0000000000,   0.0000000000)
 A2 = (   0.0000000000,  30.0000000000,   0.0000000000)
 A3 = (   0.0000000000,   0.0000000000,  30.0000000000)


Analysis of symmetry for initial positions (statically):
=====================================================================
 Subroutine PRICEL returns:
 Original cell was already a primitive cell.
 

 Routine SETGRP: Setting up the symmetry group for a 
 simple cubic supercell.


 Subroutine GETGRP returns: Found  1 space group operations
 (whereof  1 operations were pure point group operations)
 out of a pool of 48 trial point group operations.


The static configuration has the point symmetry C_1 .


Analysis of symmetry for dynamics (positions and initial velocities):
=====================================================================
 Subroutine PRICEL returns:
 Original cell was already a primitive cell.
 

 Routine SETGRP: Setting up the symmetry group for a 
 simple cubic supercell.


 Subroutine GETGRP returns: Found  1 space group operations
 (whereof  1 operations were pure point group operations)
 out of a pool of 48 trial point group operations.


The dynamic configuration has the point symmetry C_1 .
 
 
 KPOINTS: Mo2C                                    

Automatic generation of k-mesh.
Space group operators:
 irot       det(A)        alpha          n_x          n_y          n_z        tau_x        tau_y        tau_z
    1     1.000000     0.000000     1.000000     0.000000     0.000000     0.000000     0.000000     0.000000
 
 Subroutine IBZKPT returns following result:
 ===========================================
 
 Found      4 irreducible k-points:
 
 Following reciprocal coordinates:
            Coordinates               Weight
  0.250000  0.250000  0.250000      2.000000
 -0.250000  0.250000  0.250000      2.000000
  0.250000 -0.250000  0.250000      2.000000
 -0.250000 -0.250000  0.250000      2.000000
 
 Following cartesian coordinates:
            Coordinates               Weight
  0.008333  0.008333  0.008333      2.000000
 -0.008333  0.008333  0.008333      2.000000
  0.008333 -0.008333  0.008333      2.000000
 -0.008333 -0.008333  0.008333      2.000000
 


--------------------------------------------------------------------------------------------------------




 Dimension of arrays:
   k-points           NKPTS =      4   k-points in BZ     NKDIM =      4   number of bands    NBANDS=     12
   number of dos      NEDOS =    301   number of ions     NIONS =      6
   non local maximal  LDIM  =      4   non local SUM 2l+1 LMDIM =      8
   total plane-waves  NPLWV = ******
   max r-space proj   IRMAX =   2395   max aug-charges    IRDMAX=   1738
   dimension x,y,z NGX =   150 NGY =  150 NGZ =  150
   dimension x,y,z NGXF=   300 NGYF=  300 NGZF=  300
   support grid    NGXF=   300 NGYF=  300 NGZF=  300
   ions per type =               3   2   1
 NGX,Y,Z   is equivalent  to a cutoff of   8.31,  8.31,  8.31 a.u.
 NGXF,Y,Z  is equivalent  to a cutoff of  16.62, 16.62, 16.62 a.u.


 I would recommend the setting:
   dimension x,y,z NGX =   147 NGY =  147 NGZ =  147
 SYSTEM =  unknown system                          
 POSCAR =  H3 C2 N1                                

 Startparameter for this run:
   NWRITE =      2    write-flag & timer
   PREC   = normal    normal or accurate (medium, high low for compatibility)
   ISTART =      0    job   : 0-new  1-cont  2-samecut
   ICHARG =      2    charge: 1-file 2-atom 10-const
   ISPIN  =      1    spin polarized calculation?
   LNONCOLLINEAR =      F non collinear calculations
   LSORBIT =      F    spin-orbit coupling
   INIWAV =      1    electr: 0-lowe 1-rand  2-diag
   LASPH  =      F    aspherical Exc in radial PAW
   METAGGA=      F    non-selfconsistent MetaGGA calc.

 Electronic Relaxation 1
   ENCUT  =  400.0 eV  29.40 Ry    5.42 a.u.  48.92 48.92 48.92*2*pi/ulx,y,z
   ENINI  =  400.0     initial cutoff
   ENAUG  =  644.9 eV  augmentation charge cutoff
   NELM   =    500;   NELMIN=  6; NELMDL= -5     # of ELM steps 
   EDIFF  = 0.1E-03   stopping-criterion for ELM
   LREAL  =      T    real-space projection
   NLSPLINE    = F    spline interpolate recip. space projectors
   LCOMPAT=      F    compatible to vasp.4.4
   GGA_COMPAT  = T    GGA compatible to vasp.4.4-vasp.4.6
   LMAXPAW     = -100 max onsite density
   LMAXMIX     =    2 max onsite mixed and CHGCAR
   VOSKOWN=      0    Vosko Wilk Nusair interpolation
   ROPT   =   -0.00050  -0.00050  -0.00050
 Ionic relaxation
   EDIFFG = -.1E+00   stopping-criterion for IOM
   NSW    =    300    number of steps for IOM
   NBLOCK =      1;   KBLOCK =    300    inner block; outer block 
   IBRION =      3    ionic relax: 0-MD 1-quasi-New 2-CG
   NFREE  =      0    steps in history (QN), initial steepest desc. (CG)
   ISIF   =      2    stress and relaxation
   IWAVPR =     11    prediction:  0-non 1-charg 2-wave 3-comb
   ISYM   =      2    0-nonsym 1-usesym 2-fastsym
   LCORR  =      T    Harris-Foulkes like correction to forces

   POTIM  = 0.0000    time-step for ionic-motion
   TEIN   =    0.0    initial temperature
   TEBEG  =    0.0;   TEEND  =   0.0 temperature during run
   SMASS  =   2.00    Nose mass-parameter (am)
   estimated Nose-frequenzy (Omega)   =  0.12E+10 period in steps =  0.00 mass=   0.137E-25a.u.
   SCALEE = 1.0000    scale energy and forces
   NPACO  =    256;   APACO  = 16.0  distance and # of slots for P.C.
   PSTRESS=    0.0 pullay stress

  Mass of Ions in am
   POMASS =   1.00 12.01 14.00
  Ionic Valenz
   ZVAL   =   1.00  4.00  5.00
  Atomic Wigner-Seitz radii
   RWIGS  =  -1.00 -1.00 -1.00
  virtual crystal weights 
   VCA    =   1.00  1.00  1.00
   NELECT =      16.0000    total number of electrons
   NUPDOWN=      -1.0000    fix difference up-down

 DOS related values:
   EMIN   =  10.00;   EMAX   =-10.00  energy-range for DOS
   EFERMI =   0.00
   ISMEAR =     0;   SIGMA  =   0.20  broadening in eV -4-tet -1-fermi 0-gaus

 Electronic relaxation 2 (details)
   IALGO  =     38    algorithm
   LDIAG  =      T    sub-space diagonalisation (order eigenvalues)
   LSUBROT=      F    optimize rotation matrix (better conditioning)
   TURBO    =      0    0=normal 1=particle mesh
   IRESTART =      0    0=no restart 2=restart with 2 vectors
   NREBOOT  =      0    no. of reboots
   NMIN     =      0    reboot dimension
   EREF     =   0.00    reference energy to select bands
   IMIX   =      4    mixing-type and parameters
     AMIX     =   0.40;   BMIX     =  1.00
     AMIX_MAG =   1.60;   BMIX_MAG =  1.00
     AMIN     =   0.10
     WC   =   100.;   INIMIX=   1;  MIXPRE=   1;  MAXMIX= -45

 Intra band minimization:
   WEIMIN = 0.0010     energy-eigenvalue tresh-hold
   EBREAK =  0.21E-05  absolut break condition
   DEPER  =   0.30     relativ break condition  

   TIME   =   0.40     timestep for ELM

  volume/ion in A,a.u.               =    4500.00     30367.50
  Fermi-wavevector in a.u.,A,eV,Ry     =   0.137508  0.259852  0.257264  0.018908
  Thomas-Fermi vector in A             =   0.790710
 
 Write flags
   LWAVE  =      F    write WAVECAR
   LCHARG =      F    write CHGCAR
   LVTOT  =      F    write LOCPOT, total local potential
   LVHAR  =      F    write LOCPOT, Hartree potential only
   LELF   =      F    write electronic localiz. function (ELF)
   LORBIT =      0    0 simple, 1 ext, 2 COOP (PROOUT)


 Dipole corrections
   LMONO  =      F    monopole corrections only (constant potential shift)
   LDIPOL =      F    correct potential (dipole corrections)
   IDIPOL =      0    1-x, 2-y, 3-z, 4-all directions 
   EPSILON=  1.0000000 bulk dielectric constant

 Exchange correlation treatment:
   GGA     =    PE    GGA type
   LEXCH   =     8    internal setting for exchange type
   VOSKOWN=      0    Vosko Wilk Nusair interpolation
   LHFCALC =     F    Hartree Fock is set to
   LHFONE  =     F    Hartree Fock one center treatment
   AEXX    =    0.0000 exact exchange contribution

 Linear response parameters
   LEPSILON=     F    determine dielectric tensor
   LRPA    =     F    only Hartree local field effects (RPA)
   LNABLA  =     F    use nabla operator in PAW spheres
   LVEL    =     F    velocity operator in full k-point grid
   LINTERFAST=   F  fast interpolation
   KINTER  =     0    interpolate to denser k-point grid
   CSHIFT  =0.1000    complex shift for real part using Kramers Kronig
   OMEGAMAX=  -1.0    maximum frequency
   DEG_THRESHOLD= 0.2000000E-02 threshold for treating states as degnerate
   RTIME   =    0.100 relaxation time in fs

 Orbital magnetization related:
   ORBITALMAG=     F  switch on orbital magnetization
   LCHIMAG   =     F  perturbation theory with respect to B field
   DQ        =  0.001000  dq finite difference perturbation B field



--------------------------------------------------------------------------------------------------------


 quickmin algorithm: (dynamic with friction)
 charge density and potential will be updated during run
 non-spin polarized calculation
 Variant of blocked Davidson
 Davidson routine will perform the subspace rotation
 perform sub-space diagonalisation
    after iterative eigenvector-optimisation
 modified Broyden-mixing scheme, WC =      100.0
 initial mixing is a Kerker type mixing with AMIX =  0.4000 and BMIX =      1.0000
 Hartree-type preconditioning will be used
 using additional bands            4
 real space projection scheme for non local part
 use partial core corrections
 calculate Harris-corrections to forces 
   (improved forces if not selfconsistent)
 use gradient corrections 
 use of overlap-Matrix (Vanderbilt PP)
 Gauss-broadening in eV      SIGMA  =   0.20


--------------------------------------------------------------------------------------------------------


  energy-cutoff  :      400.00
  volume of cell :    27000.00
      direct lattice vectors                 reciprocal lattice vectors
    30.000000000  0.000000000  0.000000000     0.033333333  0.000000000  0.000000000
     0.000000000 30.000000000  0.000000000     0.000000000  0.033333333  0.000000000
     0.000000000  0.000000000 30.000000000     0.000000000  0.000000000  0.033333333

  length of vectors
    30.000000000 30.000000000 30.000000000     0.033333333  0.033333333  0.033333333


 
 k-points in units of 2pi/SCALE and weight: Mo2C                                    
   0.00833333  0.00833333  0.00833333       0.250
  -0.00833333  0.00833333  0.00833333       0.250
   0.00833333 -0.00833333  0.00833333       0.250
  -0.00833333 -0.00833333  0.00833333       0.250
 
 k-points in reciprocal lattice and weights: Mo2C                                    
   0.25000000  0.25000000  0.25000000       0.250
  -0.25000000  0.25000000  0.25000000       0.250
   0.25000000 -0.25000000  0.25000000       0.250
  -0.25000000 -0.25000000  0.25000000       0.250
 
 position of ions in fractional coordinates (direct lattice) 
   0.47403123  0.46810841  0.50785905
   0.47715008  0.51153944  0.46740796
   0.46795620  0.52532112  0.52510795
   0.48462048  0.50273092  0.50219056
   0.56158875  0.48640002  0.48824463
   0.53248911  0.50470108  0.50802270
 
 position of ions in cartesian coordinates  (Angst):
  14.22093700 14.04325236 15.23577139
  14.31450246 15.34618318 14.02223882
  14.03868597 15.75963366 15.75323855
  14.53861441 15.08192774 15.06571673
  16.84766258 14.59200067 14.64733905
  15.97467329 15.14103228 15.24068089
 


--------------------------------------------------------------------------------------------------------


 k-point  1 :   0.2500 0.2500 0.2500  plane waves:  490454
 k-point  2 :  -0.2500 0.2500 0.2500  plane waves:  490454
 k-point  3 :   0.2500-0.2500 0.2500  plane waves:  490454
 k-point  4 :  -0.2500-0.2500 0.2500  plane waves:  490454

 maximum and minimum number of plane-waves per node :    490454   490454

 maximum number of plane-waves:    490454
 maximum index in each direction: 
   IXMAX=   49   IYMAX=   49   IZMAX=   48
   IXMIN=  -49   IYMIN=  -49   IZMIN=  -49

 WARNING: aliasing errors must be expected set NGX to 198 to avoid them
 WARNING: aliasing errors must be expected set NGY to 198 to avoid them
 WARNING: aliasing errors must be expected set NGZ to 196 to avoid them
 aliasing errors are usually negligible using standard VASP settings
 and one can safely disregard these warnings

 serial   3D FFT for wavefunctions
 parallel 3D FFT for charge:
    minimum data exchange during FFTs selected (reduces bandwidth)


 total amount of memory used by VASP on root node  3203887. kBytes
========================================================================

   base      :      30000. kBytes
   nonlr-proj:        691. kBytes
   fftplans  :     924480. kBytes
   grid      :    1872000. kBytes
   one-center:         18. kBytes
   wavefun   :     376698. kBytes
 
     INWAV:  cpu time    0.0010: real time    0.0004
 Broyden mixing: mesh for mixing (old mesh)
   NGX = 97   NGY = 97   NGZ = 97
  (NGX  =300   NGY  =300   NGZ  =300)
  gives a total of 912673 points

 initial charge density was supplied:
 charge density of overlapping atoms calculated
 number of electron      16.0000000 magnetization 
 keeping initial charge density in first step


--------------------------------------------------------------------------------------------------------


 Maximum index for non-local projection operator         2272
 Maximum index for augmentation-charges         1489 (set IRDMAX)


--------------------------------------------------------------------------------------------------------


 First call to EWALD:  gamma=   0.059
 Maximum number of real-space cells 3x 3x 3
 Maximum number of reciprocal cells 3x 3x 3

 FEWALD executed in parallel
    FEWALD:  cpu time    0.0020: real time    0.0018


----------------------------------------- Iteration    1(   1)  ---------------------------------------


    POTLOK:  cpu time   17.2784: real time   17.3157
    SETDIJ:  cpu time    0.0070: real time    0.0065
     EDDAV:  cpu time   83.7003: real time   83.8778
       DOS:  cpu time    0.0000: real time    0.0003
    --------------------------------------------
      LOOP:  cpu time  100.9896: real time  101.2057

 eigenvalue-minimisations  :   160
 total energy-change (2. order) : 0.1120818E+03  (-0.2140452E+03)
 number of electron      16.0000000 magnetization 
 augmentation part       16.0000000 magnetization 

 Free energy of the ion-electron system (eV)
  ---------------------------------------------------
  alpha Z        PSCENC =         0.04144063
  Ewald energy   TEWEN  =       708.87845792
  -Hartree energ DENC   =     -1124.60534563
  -exchange      EXHF   =         0.00000000
  -V(xc)+E(xc)   XCENC  =        51.37974830
  PAW double counting   =       428.37890668     -430.73533574
  entropy T*S    EENTRO =        -0.19291747
  eigenvalues    EBANDS =      -117.22849751
  atomic energy  EATOM  =       596.16534815
  Solvation  Ediel_sol  =         0.00000000
  ---------------------------------------------------
  free energy    TOTEN  =       112.08180531 eV

  energy without entropy =      112.27472278  energy(sigma->0) =      112.17826405


--------------------------------------------------------------------------------------------------------




----------------------------------------- Iteration    1(   2)  ---------------------------------------


     EDDAV:  cpu time   98.4600: real time   98.6709
       DOS:  cpu time    0.0000: real time    0.0002
    --------------------------------------------
      LOOP:  cpu time   98.4620: real time   98.6741

 eigenvalue-minimisations  :   192
 total energy-change (2. order) :-0.1168457E+03  (-0.1144056E+03)
 number of electron      16.0000000 magnetization 
 augmentation part       16.0000000 magnetization 

 Free energy of the ion-electron system (eV)
  ---------------------------------------------------
  alpha Z        PSCENC =         0.04144063
  Ewald energy   TEWEN  =       708.87845792
  -Hartree energ DENC   =     -1124.60534563
  -exchange      EXHF   =         0.00000000
  -V(xc)+E(xc)   XCENC  =        51.37974830
  PAW double counting   =       428.37890668     -430.73533574
  entropy T*S    EENTRO =         0.00000000
  eigenvalues    EBANDS =      -234.26708871
  atomic energy  EATOM  =       596.16534815
  Solvation  Ediel_sol  =         0.00000000
  ---------------------------------------------------
  free energy    TOTEN  =        -4.76386842 eV

  energy without entropy =       -4.76386842  energy(sigma->0) =       -4.76386842


--------------------------------------------------------------------------------------------------------




----------------------------------------- Iteration    1(   3)  ---------------------------------------


     EDDAV:  cpu time   70.2573: real time   70.4088
       DOS:  cpu time    0.0000: real time    0.0002
    --------------------------------------------
      LOOP:  cpu time   70.2593: real time   70.4126

 eigenvalue-minimisations  :   128
 total energy-change (2. order) :-0.3037478E+02  (-0.3014134E+02)
 number of electron      16.0000000 magnetization 
 augmentation part       16.0000000 magnetization 

 Free energy of the ion-electron system (eV)
  ---------------------------------------------------
  alpha Z        PSCENC =         0.04144063
  Ewald energy   TEWEN  =       708.87845792
  -Hartree energ DENC   =     -1124.60534563
  -exchange      EXHF   =         0.00000000
  -V(xc)+E(xc)   XCENC  =        51.37974830
  PAW double counting   =       428.37890668     -430.73533574
  entropy T*S    EENTRO =         0.00000000
  eigenvalues    EBANDS =      -264.64187140
  atomic energy  EATOM  =       596.16534815
  Solvation  Ediel_sol  =         0.00000000
  ---------------------------------------------------
  free energy    TOTEN  =       -35.13865110 eV

  energy without entropy =      -35.13865110  energy(sigma->0) =      -35.13865110


--------------------------------------------------------------------------------------------------------




----------------------------------------- Iteration    1(   4)  ---------------------------------------


     EDDAV:  cpu time   64.5392: real time   64.6786
       DOS:  cpu time    0.0010: real time    0.0002
    --------------------------------------------
      LOOP:  cpu time   64.5402: real time   64.6814

 eigenvalue-minimisations  :   116
 total energy-change (2. order) :-0.3299730E+01  (-0.3260910E+01)
 number of electron      16.0000000 magnetization 
 augmentation part       16.0000000 magnetization 

 Free energy of the ion-electron system (eV)
  ---------------------------------------------------
  alpha Z        PSCENC =         0.04144063
  Ewald energy   TEWEN  =       708.87845792
  -Hartree energ DENC   =     -1124.60534563
  -exchange      EXHF   =         0.00000000
  -V(xc)+E(xc)   XCENC  =        51.37974830
  PAW double counting   =       428.37890668     -430.73533574
  entropy T*S    EENTRO =         0.00000000
  eigenvalues    EBANDS =      -267.94160100
  atomic energy  EATOM  =       596.16534815
  Solvation  Ediel_sol  =         0.00000000
  ---------------------------------------------------
  free energy    TOTEN  =       -38.43838071 eV

  energy without entropy =      -38.43838071  energy(sigma->0) =      -38.43838071


--------------------------------------------------------------------------------------------------------




----------------------------------------- Iteration    1(   5)  ---------------------------------------


     EDDAV:  cpu time   61.6526: real time   61.7854
       DOS:  cpu time    0.0000: real time    0.0001
    CHARGE:  cpu time    5.0312: real time    5.0425
    MIXING:  cpu time    0.4989: real time    0.5000
    --------------------------------------------
      LOOP:  cpu time   67.1848: real time   67.3328

 eigenvalue-minimisations  :   112
 total energy-change (2. order) :-0.1004614E+00  (-0.9949807E-01)
 number of electron      15.9999972 magnetization 
 augmentation part        0.5053599 magnetization 

 Broyden mixing:
  rms(total) = 0.10614E+01    rms(broyden)= 0.10606E+01
  rms(prec ) = 0.10975E+01
  weight for this iteration     100.00

 Free energy of the ion-electron system (eV)
  ---------------------------------------------------
  alpha Z        PSCENC =         0.04144063
  Ewald energy   TEWEN  =       708.87845792
  -Hartree energ DENC   =     -1124.60534563
  -exchange      EXHF   =         0.00000000
  -V(xc)+E(xc)   XCENC  =        51.37974830
  PAW double counting   =       428.37890668     -430.73533574
  entropy T*S    EENTRO =         0.00000000
  eigenvalues    EBANDS =      -268.04206244
  atomic energy  EATOM  =       596.16534815
  Solvation  Ediel_sol  =         0.00000000
  ---------------------------------------------------
  free energy    TOTEN  =       -38.53884215 eV

  energy without entropy =      -38.53884215  energy(sigma->0) =      -38.53884215


--------------------------------------------------------------------------------------------------------




----------------------------------------- Iteration    1(   6)  ---------------------------------------


    POTLOK:  cpu time   16.9104: real time   16.9467
    SETDIJ:  cpu time    0.0060: real time    0.0064
     EDDAV:  cpu time   61.0037: real time   61.1355
       DOS:  cpu time    0.0000: real time    0.0002
    CHARGE:  cpu time    5.1622: real time    5.1730
    MIXING:  cpu time    0.5529: real time    0.5536
    --------------------------------------------
      LOOP:  cpu time   83.6363: real time   83.8185

 eigenvalue-minimisations  :   112
 total energy-change (2. order) : 0.2652959E+01  (-0.4577410E+00)
 number of electron      15.9999975 magnetization 
 augmentation part        0.4569227 magnetization 

 Broyden mixing:
  rms(total) = 0.57095E+00    rms(broyden)= 0.57085E+00
  rms(prec ) = 0.58622E+00
  weight for this iteration     100.00

 eigenvalues of (default mixing * dielectric matrix)
  average eigenvalue GAMMA=   1.5042
  1.5042

 Free energy of the ion-electron system (eV)
  ---------------------------------------------------
  alpha Z        PSCENC =         0.04144063
  Ewald energy   TEWEN  =       708.87845792
  -Hartree energ DENC   =     -1153.85588040
  -exchange      EXHF   =         0.00000000
  -V(xc)+E(xc)   XCENC  =        52.98333841
  PAW double counting   =       711.06671445     -713.74491616
  entropy T*S    EENTRO =         0.00000000
  eigenvalues    EBANDS =      -237.42038584
  atomic energy  EATOM  =       596.16534815
  Solvation  Ediel_sol  =         0.00000000
  ---------------------------------------------------
  free energy    TOTEN  =       -35.88588285 eV

  energy without entropy =      -35.88588285  energy(sigma->0) =      -35.88588285


--------------------------------------------------------------------------------------------------------




----------------------------------------- Iteration    1(   7)  ---------------------------------------


    POTLOK:  cpu time   17.2044: real time   17.2413
    SETDIJ:  cpu time    0.0060: real time    0.0063
     EDDAV:  cpu time   63.3124: real time   63.4482
       DOS:  cpu time    0.0000: real time    0.0002
    CHARGE:  cpu time    4.9682: real time    4.9784
    MIXING:  cpu time    0.6159: real time    0.6174
    --------------------------------------------
      LOOP:  cpu time   86.1079: real time   86.2956

 eigenvalue-minimisations  :   116
 total energy-change (2. order) : 0.6542054E+00  (-0.1539857E+00)
 number of electron      15.9999974 magnetization 
 augmentation part        0.4483845 magnetization 

 Broyden mixing:
  rms(total) = 0.24802E+00    rms(broyden)= 0.24796E+00
  rms(prec ) = 0.25384E+00
  weight for this iteration     100.00

 eigenvalues of (default mixing * dielectric matrix)
  average eigenvalue GAMMA=   1.5014
  0.9340  2.0689

 Free energy of the ion-electron system (eV)
  ---------------------------------------------------
  alpha Z        PSCENC =         0.04144063
  Ewald energy   TEWEN  =       708.87845792
  -Hartree energ DENC   =     -1171.54928748
  -exchange      EXHF   =         0.00000000
  -V(xc)+E(xc)   XCENC  =        54.12039111
  PAW double counting   =      1046.57527485    -1049.41998054
  entropy T*S    EENTRO =         0.00000000
  eigenvalues    EBANDS =      -220.04332207
  atomic energy  EATOM  =       596.16534815
  Solvation  Ediel_sol  =         0.00000000
  ---------------------------------------------------
  free energy    TOTEN  =       -35.23167744 eV

  energy without entropy =      -35.23167744  energy(sigma->0) =      -35.23167744


--------------------------------------------------------------------------------------------------------




----------------------------------------- Iteration    1(   8)  ---------------------------------------


    POTLOK:  cpu time   16.9664: real time   17.0020
    SETDIJ:  cpu time    0.0060: real time    0.0064
     EDDAV:  cpu time   69.8584: real time   70.0085
       DOS:  cpu time    0.0000: real time    0.0002
    CHARGE:  cpu time    4.8963: real time    4.9065
    MIXING:  cpu time    0.6169: real time    0.6187
    --------------------------------------------
      LOOP:  cpu time   92.3450: real time   92.5460

 eigenvalue-minimisations  :   128
 total energy-change (2. order) : 0.8869119E-01  (-0.2339750E-01)
 number of electron      15.9999974 magnetization 
 augmentation part        0.4371203 magnetization 

 Broyden mixing:
  rms(total) = 0.99242E-01    rms(broyden)= 0.99213E-01
  rms(prec ) = 0.10282E+00
  weight for this iteration     100.00

 eigenvalues of (default mixing * dielectric matrix)
  average eigenvalue GAMMA=   1.5773
  2.3210  1.6179  0.7930

 Free energy of the ion-electron system (eV)
  ---------------------------------------------------
  alpha Z        PSCENC =         0.04144063
  Ewald energy   TEWEN  =       708.87845792
  -Hartree energ DENC   =     -1179.62261329
  -exchange      EXHF   =         0.00000000
  -V(xc)+E(xc)   XCENC  =        54.64486394
  PAW double counting   =      1236.23612447    -1239.12336557
  entropy T*S    EENTRO =         0.00000000
  eigenvalues    EBANDS =      -212.36324249
  atomic energy  EATOM  =       596.16534815
  Solvation  Ediel_sol  =         0.00000000
  ---------------------------------------------------
  free energy    TOTEN  =       -35.14298625 eV

  energy without entropy =      -35.14298625  energy(sigma->0) =      -35.14298625


--------------------------------------------------------------------------------------------------------




----------------------------------------- Iteration    1(   9)  ---------------------------------------


    POTLOK:  cpu time   16.4355: real time   16.4707
    SETDIJ:  cpu time    0.0060: real time    0.0063
     EDDAV:  cpu time   56.1315: real time   56.2527
       DOS:  cpu time    0.0000: real time    0.0002
    CHARGE:  cpu time    4.9393: real time    4.9502
    MIXING:  cpu time    0.6539: real time    0.6557
    --------------------------------------------
      LOOP:  cpu time   78.1681: real time   78.3395

 eigenvalue-minimisations  :    96
 total energy-change (2. order) : 0.1846409E-01  (-0.3491994E-02)
 number of electron      15.9999975 magnetization 
 augmentation part        0.4372342 magnetization 

 Broyden mixing:
  rms(total) = 0.25018E-01    rms(broyden)= 0.25002E-01
  rms(prec ) = 0.29705E-01
  weight for this iteration     100.00

 eigenvalues of (default mixing * dielectric matrix)
  average eigenvalue GAMMA=   1.4677
  2.2655  1.6732  0.8456  1.0865

 Free energy of the ion-electron system (eV)
  ---------------------------------------------------
  alpha Z        PSCENC =         0.04144063
  Ewald energy   TEWEN  =       708.87845792
  -Hartree energ DENC   =     -1180.77900260
  -exchange      EXHF   =         0.00000000
  -V(xc)+E(xc)   XCENC  =        54.73056725
  PAW double counting   =      1307.89293740    -1310.74936657
  entropy T*S    EENTRO =         0.00000000
  eigenvalues    EBANDS =      -211.30490434
  atomic energy  EATOM  =       596.16534815
  Solvation  Ediel_sol  =         0.00000000
  ---------------------------------------------------
  free energy    TOTEN  =       -35.12452216 eV

  energy without entropy =      -35.12452216  energy(sigma->0) =      -35.12452216


--------------------------------------------------------------------------------------------------------




----------------------------------------- Iteration    1(  10)  ---------------------------------------


    POTLOK:  cpu time   16.1096: real time   16.1446
    SETDIJ:  cpu time    0.0060: real time    0.0063
     EDDAV:  cpu time   68.3076: real time   68.4531
       DOS:  cpu time    0.0000: real time    0.0002
    CHARGE:  cpu time    5.0022: real time    5.0114
    MIXING:  cpu time    0.7429: real time    0.7451
    --------------------------------------------
      LOOP:  cpu time   90.1693: real time   90.3643

 eigenvalue-minimisations  :   124
 total energy-change (2. order) : 0.5486580E-03  (-0.4585820E-03)
 number of electron      15.9999975 magnetization 
 augmentation part        0.4383555 magnetization 

 Broyden mixing:
  rms(total) = 0.13087E-01    rms(broyden)= 0.13081E-01
  rms(prec ) = 0.18124E-01
  weight for this iteration     100.00

 eigenvalues of (default mixing * dielectric matrix)
  average eigenvalue GAMMA=   1.4933
  2.1574  2.1574  0.9039  0.9413  1.3064

 Free energy of the ion-electron system (eV)
  ---------------------------------------------------
  alpha Z        PSCENC =         0.04144063
  Ewald energy   TEWEN  =       708.87845792
  -Hartree energ DENC   =     -1181.55499635
  -exchange      EXHF   =         0.00000000
  -V(xc)+E(xc)   XCENC  =        54.74984373
  PAW double counting   =      1306.28681923    -1309.13996412
  entropy T*S    EENTRO =         0.00000000
  eigenvalues    EBANDS =      -210.55092269
  atomic energy  EATOM  =       596.16534815
  Solvation  Ediel_sol  =         0.00000000
  ---------------------------------------------------
  free energy    TOTEN  =       -35.12397350 eV

  energy without entropy =      -35.12397350  energy(sigma->0) =      -35.12397350


--------------------------------------------------------------------------------------------------------




----------------------------------------- Iteration    1(  11)  ---------------------------------------


    POTLOK:  cpu time   16.9674: real time   17.0035
    SETDIJ:  cpu time    0.0060: real time    0.0063
     EDDAV:  cpu time   54.7527: real time   54.8711
       DOS:  cpu time    0.0000: real time    0.0002
    CHARGE:  cpu time    5.0372: real time    5.0479
    MIXING:  cpu time    0.8059: real time    0.8075
    --------------------------------------------
      LOOP:  cpu time   77.5712: real time   77.7406

 eigenvalue-minimisations  :    96
 total energy-change (2. order) :-0.1713508E-02  (-0.1256694E-03)
 number of electron      15.9999975 magnetization 
 augmentation part        0.4379920 magnetization 

 Broyden mixing:
  rms(total) = 0.75545E-02    rms(broyden)= 0.75534E-02
  rms(prec ) = 0.12049E-01
  weight for this iteration     100.00

 eigenvalues of (default mixing * dielectric matrix)
  average eigenvalue GAMMA=   1.6070
  2.5685  2.5685  1.3283  1.3283  0.8787  0.9694

 Free energy of the ion-electron system (eV)
  ---------------------------------------------------
  alpha Z        PSCENC =         0.04144063
  Ewald energy   TEWEN  =       708.87845792
  -Hartree energ DENC   =     -1182.57540128
  -exchange      EXHF   =         0.00000000
  -V(xc)+E(xc)   XCENC  =        54.77706224
  PAW double counting   =      1304.01390813    -1306.86482284
  entropy T*S    EENTRO =         0.00000000
  eigenvalues    EBANDS =      -209.56167995
  atomic energy  EATOM  =       596.16534815
  Solvation  Ediel_sol  =         0.00000000
  ---------------------------------------------------
  free energy    TOTEN  =       -35.12568701 eV

  energy without entropy =      -35.12568701  energy(sigma->0) =      -35.12568701


--------------------------------------------------------------------------------------------------------




----------------------------------------- Iteration    1(  12)  ---------------------------------------


    POTLOK:  cpu time   16.8464: real time   16.8829
    SETDIJ:  cpu time    0.0050: real time    0.0064
     EDDAV:  cpu time   59.7889: real time   59.9175
       DOS:  cpu time    0.0000: real time    0.0002
    CHARGE:  cpu time    5.1012: real time    5.1120
    MIXING:  cpu time    0.8159: real time    0.8168
    --------------------------------------------
      LOOP:  cpu time   82.5584: real time   82.7393

 eigenvalue-minimisations  :   108
 total energy-change (2. order) :-0.4446440E-02  (-0.2224797E-03)
 number of electron      15.9999975 magnetization 
 augmentation part        0.4377696 magnetization 

 Broyden mixing:
  rms(total) = 0.42790E-02    rms(broyden)= 0.42740E-02
  rms(prec ) = 0.70390E-02
  weight for this iteration     100.00

 eigenvalues of (default mixing * dielectric matrix)
  average eigenvalue GAMMA=   1.6822
  3.4113  2.3744  1.5479  1.5479  0.8788  1.0075  1.0075

 Free energy of the ion-electron system (eV)
  ---------------------------------------------------
  alpha Z        PSCENC =         0.04144063
  Ewald energy   TEWEN  =       708.87845792
  -Hartree energ DENC   =     -1183.77100238
  -exchange      EXHF   =         0.00000000
  -V(xc)+E(xc)   XCENC  =        54.80597093
  PAW double counting   =      1301.46361221    -1304.31227615
  entropy T*S    EENTRO =         0.00000000
  eigenvalues    EBANDS =      -208.40168476
  atomic energy  EATOM  =       596.16534815
  Solvation  Ediel_sol  =         0.00000000
  ---------------------------------------------------
  free energy    TOTEN  =       -35.13013345 eV

  energy without entropy =      -35.13013345  energy(sigma->0) =      -35.13013345


--------------------------------------------------------------------------------------------------------




----------------------------------------- Iteration    1(  13)  ---------------------------------------


    POTLOK:  cpu time   17.0644: real time   17.1020
    SETDIJ:  cpu time    0.0070: real time    0.0063
     EDDAV:  cpu time   75.1366: real time   75.2990
       DOS:  cpu time    0.0000: real time    0.0002
    CHARGE:  cpu time    5.0942: real time    5.1053
    MIXING:  cpu time    0.8739: real time    0.8764
    --------------------------------------------
      LOOP:  cpu time   98.1771: real time   98.3935

 eigenvalue-minimisations  :   144
 total energy-change (2. order) :-0.4829749E-02  (-0.1279673E-03)
 number of electron      15.9999975 magnetization 
 augmentation part        0.4375253 magnetization 

 Broyden mixing:
  rms(total) = 0.27758E-02    rms(broyden)= 0.27737E-02
  rms(prec ) = 0.43406E-02
  weight for this iteration     100.00

 eigenvalues of (default mixing * dielectric matrix)
  average eigenvalue GAMMA=   1.8801
  4.8049  2.5633  1.9240  1.7046  0.8830  0.8830  1.1390  1.1390

 Free energy of the ion-electron system (eV)
  ---------------------------------------------------
  alpha Z        PSCENC =         0.04144063
  Ewald energy   TEWEN  =       708.87845792
  -Hartree energ DENC   =     -1184.44788333
  -exchange      EXHF   =         0.00000000
  -V(xc)+E(xc)   XCENC  =        54.81700458
  PAW double counting   =      1300.88205592    -1303.73049060
  entropy T*S    EENTRO =         0.00000000
  eigenvalues    EBANDS =      -207.74089647
  atomic energy  EATOM  =       596.16534815
  Solvation  Ediel_sol  =         0.00000000
  ---------------------------------------------------
  free energy    TOTEN  =       -35.13496320 eV

  energy without entropy =      -35.13496320  energy(sigma->0) =      -35.13496320


--------------------------------------------------------------------------------------------------------




----------------------------------------- Iteration    1(  14)  ---------------------------------------


    POTLOK:  cpu time   17.0354: real time   17.0721
    SETDIJ:  cpu time    0.0060: real time    0.0063
     EDDAV:  cpu time   65.1221: real time   65.2635
       DOS:  cpu time    0.0000: real time    0.0002
    CHARGE:  cpu time    5.0272: real time    5.0375
    MIXING:  cpu time    0.8779: real time    0.8808
    --------------------------------------------
      LOOP:  cpu time   88.0696: real time   88.2631

 eigenvalue-minimisations  :   120
 total energy-change (2. order) :-0.4235806E-02  (-0.6075603E-04)
 number of electron      15.9999975 magnetization 
 augmentation part        0.4375326 magnetization 

 Broyden mixing:
  rms(total) = 0.17430E-02    rms(broyden)= 0.17427E-02
  rms(prec ) = 0.25006E-02
  weight for this iteration     100.00

 eigenvalues of (default mixing * dielectric matrix)
  average eigenvalue GAMMA=   1.8405
  5.0516  2.4101  2.4101  1.4436  1.2694  1.2694  0.8545  0.9277  0.9277

 Free energy of the ion-electron system (eV)
  ---------------------------------------------------
  alpha Z        PSCENC =         0.04144063
  Ewald energy   TEWEN  =       708.87845792
  -Hartree energ DENC   =     -1184.74884125
  -exchange      EXHF   =         0.00000000
  -V(xc)+E(xc)   XCENC  =        54.81303644
  PAW double counting   =      1299.00754551    -1301.85558224
  entropy T*S    EENTRO =         0.00000000
  eigenvalues    EBANDS =      -207.44060416
  atomic energy  EATOM  =       596.16534815
  Solvation  Ediel_sol  =         0.00000000
  ---------------------------------------------------
  free energy    TOTEN  =       -35.13919900 eV

  energy without entropy =      -35.13919900  energy(sigma->0) =      -35.13919900


--------------------------------------------------------------------------------------------------------




----------------------------------------- Iteration    1(  15)  ---------------------------------------


    POTLOK:  cpu time   17.1214: real time   17.1587
    SETDIJ:  cpu time    0.0070: real time    0.0063
     EDDAV:  cpu time   69.1685: real time   69.3180
       DOS:  cpu time    0.0000: real time    0.0002
    CHARGE:  cpu time    4.8373: real time    4.8481
    MIXING:  cpu time    0.9379: real time    0.9395
    --------------------------------------------
      LOOP:  cpu time   92.0730: real time   92.2741

 eigenvalue-minimisations  :   128
 total energy-change (2. order) :-0.1607817E-02  (-0.1250778E-04)
 number of electron      15.9999975 magnetization 
 augmentation part        0.4375221 magnetization 

 Broyden mixing:
  rms(total) = 0.11149E-02    rms(broyden)= 0.11147E-02
  rms(prec ) = 0.17576E-02
  weight for this iteration     100.00

 eigenvalues of (default mixing * dielectric matrix)
  average eigenvalue GAMMA=   2.0567
  6.3209  3.2929  2.4383  2.0659  1.4663  1.2663  1.0768  0.9043  0.9043  0.8309

 Free energy of the ion-electron system (eV)
  ---------------------------------------------------
  alpha Z        PSCENC =         0.04144063
  Ewald energy   TEWEN  =       708.87845792
  -Hartree energ DENC   =     -1184.81188348
  -exchange      EXHF   =         0.00000000
  -V(xc)+E(xc)   XCENC  =        54.81258142
  PAW double counting   =      1299.58549805    -1302.43395410
  entropy T*S    EENTRO =         0.00000000
  eigenvalues    EBANDS =      -207.37829540
  atomic energy  EATOM  =       596.16534815
  Solvation  Ediel_sol  =         0.00000000
  ---------------------------------------------------
  free energy    TOTEN  =       -35.14080682 eV

  energy without entropy =      -35.14080682  energy(sigma->0) =      -35.14080682


--------------------------------------------------------------------------------------------------------




----------------------------------------- Iteration    1(  16)  ---------------------------------------


    POTLOK:  cpu time   16.7495: real time   16.7850
    SETDIJ:  cpu time    0.0060: real time    0.0063
     EDDAV:  cpu time   66.5929: real time   66.7386
       DOS:  cpu time    0.0000: real time    0.0002
    CHARGE:  cpu time    4.7833: real time    4.7938
    MIXING:  cpu time    1.0178: real time    1.0205
    --------------------------------------------
      LOOP:  cpu time   89.1514: real time   89.3479

 eigenvalue-minimisations  :   120
 total energy-change (2. order) :-0.2565444E-02  (-0.3093178E-04)
 number of electron      15.9999975 magnetization 
 augmentation part        0.4375246 magnetization 

 Broyden mixing:
  rms(total) = 0.54256E-03    rms(broyden)= 0.54234E-03
  rms(prec ) = 0.77658E-03
  weight for this iteration     100.00

 eigenvalues of (default mixing * dielectric matrix)
  average eigenvalue GAMMA=   2.0696
  7.1308  3.4803  2.3032  2.3032  1.5172  1.2416  1.2416  0.9433  0.9433  0.8711
  0.7899

 Free energy of the ion-electron system (eV)
  ---------------------------------------------------
  alpha Z        PSCENC =         0.04144063
  Ewald energy   TEWEN  =       708.87845792
  -Hartree energ DENC   =     -1184.86211022
  -exchange      EXHF   =         0.00000000
  -V(xc)+E(xc)   XCENC  =        54.80766752
  PAW double counting   =      1299.63732622    -1302.48580125
  entropy T*S    EENTRO =         0.00000000
  eigenvalues    EBANDS =      -207.32570123
  atomic energy  EATOM  =       596.16534815
  Solvation  Ediel_sol  =         0.00000000
  ---------------------------------------------------
  free energy    TOTEN  =       -35.14337227 eV

  energy without entropy =      -35.14337227  energy(sigma->0) =      -35.14337227


--------------------------------------------------------------------------------------------------------




----------------------------------------- Iteration    1(  17)  ---------------------------------------


    POTLOK:  cpu time   16.1475: real time   16.1822
    SETDIJ:  cpu time    0.0060: real time    0.0063
     EDDAV:  cpu time   56.7434: real time   56.8668
       DOS:  cpu time    0.0000: real time    0.0002
    CHARGE:  cpu time    5.0912: real time    5.1017
    MIXING:  cpu time    1.1458: real time    1.1476
    --------------------------------------------
      LOOP:  cpu time   79.1350: real time   79.3072

 eigenvalue-minimisations  :    96
 total energy-change (2. order) :-0.4633724E-03  (-0.1776797E-05)
 number of electron      15.9999975 magnetization 
 augmentation part        0.4375210 magnetization 

 Broyden mixing:
  rms(total) = 0.37046E-03    rms(broyden)= 0.37041E-03
  rms(prec ) = 0.54227E-03
  weight for this iteration     100.00

 eigenvalues of (default mixing * dielectric matrix)
  average eigenvalue GAMMA=   2.2394
  7.9723  4.3850  2.5994  2.5101  1.8923  1.5817  1.1968  1.1968  0.9220  0.9220
  0.8909  0.8038

 Free energy of the ion-electron system (eV)
  ---------------------------------------------------
  alpha Z        PSCENC =         0.04144063
  Ewald energy   TEWEN  =       708.87845792
  -Hartree energ DENC   =     -1184.86635710
  -exchange      EXHF   =         0.00000000
  -V(xc)+E(xc)   XCENC  =        54.80666204
  PAW double counting   =      1299.53448768    -1302.38290089
  entropy T*S    EENTRO =         0.00000000
  eigenvalues    EBANDS =      -207.32097407
  atomic energy  EATOM  =       596.16534815
  Solvation  Ediel_sol  =         0.00000000
  ---------------------------------------------------
  free energy    TOTEN  =       -35.14383564 eV

  energy without entropy =      -35.14383564  energy(sigma->0) =      -35.14383564


--------------------------------------------------------------------------------------------------------




----------------------------------------- Iteration    1(  18)  ---------------------------------------


    POTLOK:  cpu time   16.8144: real time   16.8518
    SETDIJ:  cpu time    0.0070: real time    0.0063
     EDDAV:  cpu time   50.8613: real time   50.9727
       DOS:  cpu time    0.0000: real time    0.0002
    CHARGE:  cpu time    4.9832: real time    4.9938
    MIXING:  cpu time    1.1948: real time    1.1980
    --------------------------------------------
      LOOP:  cpu time   73.8628: real time   74.0263

 eigenvalue-minimisations  :    84
 total energy-change (2. order) :-0.5959510E-03  (-0.4250456E-05)
 number of electron      15.9999975 magnetization 
 augmentation part        0.4375222 magnetization 

 Broyden mixing:
  rms(total) = 0.17882E-03    rms(broyden)= 0.17879E-03
  rms(prec ) = 0.24635E-03
  weight for this iteration     100.00

 eigenvalues of (default mixing * dielectric matrix)
  average eigenvalue GAMMA=   2.2637
  8.2035  4.9607  2.7235  2.3855  2.3855  1.4986  1.3543  1.3543  0.9685  0.9685
  0.9087  0.9087  0.8077

 Free energy of the ion-electron system (eV)
  ---------------------------------------------------
  alpha Z        PSCENC =         0.04144063
  Ewald energy   TEWEN  =       708.87845792
  -Hartree energ DENC   =     -1184.85490066
  -exchange      EXHF   =         0.00000000
  -V(xc)+E(xc)   XCENC  =        54.80521919
  PAW double counting   =      1299.67924914    -1302.52755882
  entropy T*S    EENTRO =         0.00000000
  eigenvalues    EBANDS =      -207.33168714
  atomic energy  EATOM  =       596.16534815
  Solvation  Ediel_sol  =         0.00000000
  ---------------------------------------------------
  free energy    TOTEN  =       -35.14443159 eV

  energy without entropy =      -35.14443159  energy(sigma->0) =      -35.14443159


--------------------------------------------------------------------------------------------------------




----------------------------------------- Iteration    1(  19)  ---------------------------------------


    POTLOK:  cpu time   16.9064: real time   16.9441
    SETDIJ:  cpu time    0.0060: real time    0.0063
     EDDAV:  cpu time   55.9815: real time   56.1042
       DOS:  cpu time    0.0000: real time    0.0002
    CHARGE:  cpu time    4.9902: real time    5.0015
    MIXING:  cpu time    1.2518: real time    1.2554
    --------------------------------------------
      LOOP:  cpu time   79.1400: real time   79.3150

 eigenvalue-minimisations  :    96
 total energy-change (2. order) :-0.1497938E-03  (-0.1210354E-05)
 number of electron      15.9999975 magnetization 
 augmentation part        0.4375170 magnetization 

 Broyden mixing:
  rms(total) = 0.12690E-03    rms(broyden)= 0.12688E-03
  rms(prec ) = 0.16184E-03
  weight for this iteration     100.00

 eigenvalues of (default mixing * dielectric matrix)
  average eigenvalue GAMMA=   2.3492
  8.8054  5.3813  3.4923  2.6147  2.2387  1.8794  1.5754  1.2033  1.1368  1.0606
  0.9180  0.9180  0.8657  0.7992

 Free energy of the ion-electron system (eV)
  ---------------------------------------------------
  alpha Z        PSCENC =         0.04144063
  Ewald energy   TEWEN  =       708.87845792
  -Hartree energ DENC   =     -1184.85610376
  -exchange      EXHF   =         0.00000000
  -V(xc)+E(xc)   XCENC  =        54.80523097
  PAW double counting   =      1299.70225169    -1302.55064515
  entropy T*S    EENTRO =         0.00000000
  eigenvalues    EBANDS =      -207.33056183
  atomic energy  EATOM  =       596.16534815
  Solvation  Ediel_sol  =         0.00000000
  ---------------------------------------------------
  free energy    TOTEN  =       -35.14458138 eV

  energy without entropy =      -35.14458138  energy(sigma->0) =      -35.14458138


--------------------------------------------------------------------------------------------------------




----------------------------------------- Iteration    1(  20)  ---------------------------------------


    POTLOK:  cpu time   16.8134: real time   16.8487
    SETDIJ:  cpu time    0.0060: real time    0.0063
     EDDAV:  cpu time   48.2157: real time   48.3214
       DOS:  cpu time    0.0010: real time    0.0002
    --------------------------------------------
      LOOP:  cpu time   65.0371: real time   65.1796

 eigenvalue-minimisations  :    80
 total energy-change (2. order) :-0.8978383E-04  (-0.4714106E-06)
 number of electron      15.9999975 magnetization 
 augmentation part        0.4375170 magnetization 

 Free energy of the ion-electron system (eV)
  ---------------------------------------------------
  alpha Z        PSCENC =         0.04144063
  Ewald energy   TEWEN  =       708.87845792
  -Hartree energ DENC   =     -1184.85998318
  -exchange      EXHF   =         0.00000000
  -V(xc)+E(xc)   XCENC  =        54.80516893
  PAW double counting   =      1299.58433904    -1302.43274751
  entropy T*S    EENTRO =         0.00000000
  eigenvalues    EBANDS =      -207.32669515
  atomic energy  EATOM  =       596.16534815
  Solvation  Ediel_sol  =         0.00000000
  ---------------------------------------------------
  free energy    TOTEN  =       -35.14467117 eV

  energy without entropy =      -35.14467117  energy(sigma->0) =      -35.14467117


--------------------------------------------------------------------------------------------------------




 average (electrostatic) potential at core
  the test charge radii are     0.5201  0.6991  0.7089
  (the norm of the test charge is              1.0000)
       1 -42.8867       2 -42.8786       3 -42.8522       4 -60.3284       5 -59.7078
       6 -74.6617
 
 
 
 E-fermi :  -6.2393     XC(G=0):  -0.0910     alpha+bet : -0.0137


 k-point     1 :       0.2500    0.2500    0.2500
  band No.  band energies     occupation 
      1     -24.1066      2.00000
      2     -18.6324      2.00000
      3     -13.4173      2.00000
      4     -11.6513      2.00000
      5     -11.6285      2.00000
      6      -8.7640      2.00000
      7      -8.2324      2.00000
      8      -7.2307      2.00000
      9      -2.2192      0.00000
     10      -0.9579      0.00000
     11      -0.4303      0.00000
     12      -0.0069      0.00000

 k-point     2 :      -0.2500    0.2500    0.2500
  band No.  band energies     occupation 
      1     -24.1066      2.00000
      2     -18.6324      2.00000
      3     -13.4174      2.00000
      4     -11.6513      2.00000
      5     -11.6285      2.00000
      6      -8.7640      2.00000
      7      -8.2324      2.00000
      8      -7.2307      2.00000
      9      -2.2192      0.00000
     10      -0.9579      0.00000
     11      -0.4303      0.00000
     12      -0.0036      0.00000

 k-point     3 :       0.2500   -0.2500    0.2500
  band No.  band energies     occupation 
      1     -24.1066      2.00000
      2     -18.6324      2.00000
      3     -13.4174      2.00000
      4     -11.6513      2.00000
      5     -11.6285      2.00000
      6      -8.7640      2.00000
      7      -8.2324      2.00000
      8      -7.2307      2.00000
      9      -2.2192      0.00000
     10      -0.9579      0.00000
     11      -0.4304      0.00000
     12      -0.0017      0.00000

 k-point     4 :      -0.2500   -0.2500    0.2500
  band No.  band energies     occupation 
      1     -24.1066      2.00000
      2     -18.6324      2.00000
      3     -13.4174      2.00000
      4     -11.6513      2.00000
      5     -11.6285      2.00000
      6      -8.7640      2.00000
      7      -8.2324      2.00000
      8      -7.2307      2.00000
      9      -2.2192      0.00000
     10      -0.9579      0.00000
     11      -0.4304      0.00000
     12       0.0069      0.00000


--------------------------------------------------------------------------------------------------------


 soft charge-density along one line, spin component           1
         0         1         2         3         4         5         6         7         8         9
 total charge-density along one line
 
 pseudopotential strength for first ion, spin component:           1
 -2.360  -4.070  -0.002   0.000  -0.001
 -4.070  -6.933  -0.005   0.001  -0.002
 -0.002  -0.005  -0.330  -0.001   0.001
  0.000   0.001  -0.001  -0.334   0.000
 -0.001  -0.002   0.001   0.000  -0.334
 total augmentation occupancy for first ion, spin component:           1
  3.530  -0.636   0.420  -0.068   0.130
 -0.636   0.132  -0.077   0.013  -0.024
  0.420  -0.077   0.051  -0.007   0.014
 -0.068   0.013  -0.007   0.010  -0.003
  0.130  -0.024   0.014  -0.003   0.010


------------------------ aborting loop because EDIFF is reached ----------------------------------------


    CHARGE:  cpu time    4.9163: real time    4.9273
    FORLOC:  cpu time    2.3156: real time    2.3201
    FORNL :  cpu time   16.5145: real time   16.5502
    STRESS:  cpu time   50.1984: real time   50.3086
    FORCOR:  cpu time   18.0323: real time   18.0703
    FORHAR:  cpu time    6.3930: real time    6.4063
    MIXING:  cpu time    1.2688: real time    1.2705
    OFIELD:  cpu time    0.0000: real time    0.0001

  FORCE on cell =-STRESS in cart. coord.  units (eV):
  Direction    XX          YY          ZZ          XY          YZ          ZX
  --------------------------------------------------------------------------------------
  Alpha Z     0.04144     0.04144     0.04144
  Ewald     503.38538    97.97107   107.52206  -100.42039    61.71874   -86.37602
  Hartree   553.24526   314.22585   317.38244   -43.94514    22.88347   -33.69013
  E(xc)     -59.17395   -59.94413   -59.91003    -0.31282     0.21341    -0.30240
  Local   -1208.19503  -581.52014  -592.87137   137.62760   -78.06371   113.75775
  n-local   -23.79902   -24.84908   -24.98350     2.25016    -1.27024     2.68514
  augment     0.59401     0.91622     0.91728     0.06151    -0.02512     0.03881
  Kinetic   235.14967   252.00408   250.60972     4.14430    -5.66662     3.34152
  Fock        0.00000     0.00000     0.00000     0.00000     0.00000     0.00000
  -------------------------------------------------------------------------------------
  Total       1.24776    -1.15469    -1.29195    -0.59478    -0.21006    -0.54531
  in kB       0.07404    -0.06852    -0.07666    -0.03529    -0.01247    -0.03236
  external pressure =       -0.02 kB  Pullay stress =        0.00 kB


 VOLUME and BASIS-vectors are now :
 -----------------------------------------------------------------------------
  energy-cutoff  :      400.00
  volume of cell :    27000.00
      direct lattice vectors                 reciprocal lattice vectors
    30.000000000  0.000000000  0.000000000     0.033333333  0.000000000  0.000000000
     0.000000000 30.000000000  0.000000000     0.000000000  0.033333333  0.000000000
     0.000000000  0.000000000 30.000000000     0.000000000  0.000000000  0.033333333

  length of vectors
    30.000000000 30.000000000 30.000000000     0.033333333  0.033333333  0.033333333


 FORCES acting on ions
    electron-ion (+dipol)            ewald-force                    non-local-force                 convergence-correction
 -----------------------------------------------------------------------------------------------
   0.333E+02 0.577E+02 -.980E+01   -.351E+02 -.630E+02 0.108E+02   0.165E+01 0.537E+01 -.847E+00   0.348E-04 -.105E-03 0.127E-04
   0.282E+02 -.161E+02 0.590E+02   -.295E+02 0.176E+02 -.642E+02   0.117E+01 -.134E+01 0.540E+01   0.457E-04 0.176E-04 -.101E-03
   0.404E+02 -.386E+02 -.384E+02   -.434E+02 0.424E+02 0.422E+02   0.273E+01 -.367E+01 -.372E+01   0.587E-05 0.649E-04 0.697E-04
   0.121E+03 -.590E+01 0.185E+01   -.129E+03 0.576E+01 -.259E+01   0.737E+01 0.238E+00 0.847E+00   0.922E-03 -.262E-04 0.360E-04
   -.190E+03 0.926E+02 0.970E+02   0.207E+03 -.105E+03 -.110E+03   -.162E+02 0.122E+02 0.135E+02   -.110E-02 0.721E-03 0.782E-03
   -.291E+02 -.901E+02 -.110E+03   0.298E+02 0.102E+03 0.124E+03   -.107E+01 -.125E+02 -.150E+02   0.158E-02 -.491E-03 -.476E-03
 -----------------------------------------------------------------------------------------------
   0.433E+01 -.374E+00 -.162E+00   0.284E-13 0.000E+00 0.000E+00   -.433E+01 0.377E+00 0.155E+00   0.149E-02 0.181E-03 0.324E-03
 
 
 POSITION                                       TOTAL-FORCE (eV/Angst)
 -----------------------------------------------------------------------------------
     14.22094     14.04325     15.23577        -0.145205      0.127019      0.119297
     14.31450     15.34618     14.02224        -0.144675      0.105899      0.132170
     14.03869     15.75963     15.75324        -0.220556      0.128312      0.139696
     14.53861     15.08193     15.06572        -0.169838      0.096694      0.114244
     16.84766     14.59200     14.64734         1.087256      0.229165      0.356806
     15.97467     15.14103     15.24068        -0.406982     -0.687088     -0.862212
 -----------------------------------------------------------------------------------
    total drift:                                0.005105      0.002903     -0.006814


--------------------------------------------------------------------------------------------------------



  FREE ENERGIE OF THE ION-ELECTRON SYSTEM (eV)
  ---------------------------------------------------
  free  energy   TOTEN  =       -35.14467117 eV

  energy  without entropy=      -35.14467117  energy(sigma->0) =      -35.14467117
 


--------------------------------------------------------------------------------------------------------


    POTLOK:  cpu time   16.2815: real time   16.3159


--------------------------------------------------------------------------------------------------------


 NEB: the previous image is higher in energy: F
 NEB: the next image is higher in energy    : T
 NEB: only next energy greater

 NEB: Tangent
 ----------------------------------------------
      0.13233     -0.06683     -0.05950
      0.13937     -0.03896     -0.06129
      0.12825     -0.05694     -0.05346
      0.08965     -0.04984     -0.04639
     -0.68781     -0.14980     -0.22810
      0.21563      0.34559      0.44842

 NEB: forces: par spring, perp REAL, dneb     0.130875    0.229274    0.000000
 NEB: distance to prev, next image, angle between     0.173080    0.199255  164.082183
 NEB: projections on to tangent (spring, REAL)     0.130875   -1.710981

 stress matrix after NEB project (eV)
      1.24776     -0.59478     -0.54531
     -0.59478     -1.15469     -0.21006
     -0.54531     -0.21006     -1.29195
  FORCES: max atom, RMS     0.196089    0.107776
  FORCE total and by dimension    0.263997    0.179598
  Stress total and by dimension    2.439239    1.291954
 
 OPT: Flag T
 OPT: FIRE Step
 OPT: FIRE, TIMESTEP      0.10000
 OPT: FIRE, alpha         0.10000


--------------------------------------------------------------------------------------------------------


    WAVPRE:  cpu time    7.6638: real time    8.9080
 FEWALD executed in parallel
    FEWALD:  cpu time    0.0000: real time    0.0003
    ORTHCH:  cpu time    7.2879: real time    7.6013
     LOOP+:  cpu time 2814.2842: real time 2821.3990


----------------------------------------- Iteration    2(   1)  ---------------------------------------


    POTLOK:  cpu time   23.4774: real time   23.5383
    SETDIJ:  cpu time    0.0060: real time    0.0066
     EDDAV:  cpu time   82.1765: real time   82.4096
       DOS:  cpu time    0.0000: real time    0.0002
    CHARGE:  cpu time    7.1259: real time    7.1456
    MIXING:  cpu time    0.6429: real time    0.6451
    --------------------------------------------
      LOOP:  cpu time  113.4318: real time  113.7479

 eigenvalue-minimisations  :   120
 total energy-change (2. order) : 0.1672151E-02  (-0.1139163E-02)
 number of electron      15.9999974 magnetization 
 augmentation part        0.4379346 magnetization 

 Broyden mixing:
  rms(total) = 0.34786E-02    rms(broyden)= 0.34567E-02
  rms(prec ) = 0.35489E-02
  weight for this iteration     100.00

 Free energy of the ion-electron system (eV)
  ---------------------------------------------------
  alpha Z        PSCENC =         0.04144063
  Ewald energy   TEWEN  =       709.28041398
  -Hartree energ DENC   =     -1185.14690796
  -exchange      EXHF   =         0.00000000
  -V(xc)+E(xc)   XCENC  =        54.81091369
  PAW double counting   =      1299.60429637    -1302.45268548
  entropy T*S    EENTRO =         0.00000000
  eigenvalues    EBANDS =      -207.44572862
  atomic energy  EATOM  =       596.16534815
  Solvation  Ediel_sol  =         0.00000000
  ---------------------------------------------------
  free energy    TOTEN  =       -35.14290923 eV

  energy without entropy =      -35.14290923  energy(sigma->0) =      -35.14290923


--------------------------------------------------------------------------------------------------------




----------------------------------------- Iteration    2(   2)  ---------------------------------------


    POTLOK:  cpu time   23.1065: real time   23.1675
    SETDIJ:  cpu time    0.0070: real time    0.0070
     EDDAV:  cpu time   68.5676: real time   68.7913
       DOS:  cpu time    0.0000: real time    0.0002
    CHARGE:  cpu time    6.7010: real time    6.7191
    MIXING:  cpu time    0.6869: real time    0.6882
    --------------------------------------------
      LOOP:  cpu time   99.0699: real time   99.3769

 eigenvalue-minimisations  :    96
 total energy-change (2. order) : 0.3334270E-05  (-0.1353082E-04)
 number of electron      15.9999974 magnetization 
 augmentation part        0.4380714 magnetization 

 Broyden mixing:
  rms(total) = 0.20509E-02    rms(broyden)= 0.20492E-02
  rms(prec ) = 0.20921E-02
  weight for this iteration     100.00

 eigenvalues of (default mixing * dielectric matrix)
  average eigenvalue GAMMA=   1.5288
  1.5288

 Free energy of the ion-electron system (eV)
  ---------------------------------------------------
  alpha Z        PSCENC =         0.04144063
  Ewald energy   TEWEN  =       709.28041398
  -Hartree energ DENC   =     -1185.17332952
  -exchange      EXHF   =         0.00000000
  -V(xc)+E(xc)   XCENC  =        54.81237070
  PAW double counting   =      1300.27582823    -1303.12482757
  entropy T*S    EENTRO =         0.00000000
  eigenvalues    EBANDS =      -207.42015049
  atomic energy  EATOM  =       596.16534815
  Solvation  Ediel_sol  =         0.00000000
  ---------------------------------------------------
  free energy    TOTEN  =       -35.14290590 eV

  energy without entropy =      -35.14290590  energy(sigma->0) =      -35.14290590


--------------------------------------------------------------------------------------------------------




----------------------------------------- Iteration    2(   3)  ---------------------------------------


    POTLOK:  cpu time   24.4473: real time   24.5199
    SETDIJ:  cpu time    0.0070: real time    0.0068
     EDDAV:  cpu time   64.4922: real time   64.6730
       DOS:  cpu time    0.0000: real time    0.0002
    CHARGE:  cpu time    5.9921: real time    6.0089
    MIXING:  cpu time    0.7169: real time    0.7186
    --------------------------------------------
      LOOP:  cpu time   95.6575: real time   95.9316

 eigenvalue-minimisations  :    88
 total energy-change (2. order) :-0.1114287E-04  (-0.3430449E-05)
 number of electron      15.9999974 magnetization 
 augmentation part        0.4380107 magnetization 

 Broyden mixing:
  rms(total) = 0.75536E-03    rms(broyden)= 0.75489E-03
  rms(prec ) = 0.76416E-03
  weight for this iteration     100.00

 eigenvalues of (default mixing * dielectric matrix)
  average eigenvalue GAMMA=   1.4749
  0.9788  1.9711

 Free energy of the ion-electron system (eV)
  ---------------------------------------------------
  alpha Z        PSCENC =         0.04144063
  Ewald energy   TEWEN  =       709.28041398
  -Hartree energ DENC   =     -1185.21372753
  -exchange      EXHF   =         0.00000000
  -V(xc)+E(xc)   XCENC  =        54.81436206
  PAW double counting   =      1301.00823694    -1303.85796823
  entropy T*S    EENTRO =         0.00000000
  eigenvalues    EBANDS =      -207.38102303
  atomic energy  EATOM  =       596.16534815
  Solvation  Ediel_sol  =         0.00000000
  ---------------------------------------------------
  free energy    TOTEN  =       -35.14291704 eV

  energy without entropy =      -35.14291704  energy(sigma->0) =      -35.14291704


--------------------------------------------------------------------------------------------------------




----------------------------------------- Iteration    2(   4)  ---------------------------------------


    POTLOK:  cpu time   21.6857: real time   21.7420
    SETDIJ:  cpu time    0.0050: real time    0.0065
     EDDAV:  cpu time   63.5223: real time   63.7502
[...]
  Solvation  Ediel_sol  =         0.00000000
  ---------------------------------------------------
  free energy    TOTEN  =       -35.09171516 eV

  energy without entropy =      -35.09171516  energy(sigma->0) =      -35.09171516


--------------------------------------------------------------------------------------------------------




----------------------------------------- Iteration   28(   2)  ---------------------------------------


    POTLOK:  cpu time   22.3716: real time   25.4119
    SETDIJ:  cpu time    0.0070: real time    0.0068
     EDDAV:  cpu time   55.8435: real time   68.9807
       DOS:  cpu time    0.0000: real time    0.0002
    CHARGE:  cpu time    5.9711: real time    6.3557
    MIXING:  cpu time    0.6939: real time    0.7866
    --------------------------------------------
      LOOP:  cpu time   84.8901: real time  101.5507

 eigenvalue-minimisations  :    64
 total energy-change (2. order) : 0.2741220E-05  (-0.2627903E-05)
 number of electron      15.9999969 magnetization 
 augmentation part        0.4367407 magnetization 

 Broyden mixing:
  rms(total) = 0.92496E-03    rms(broyden)= 0.92418E-03
  rms(prec ) = 0.94074E-03
  weight for this iteration     100.00

 eigenvalues of (default mixing * dielectric matrix)
  average eigenvalue GAMMA=   1.7257
  1.7257

 Free energy of the ion-electron system (eV)
  ---------------------------------------------------
  alpha Z        PSCENC =         0.04144063
  Ewald energy   TEWEN  =       710.24076449
  -Hartree energ DENC   =     -1186.23935247
  -exchange      EXHF   =         0.00000000
  -V(xc)+E(xc)   XCENC  =        54.81313407
  PAW double counting   =      1299.13954831    -1301.98733060
  entropy T*S    EENTRO =         0.00000000
  eigenvalues    EBANDS =      -207.26526499
  atomic energy  EATOM  =       596.16534815
  Solvation  Ediel_sol  =         0.00000000
  ---------------------------------------------------
  free energy    TOTEN  =       -35.09171242 eV

  energy without entropy =      -35.09171242  energy(sigma->0) =      -35.09171242


--------------------------------------------------------------------------------------------------------




----------------------------------------- Iteration   28(   3)  ---------------------------------------


    POTLOK:  cpu time   19.6020: real time   20.8061
    SETDIJ:  cpu time    0.0060: real time    0.0064
     EDDAV:  cpu time   51.1672: real time   51.3644
       DOS:  cpu time    0.0000: real time    0.0002
    CHARGE:  cpu time    6.6530: real time    6.6760
    MIXING:  cpu time    0.6929: real time    0.6954
    --------------------------------------------
      LOOP:  cpu time   78.1231: real time   79.5598

 eigenvalue-minimisations  :    56
 total energy-change (2. order) :-0.1242144E-05  (-0.4561661E-06)
 number of electron      15.9999969 magnetization 
 augmentation part        0.4367386 magnetization 

 Broyden mixing:
  rms(total) = 0.26755E-03    rms(broyden)= 0.26722E-03
  rms(prec ) = 0.27130E-03
  weight for this iteration     100.00

 eigenvalues of (default mixing * dielectric matrix)
  average eigenvalue GAMMA=   1.5803
  1.1320  2.0286

 Free energy of the ion-electron system (eV)
  ---------------------------------------------------
  alpha Z        PSCENC =         0.04144063
  Ewald energy   TEWEN  =       710.24076449
  -Hartree energ DENC   =     -1186.23421169
  -exchange      EXHF   =         0.00000000
  -V(xc)+E(xc)   XCENC  =        54.81286422
  PAW double counting   =      1299.04544460    -1301.89312901
  entropy T*S    EENTRO =         0.00000000
  eigenvalues    EBANDS =      -207.27023505
  atomic energy  EATOM  =       596.16534815
  Solvation  Ediel_sol  =         0.00000000
  ---------------------------------------------------
  free energy    TOTEN  =       -35.09171366 eV

  energy without entropy =      -35.09171366  energy(sigma->0) =      -35.09171366


--------------------------------------------------------------------------------------------------------




----------------------------------------- Iteration   28(   4)  ---------------------------------------


    POTLOK:  cpu time   22.8905: real time   22.9910
    SETDIJ:  cpu time    0.0070: real time    0.0067
     EDDAV:  cpu time   44.4742: real time   48.3267
       DOS:  cpu time    0.0000: real time    0.0002
    CHARGE:  cpu time    6.0201: real time    6.9762
    MIXING:  cpu time    0.7299: real time    0.9021
    --------------------------------------------
      LOOP:  cpu time   74.1237: real time   79.2163

 eigenvalue-minimisations  :    48
 total energy-change (2. order) :-0.4037063E-06  (-0.1130225E-06)
 number of electron      15.9999969 magnetization 
 augmentation part        0.4367404 magnetization 

 Broyden mixing:
  rms(total) = 0.11717E-03    rms(broyden)= 0.11707E-03
  rms(prec ) = 0.11963E-03
  weight for this iteration     100.00

 eigenvalues of (default mixing * dielectric matrix)
  average eigenvalue GAMMA=   1.6775
  1.0198  1.6542  2.3586

 Free energy of the ion-electron system (eV)
  ---------------------------------------------------
  alpha Z        PSCENC =         0.04144063
  Ewald energy   TEWEN  =       710.24076449
  -Hartree energ DENC   =     -1186.23412771
  -exchange      EXHF   =         0.00000000
  -V(xc)+E(xc)   XCENC  =        54.81287890
  PAW double counting   =      1299.00074274    -1301.84841290
  entropy T*S    EENTRO =         0.00000000
  eigenvalues    EBANDS =      -207.27034835
  atomic energy  EATOM  =       596.16534815
  Solvation  Ediel_sol  =         0.00000000
  ---------------------------------------------------
  free energy    TOTEN  =       -35.09171407 eV

  energy without entropy =      -35.09171407  energy(sigma->0) =      -35.09171407


--------------------------------------------------------------------------------------------------------




----------------------------------------- Iteration   28(   5)  ---------------------------------------


    POTLOK:  cpu time   20.9728: real time   22.3445
    SETDIJ:  cpu time    0.0070: real time    0.0065
     EDDAV:  cpu time   46.3670: real time   52.4612
       DOS:  cpu time    0.0000: real time    0.0002
    CHARGE:  cpu time    6.6320: real time    8.1191
    MIXING:  cpu time    0.8369: real time    1.1477
    --------------------------------------------
      LOOP:  cpu time   74.8176: real time   84.0979

 eigenvalue-minimisations  :    48
 total energy-change (2. order) :-0.1663236E-06  (-0.3142743E-07)
 number of electron      15.9999969 magnetization 
 augmentation part        0.4367412 magnetization 

 Broyden mixing:
  rms(total) = 0.31141E-04    rms(broyden)= 0.31081E-04
  rms(prec ) = 0.33241E-04
  weight for this iteration     100.00

 eigenvalues of (default mixing * dielectric matrix)
  average eigenvalue GAMMA=   1.6533
  2.6404  0.9735  1.3823  1.6169

 Free energy of the ion-electron system (eV)
  ---------------------------------------------------
  alpha Z        PSCENC =         0.04144063
  Ewald energy   TEWEN  =       710.24076449
  -Hartree energ DENC   =     -1186.23512267
  -exchange      EXHF   =         0.00000000
  -V(xc)+E(xc)   XCENC  =        54.81294902
  PAW double counting   =      1298.96234469    -1301.81002181
  entropy T*S    EENTRO =         0.00000000
  eigenvalues    EBANDS =      -207.26941672
  atomic energy  EATOM  =       596.16534815
  Solvation  Ediel_sol  =         0.00000000
  ---------------------------------------------------
  free energy    TOTEN  =       -35.09171423 eV

  energy without entropy =      -35.09171423  energy(sigma->0) =      -35.09171423


--------------------------------------------------------------------------------------------------------




----------------------------------------- Iteration   28(   6)  ---------------------------------------


    POTLOK:  cpu time   22.0686: real time   25.1446
    SETDIJ:  cpu time    0.0060: real time    0.0065
     EDDAV:  cpu time   39.6040: real time   43.3472
       DOS:  cpu time    0.0000: real time    0.0002
    --------------------------------------------
      LOOP:  cpu time   61.6806: real time   68.5126

 eigenvalue-minimisations  :    48
 total energy-change (2. order) :-0.1082719E-06  (-0.1274989E-07)
 number of electron      15.9999969 magnetization 
 augmentation part        0.4367412 magnetization 

 Free energy of the ion-electron system (eV)
  ---------------------------------------------------
  alpha Z        PSCENC =         0.04144063
  Ewald energy   TEWEN  =       710.24076449
  -Hartree energ DENC   =     -1186.23560142
  -exchange      EXHF   =         0.00000000
  -V(xc)+E(xc)   XCENC  =        54.81297755
  PAW double counting   =      1298.95233935    -1301.80002009
  entropy T*S    EENTRO =         0.00000000
  eigenvalues    EBANDS =      -207.26896299
  atomic energy  EATOM  =       596.16534815
  Solvation  Ediel_sol  =         0.00000000
  ---------------------------------------------------
  free energy    TOTEN  =       -35.09171434 eV

  energy without entropy =      -35.09171434  energy(sigma->0) =      -35.09171434


--------------------------------------------------------------------------------------------------------




 average (electrostatic) potential at core
  the test charge radii are     0.5201  0.6991  0.7089
  (the norm of the test charge is              1.0000)
       1 -42.8822       2 -42.8714       3 -42.8427       4 -60.3159       5 -59.7310
       6 -74.6466
 
 
 
 E-fermi :  -6.2335     XC(G=0):  -0.0597     alpha+bet : -0.0137


 k-point     1 :       0.2500    0.2500    0.2500
  band No.  band energies     occupation 
      1     -24.1396      2.00000
      2     -18.5822      2.00000
      3     -13.3634      2.00000
      4     -11.6586      2.00000
      5     -11.6448      2.00000
      6      -8.7818      2.00000
      7      -8.2234      2.00000
      8      -7.2406      2.00000
      9      -2.2829      0.00000
     10      -0.9737      0.00000
     11      -0.4196      0.00000
     12       0.0259      0.00000

 k-point     2 :      -0.2500    0.2500    0.2500
  band No.  band energies     occupation 
      1     -24.1396      2.00000
      2     -18.5822      2.00000
      3     -13.3634      2.00000
      4     -11.6586      2.00000
      5     -11.6448      2.00000
      6      -8.7818      2.00000
      7      -8.2234      2.00000
      8      -7.2407      2.00000
      9      -2.2829      0.00000
     10      -0.9737      0.00000
     11      -0.4196      0.00000
     12       0.0284      0.00000

 k-point     3 :       0.2500   -0.2500    0.2500
  band No.  band energies     occupation 
      1     -24.1396      2.00000
      2     -18.5822      2.00000
      3     -13.3634      2.00000
      4     -11.6586      2.00000
      5     -11.6448      2.00000
      6      -8.7818      2.00000
      7      -8.2234      2.00000
      8      -7.2406      2.00000
      9      -2.2829      0.00000
     10      -0.9738      0.00000
     11      -0.4196      0.00000
     12       0.0287      0.00000

 k-point     4 :      -0.2500   -0.2500    0.2500
  band No.  band energies     occupation 
      1     -24.1396      2.00000
      2     -18.5822      2.00000
      3     -13.3634      2.00000
      4     -11.6586      2.00000
      5     -11.6448      2.00000
      6      -8.7818      2.00000
      7      -8.2234      2.00000
      8      -7.2406      2.00000
      9      -2.2829      0.00000
     10      -0.9738      0.00000
     11      -0.4196      0.00000
     12       0.0290      0.00000


--------------------------------------------------------------------------------------------------------


 soft charge-density along one line, spin component           1
         0         1         2         3         4         5         6         7         8         9
 total charge-density along one line
 
 pseudopotential strength for first ion, spin component:           1
 -2.360  -4.069  -0.002   0.000  -0.001
 -4.069  -6.932  -0.005   0.001  -0.002
 -0.002  -0.005  -0.330  -0.001   0.001
  0.000   0.001  -0.001  -0.334   0.000
 -0.001  -0.002   0.001   0.000  -0.334
 total augmentation occupancy for first ion, spin component:           1
  3.535  -0.636   0.422  -0.067   0.127
 -0.636   0.132  -0.078   0.013  -0.024
  0.422  -0.078   0.052  -0.007   0.013
 -0.067   0.013  -0.007   0.010  -0.003
  0.127  -0.024   0.013  -0.003   0.010


------------------------ aborting loop because EDIFF is reached ----------------------------------------


    CHARGE:  cpu time    6.1771: real time    7.0315
    FORLOC:  cpu time    2.4446: real time    2.7119
    FORNL :  cpu time   19.5630: real time   21.5831
    STRESS:  cpu time   59.7899: real time   70.5778
    FORCOR:  cpu time   23.9344: real time   27.9305
    FORHAR:  cpu time    7.8318: real time    8.0399
    MIXING:  cpu time    0.8619: real time    0.8646
    OFIELD:  cpu time    0.0000: real time    0.0000

  FORCE on cell =-STRESS in cart. coord.  units (eV):
  Direction    XX          YY          ZZ          XY          YZ          ZX
  --------------------------------------------------------------------------------------
  Alpha Z     0.04144     0.04144     0.04144
  Ewald     492.39740   103.43104   114.41231  -102.98340    67.05578   -89.74509
  Hartree   549.04037   316.76761   320.42817   -45.56601    25.03591   -35.64027
  E(xc)     -59.22221   -59.93467   -59.89541    -0.31779     0.23127    -0.31036
  Local   -1193.81427  -589.17752  -602.34086   141.86423   -85.19812   119.10112
  n-local   -23.46175   -24.92827   -25.11797     2.27106    -1.42480     2.73810
  augment     0.59966     0.91054     0.91171     0.06129    -0.02504     0.03867
  Kinetic   235.96857   251.75102   250.28406     4.05417    -5.86689     3.27246
  Fock        0.00000     0.00000     0.00000     0.00000     0.00000     0.00000
  -------------------------------------------------------------------------------------
  Total       1.54921    -1.13883    -1.27655    -0.61645    -0.19188    -0.54537
  in kB       0.09193    -0.06758    -0.07575    -0.03658    -0.01139    -0.03236
  external pressure =       -0.02 kB  Pullay stress =        0.00 kB


 VOLUME and BASIS-vectors are now :
 -----------------------------------------------------------------------------
  energy-cutoff  :      400.00
  volume of cell :    27000.00
      direct lattice vectors                 reciprocal lattice vectors
    30.000000000  0.000000000  0.000000000     0.033333333  0.000000000  0.000000000
     0.000000000 30.000000000  0.000000000     0.000000000  0.033333333  0.000000000
     0.000000000  0.000000000 30.000000000     0.000000000  0.000000000  0.033333333

  length of vectors
    30.000000000 30.000000000 30.000000000     0.033333333  0.033333333  0.033333333


 FORCES acting on ions
    electron-ion (+dipol)            ewald-force                    non-local-force                 convergence-correction
 -----------------------------------------------------------------------------------------------
   0.332E+02 0.579E+02 -.986E+01   -.350E+02 -.632E+02 0.108E+02   0.160E+01 0.541E+01 -.840E+00   0.463E-04 -.128E-04 0.187E-04
   0.280E+02 -.166E+02 0.591E+02   -.293E+02 0.180E+02 -.644E+02   0.110E+01 -.137E+01 0.543E+01   0.577E-04 0.206E-04 -.116E-04
   0.404E+02 -.386E+02 -.385E+02   -.433E+02 0.424E+02 0.424E+02   0.272E+01 -.367E+01 -.373E+01   0.504E-04 0.243E-04 0.276E-04
   0.122E+03 -.700E+01 0.710E+00   -.130E+03 0.690E+01 -.142E+01   0.744E+01 0.212E+00 0.815E+00   0.277E-03 0.747E-04 0.499E-04
   -.185E+03 0.969E+02 0.102E+03   0.202E+03 -.109E+03 -.116E+03   -.152E+02 0.126E+02 0.140E+02   0.444E-03 0.698E-04 0.254E-04
   -.344E+02 -.929E+02 -.114E+03   0.356E+02 0.105E+03 0.129E+03   -.160E+01 -.129E+02 -.156E+02   0.338E-03 0.184E-03 0.790E-04
 -----------------------------------------------------------------------------------------------
   0.396E+01 -.251E+00 -.314E-01   -.284E-13 0.142E-13 0.000E+00   -.396E+01 0.253E+00 0.279E-01   0.121E-02 0.361E-03 0.189E-03
 
 
 POSITION                                       TOTAL-FORCE (eV/Angst)
 -----------------------------------------------------------------------------------
     14.23251     14.04506     15.23933        -0.220775      0.126307      0.111544
     14.32805     15.35389     14.02769        -0.224908      0.100221      0.127666
     14.04243     15.76273     15.76077        -0.215834      0.120595      0.136121
     14.54120     15.08587     15.07168        -0.165901      0.107700      0.109496
     16.81797     14.56941     14.62169         1.198102      0.193415      0.327924
     15.97951     15.14066     15.24384        -0.370683     -0.648239     -0.812751
 -----------------------------------------------------------------------------------
    total drift:                                0.002452      0.002524     -0.003310


--------------------------------------------------------------------------------------------------------



  FREE ENERGIE OF THE ION-ELECTRON SYSTEM (eV)
  ---------------------------------------------------
  free  energy   TOTEN  =       -35.09171434 eV

  energy  without entropy=      -35.09171434  energy(sigma->0) =      -35.09171434
 
 d Force =-0.1278750E-02[-0.128E-02,-0.127E-02]  d Energy =-0.1278307E-02-0.443E-06
 d Force =-0.1211884E-01[-0.120E-01,-0.123E-01]  d Ewald  =-0.1211882E-01-0.221E-07


--------------------------------------------------------------------------------------------------------


    POTLOK:  cpu time   19.6170: real time   23.2166


--------------------------------------------------------------------------------------------------------


 NEB: the previous image is higher in energy: F
 NEB: the next image is higher in energy    : T
 NEB: only next energy greater

 NEB: Tangent
 ----------------------------------------------
      0.12477     -0.07015     -0.06137
      0.12046     -0.05152     -0.07192
      0.11341     -0.06832     -0.07447
      0.09438     -0.05556     -0.06017
     -0.68896     -0.12240     -0.18060
      0.23460      0.36927      0.44840

 NEB: forces: par spring, perp REAL, dneb     0.007391    0.061564    0.000000
 NEB: distance to prev, next image, angle between     0.195148    0.193670  161.957533
 NEB: projections on to tangent (spring, REAL)    -0.007391   -1.754884

 stress matrix after NEB project (eV)
      1.54921     -0.61645     -0.54537
     -0.61645     -1.13883     -0.19188
     -0.54537     -0.19188     -1.27655
  FORCES: max atom, RMS     0.049017    0.025314
  FORCE total and by dimension    0.062006    0.039276
  Stress total and by dimension    2.599050    1.549212
 OPT: skip step - force has converged


--------------------------------------------------------------------------------------------------------


  
 reached required accuracy - stopping structural energy minimisation
     LOOP+:  cpu time  671.1130: real time  742.0654
    4ORBIT:  cpu time    0.0000: real time    0.0000

 total amount of memory used by VASP on root node  3203887. kBytes
========================================================================

   base      :      30000. kBytes
   nonlr-proj:        691. kBytes
   fftplans  :     924480. kBytes
   grid      :    1872000. kBytes
   one-center:         18. kBytes
   wavefun   :     376698. kBytes
 
  
  
 General timing and accounting informations for this job:
 ========================================================
  
                  Total CPU time used (sec):    22476.141
                            User time (sec):    22188.594
                          System time (sec):      287.546
                         Elapsed time (sec):    22605.974
  
                   Maximum memory used (kb):     4760916.
                   Average memory used (kb):           0.
  
                          Minor page faults:      2497866
                          Major page faults:            6
                 Voluntary context switches:         3882
