 vasp.5.4.1 24Jun15 (build Jan 13 2020 12:58:22) complex                        
  
 POSCAR found type information on POSCAR  H  C  N 
 05/POSCAR found :  3 types and       6 ions
 scaLAPACK will be used

 ----------------------------------------------------------------------------- 
|                                                                             |
|  ADVICE TO THIS USER RUNNING 'VASP/VAMP'   (HEAR YOUR MASTER'S VOICE ...):  |
|                                                                             |
|      You have a (more or less) 'small supercell' and for smaller cells      |
|      it is recommended  to use the reciprocal-space projection scheme!      |
|      The real space optimization is not  efficient for small cells and it   |
|      is also less accurate ...                                              |
|      Therefore set LREAL=.FALSE. in the  INCAR file                         |
|                                                                             |
 ----------------------------------------------------------------------------- 

 LDA part: xc-table for Pade appr. of Perdew
 POSCAR found type information on POSCAR  H  C  N 
 00/POSCAR found :  3 types and       6 ions
 POSCAR found type information on POSCAR  H  C  N 
 16/POSCAR found :  3 types and       6 ions
 Jacobian:    40.4401846379183     
 POSCAR, INCAR and KPOINTS ok, starting setup
 WARNING: small aliasing (wrap around) errors must be expected
 FFT: planning ...
 WAVECAR not read
 entering main loop
       N       E                     dE             d eps       ncg     rms          rms(c)
DAV:   1     0.112081805312E+03    0.11208E+03   -0.21405E+03   160   0.366E+02
DAV:   2    -0.476386841616E+01   -0.11685E+03   -0.11441E+03   192   0.108E+02
DAV:   3    -0.351386511020E+02   -0.30375E+02   -0.30141E+02   128   0.871E+01
DAV:   4    -0.384383807056E+02   -0.32997E+01   -0.32609E+01   116   0.294E+01
DAV:   5    -0.385388421470E+02   -0.10046E+00   -0.99498E-01   112   0.513E+00    0.106E+01
DAV:   6    -0.358858828499E+02    0.26530E+01   -0.45774E+00   112   0.154E+01    0.571E+00
DAV:   7    -0.352316774383E+02    0.65421E+00   -0.15399E+00   116   0.906E+00    0.248E+00
DAV:   8    -0.351429862521E+02    0.88691E-01   -0.23397E-01   128   0.370E+00    0.992E-01
DAV:   9    -0.351245221599E+02    0.18464E-01   -0.34920E-02    96   0.153E+00    0.250E-01
DAV:  10    -0.351239735020E+02    0.54866E-03   -0.45858E-03   124   0.565E-01    0.131E-01
DAV:  11    -0.351256870096E+02   -0.17135E-02   -0.12567E-03    96   0.282E-01    0.755E-02
DAV:  12    -0.351301334495E+02   -0.44464E-02   -0.22248E-03   108   0.341E-01    0.428E-02
DAV:  13    -0.351349631983E+02   -0.48297E-02   -0.12797E-03   144   0.219E-01    0.278E-02
DAV:  14    -0.351391990046E+02   -0.42358E-02   -0.60756E-04   120   0.128E-01    0.174E-02
DAV:  15    -0.351408068216E+02   -0.16078E-02   -0.12508E-04   128   0.546E-02    0.111E-02
DAV:  16    -0.351433722658E+02   -0.25654E-02   -0.30932E-04   120   0.746E-02    0.543E-03
DAV:  17    -0.351438356383E+02   -0.46337E-03   -0.17768E-05    96   0.220E-02    0.370E-03
DAV:  18    -0.351444315893E+02   -0.59595E-03   -0.42505E-05    84   0.281E-02    0.179E-03
DAV:  19    -0.351445813830E+02   -0.14979E-03   -0.12104E-05    96   0.167E-02    0.127E-03
DAV:  20    -0.351446711668E+02   -0.89784E-04   -0.47141E-06    80   0.108E-02
   1 F= -.35144671E+02 E0= -.35144671E+02  d E =-.351447E+02
damped:  g(F)=  0.000E+00 g(S)=  0.000E+00 dE (1.order)= 0.000E+00
 bond charge predicted
       N       E                     dE             d eps       ncg     rms          rms(c)
DAV:   1    -0.351429092317E+02    0.16722E-02   -0.11392E-02   120   0.961E-01    0.348E-02
DAV:   2    -0.351429058975E+02    0.33343E-05   -0.13531E-04    96   0.106E-01    0.205E-02
DAV:   3    -0.351429170403E+02   -0.11143E-04   -0.34304E-05    88   0.590E-02    0.755E-03
DAV:   4    -0.351429262866E+02   -0.92463E-05   -0.96579E-06    84   0.304E-02    0.368E-03
DAV:   5    -0.351429324432E+02   -0.61566E-05   -0.14854E-06    84   0.127E-02    0.137E-03
DAV:   6    -0.351429374513E+02   -0.50080E-05   -0.48026E-07    76   0.672E-03
   2 F= -.35142937E+02 E0= -.35142937E+02  d E =0.173372E-02
damped:  g(F)=  0.000E+00 g(S)=  0.000E+00 dE (1.order)= 0.000E+00
 bond charge predicted
       N       E                     dE             d eps       ncg     rms          rms(c)
DAV:   1    -0.351393242640E+02    0.36082E-02   -0.36068E-02    96   0.172E+00    0.588E-02
DAV:   2    -0.351393047962E+02    0.19468E-04   -0.40562E-04   116   0.176E-01    0.318E-02
DAV:   3    -0.351393153680E+02   -0.10572E-04   -0.22128E-05    92   0.481E-02    0.118E-02
DAV:   4    -0.351393226541E+02   -0.72861E-05   -0.77316E-06    96   0.246E-02    0.430E-03
DAV:   5    -0.351393250436E+02   -0.23896E-05   -0.15251E-06    80   0.111E-02    0.114E-03
DAV:   6    -0.351393261753E+02   -0.11316E-05   -0.33165E-07    64   0.486E-03
   3 F= -.35139326E+02 E0= -.35139326E+02  d E =0.361128E-02
damped:  g(F)=  0.000E+00 g(S)=  0.000E+00 dE (1.order)= 0.000E+00
 bond charge predicted
       N       E                     dE             d eps       ncg     rms          rms(c)
DAV:   1    -0.351338053687E+02    0.55197E-02   -0.76128E-02    96   0.249E+00    0.877E-02
DAV:   2    -0.351337493064E+02    0.56062E-04   -0.84032E-04   112   0.255E-01    0.474E-02
DAV:   3    -0.351337705028E+02   -0.21196E-04   -0.48393E-05    80   0.737E-02    0.177E-02
DAV:   4    -0.351337849946E+02   -0.14492E-04   -0.19242E-05    80   0.394E-02    0.644E-03
DAV:   5    -0.351337877496E+02   -0.27550E-05   -0.36189E-06    64   0.176E-02    0.222E-03
DAV:   6    -0.351337892489E+02   -0.14992E-05   -0.90829E-07    80   0.776E-03
   4 F= -.35133789E+02 E0= -.35133789E+02  d E =0.553693E-02
damped:  g(F)=  0.000E+00 g(S)=  0.000E+00 dE (1.order)= 0.000E+00
 bond charge predicted
       N       E                     dE             d eps       ncg     rms          rms(c)
DAV:   1    -0.351265140692E+02    0.72737E-02   -0.11991E-01    96   0.312E+00    0.111E-01
DAV:   2    -0.351264077480E+02    0.10632E-03   -0.12367E-03    96   0.295E-01    0.607E-02
DAV:   3    -0.351264615677E+02   -0.53820E-04   -0.78626E-05    96   0.933E-02    0.172E-02
DAV:   4    -0.351264780195E+02   -0.16452E-04   -0.24410E-05    64   0.442E-02    0.704E-03
DAV:   5    -0.351264827584E+02   -0.47388E-05   -0.41873E-06    64   0.183E-02    0.202E-03
DAV:   6    -0.351264853787E+02   -0.26204E-05   -0.11519E-06    52   0.854E-03
   5 F= -.35126485E+02 E0= -.35126485E+02  d E =0.730387E-02
damped:  g(F)=  0.000E+00 g(S)=  0.000E+00 dE (1.order)= 0.000E+00
 bond charge predicted
       N       E                     dE             d eps       ncg     rms          rms(c)
DAV:   1    -0.351176596013E+02    0.88232E-02   -0.16676E-01    96   0.369E+00    0.136E-01
DAV:   2    -0.351174890445E+02    0.17056E-03   -0.16080E-03   112   0.337E-01    0.734E-02
DAV:   3    -0.351175760439E+02   -0.86999E-04   -0.84803E-05    80   0.950E-02    0.190E-02
DAV:   4    -0.351175973373E+02   -0.21293E-04   -0.28022E-05    64   0.449E-02    0.729E-03
DAV:   5    -0.351176047499E+02   -0.74125E-05   -0.49470E-06    64   0.186E-02    0.181E-03
DAV:   6    -0.351176079040E+02   -0.31541E-05   -0.13968E-06    48   0.852E-03
   6 F= -.35117608E+02 E0= -.35117608E+02  d E =0.887747E-02
damped:  g(F)=  0.000E+00 g(S)=  0.000E+00 dE (1.order)= 0.000E+00
 bond charge predicted
       N       E                     dE             d eps       ncg     rms          rms(c)
DAV:   1    -0.351084093511E+02    0.91954E-02   -0.18607E-01    96   0.393E+00    0.151E-01
DAV:   2    -0.351081754993E+02    0.23385E-03   -0.17406E-03   112   0.354E-01    0.823E-02
DAV:   3    -0.351082628170E+02   -0.87318E-04   -0.15496E-04    80   0.130E-01    0.223E-02
DAV:   4    -0.351082858851E+02   -0.23068E-04   -0.41321E-05    96   0.621E-02    0.926E-03
DAV:   5    -0.351082939249E+02   -0.80398E-05   -0.65665E-06    80   0.238E-02    0.359E-03
DAV:   6    -0.351082991606E+02   -0.52356E-05   -0.22862E-06    84   0.122E-02
   7 F= -.35108299E+02 E0= -.35108299E+02  d E =0.930874E-02
damped:  g(F)=  0.000E+00 g(S)=  0.000E+00 dE (1.order)= 0.000E+00
 bond charge predicted
       N       E                     dE             d eps       ncg     rms          rms(c)
DAV:   1    -0.351084240532E+02   -0.13013E-03   -0.72951E-04    96   0.266E-01    0.120E-02
DAV:   2    -0.351084250134E+02   -0.96016E-06   -0.16535E-05    80   0.407E-02    0.559E-03
DAV:   3    -0.351084266421E+02   -0.16287E-05   -0.31068E-06    48   0.182E-02    0.263E-03
DAV:   4    -0.351084294927E+02   -0.28506E-05   -0.18257E-06    80   0.128E-02    0.959E-04
DAV:   5    -0.351084307762E+02   -0.12834E-05   -0.34232E-07    48   0.573E-03    0.587E-04
DAV:   6    -0.351084324935E+02   -0.17173E-05   -0.13188E-07    64   0.302E-03
   8 F= -.35108432E+02 E0= -.35108432E+02  d E =-.133333E-03
damped:  g(F)=  0.000E+00 g(S)=  0.000E+00 dE (1.order)= 0.000E+00
 bond charge predicted
       N       E                     dE             d eps       ncg     rms          rms(c)
DAV:   1    -0.351085119423E+02   -0.81166E-04   -0.17779E-03   120   0.419E-01    0.183E-02
DAV:   2    -0.351085103905E+02    0.15518E-05   -0.37171E-05    80   0.612E-02    0.843E-03
DAV:   3    -0.351085103642E+02    0.26300E-07   -0.69494E-06    76   0.274E-02    0.371E-03
DAV:   4    -0.351085112847E+02   -0.92057E-06   -0.33933E-06    88   0.179E-02    0.129E-03
DAV:   5    -0.351085117318E+02   -0.44707E-06   -0.62199E-07    48   0.781E-03    0.760E-04
DAV:   6    -0.351085122768E+02   -0.54499E-06   -0.14544E-07    72   0.368E-03
   9 F= -.35108512E+02 E0= -.35108512E+02  d E =-.797833E-04
damped:  g(F)=  0.000E+00 g(S)=  0.000E+00 dE (1.order)= 0.000E+00
 bond charge predicted
       N       E                     dE             d eps       ncg     rms          rms(c)
DAV:   1    -0.351084124820E+02    0.99250E-04   -0.18224E-03    96   0.430E-01    0.140E-02
DAV:   2    -0.351084129793E+02   -0.49722E-06   -0.30785E-05    64   0.529E-02    0.698E-03
DAV:   3    -0.351084129807E+02   -0.14768E-08   -0.47682E-06    64   0.218E-02    0.333E-03
DAV:   4    -0.351084133423E+02   -0.36156E-06   -0.17005E-06    96   0.131E-02    0.955E-04
DAV:   5    -0.351084135631E+02   -0.22082E-06   -0.35322E-07    48   0.552E-03    0.436E-04
DAV:   6    -0.351084137906E+02   -0.22751E-06   -0.93560E-08    52   0.256E-03
  10 F= -.35108414E+02 E0= -.35108414E+02  d E =0.984862E-04
damped:  g(F)=  0.000E+00 g(S)=  0.000E+00 dE (1.order)= 0.000E+00
 bond charge predicted
       N       E                     dE             d eps       ncg     rms          rms(c)
DAV:   1    -0.351080974712E+02    0.31609E-03   -0.22578E-03    96   0.481E-01    0.106E-02
DAV:   2    -0.351080982633E+02   -0.79213E-06   -0.26773E-05    68   0.464E-02    0.657E-03
DAV:   3    -0.351080985737E+02   -0.31037E-06   -0.45091E-06    96   0.203E-02    0.281E-03
DAV:   4    -0.351080988631E+02   -0.28942E-06   -0.11892E-06    64   0.102E-02    0.993E-04
DAV:   5    -0.351080990159E+02   -0.15277E-06   -0.27951E-07    48   0.488E-03    0.400E-04
DAV:   6    -0.351080992015E+02   -0.18556E-06   -0.10995E-07    64   0.275E-03
  11 F= -.35108099E+02 E0= -.35108099E+02  d E =0.314589E-03
damped:  g(F)=  0.000E+00 g(S)=  0.000E+00 dE (1.order)= 0.000E+00
 bond charge predicted
       N       E                     dE             d eps       ncg     rms          rms(c)
DAV:   1    -0.351075320197E+02    0.56700E-03   -0.39843E-03    96   0.635E-01    0.171E-02
DAV:   2    -0.351075277758E+02    0.42439E-05   -0.48174E-05    64   0.654E-02    0.101E-02
DAV:   3    -0.351075271693E+02    0.60651E-06   -0.11766E-05    96   0.335E-02    0.511E-03
DAV:   4    -0.351075275576E+02   -0.38826E-06   -0.44029E-06    64   0.198E-02    0.207E-03
DAV:   5    -0.351075277540E+02   -0.19638E-06   -0.80434E-07    48   0.897E-03    0.994E-04
DAV:   6    -0.351075280283E+02   -0.27434E-06   -0.24243E-07    80   0.485E-03
  12 F= -.35107528E+02 E0= -.35107528E+02  d E =0.571173E-03
damped:  g(F)=  0.000E+00 g(S)=  0.000E+00 dE (1.order)= 0.000E+00
 bond charge predicted
       N       E                     dE             d eps       ncg     rms          rms(c)
DAV:   1    -0.351065893826E+02    0.93837E-03   -0.56034E-03    96   0.753E-01    0.199E-02
DAV:   2    -0.351065834380E+02    0.59446E-05   -0.67894E-05    64   0.776E-02    0.117E-02
DAV:   3    -0.351065825284E+02    0.90965E-06   -0.15013E-05    84   0.380E-02    0.620E-03
DAV:   4    -0.351065830797E+02   -0.55134E-06   -0.61598E-06    52   0.234E-02    0.243E-03
DAV:   5    -0.351065834468E+02   -0.36710E-06   -0.11375E-06    48   0.107E-02    0.124E-03
DAV:   6    -0.351065839514E+02   -0.50464E-06   -0.32438E-07    68   0.573E-03
  13 F= -.35106584E+02 E0= -.35106584E+02  d E =0.944077E-03
damped:  g(F)=  0.000E+00 g(S)=  0.000E+00 dE (1.order)= 0.000E+00
 bond charge predicted
       N       E                     dE             d eps       ncg     rms          rms(c)
DAV:   1    -0.351050819950E+02    0.15015E-02   -0.76111E-03    96   0.880E-01    0.210E-02
DAV:   2    -0.351050810604E+02    0.93457E-06   -0.84611E-05    64   0.828E-02    0.122E-02
DAV:   3    -0.351050810659E+02   -0.54397E-08   -0.13051E-05    48   0.349E-02    0.593E-03
DAV:   4    -0.351050818127E+02   -0.74684E-06   -0.40220E-06    48   0.189E-02    0.215E-03
DAV:   5    -0.351050823661E+02   -0.55336E-06   -0.86222E-07    48   0.887E-03    0.956E-04
DAV:   6    -0.351050830825E+02   -0.71640E-06   -0.27239E-07    64   0.486E-03
  14 F= -.35105083E+02 E0= -.35105083E+02  d E =0.150087E-02
damped:  g(F)=  0.000E+00 g(S)=  0.000E+00 dE (1.order)= 0.000E+00
 bond charge predicted
       N       E                     dE             d eps       ncg     rms          rms(c)
DAV:   1    -0.351028518606E+02    0.22305E-02   -0.10976E-02    96   0.107E+00    0.266E-02
DAV:   2    -0.351028575296E+02   -0.56689E-05   -0.15046E-04    96   0.103E-01    0.160E-02
DAV:   3    -0.351028566924E+02    0.83713E-06   -0.44331E-06    64   0.213E-02    0.663E-03
DAV:   4    -0.351028576601E+02   -0.96763E-06   -0.22168E-06    64   0.139E-02    0.134E-03
DAV:   5    -0.351028579867E+02   -0.32667E-06   -0.48200E-07    48   0.619E-03    0.851E-04
DAV:   6    -0.351028584702E+02   -0.48349E-06   -0.12930E-07    48   0.302E-03
  15 F= -.35102858E+02 E0= -.35102858E+02  d E =0.222461E-02
damped:  g(F)=  0.000E+00 g(S)=  0.000E+00 dE (1.order)= 0.000E+00
 bond charge predicted
       N       E                     dE             d eps       ncg     rms          rms(c)
DAV:   1    -0.350996539895E+02    0.32040E-02   -0.13682E-02    96   0.119E+00    0.315E-02
DAV:   2    -0.350996559409E+02   -0.19514E-05   -0.16786E-04    96   0.109E-01    0.186E-02
DAV:   3    -0.350996558054E+02    0.13557E-06   -0.57489E-06    64   0.239E-02    0.648E-03
DAV:   4    -0.350996570206E+02   -0.12152E-05   -0.23053E-06    48   0.137E-02    0.162E-03
DAV:   5    -0.350996573919E+02   -0.37136E-06   -0.49486E-07    48   0.630E-03    0.966E-04
DAV:   6    -0.350996579657E+02   -0.57375E-06   -0.14241E-07    48   0.306E-03
  16 F= -.35099658E+02 E0= -.35099658E+02  d E =0.320050E-02
damped:  g(F)=  0.000E+00 g(S)=  0.000E+00 dE (1.order)= 0.000E+00
 bond charge predicted
       N       E                     dE             d eps       ncg     rms          rms(c)
DAV:   1    -0.350995766644E+02    0.80728E-04   -0.50038E-05    48   0.701E-02    0.263E-03
DAV:   2    -0.350995769911E+02   -0.32671E-06   -0.26531E-06    48   0.168E-02    0.143E-03
DAV:   3    -0.350995772422E+02   -0.25112E-06   -0.31008E-07    48   0.533E-03    0.957E-04
DAV:   4    -0.350995776767E+02   -0.43452E-06   -0.16464E-07    80   0.414E-03    0.317E-04
DAV:   5    -0.350995779255E+02   -0.24876E-06   -0.72137E-08    48   0.206E-03    0.238E-04
DAV:   6    -0.350995781006E+02   -0.17504E-06   -0.33626E-08    48   0.877E-04
  17 F= -.35099578E+02 E0= -.35099578E+02  d E =0.798651E-04
damped:  g(F)=  0.000E+00 g(S)=  0.000E+00 dE (1.order)= 0.000E+00
 bond charge predicted
       N       E                     dE             d eps       ncg     rms          rms(c)
DAV:   1    -0.350994079428E+02    0.16998E-03   -0.16436E-04    80   0.127E-01    0.459E-03
DAV:   2    -0.350994082848E+02   -0.34197E-06   -0.86991E-06    64   0.305E-02    0.254E-03
DAV:   3    -0.350994083363E+02   -0.51513E-07   -0.96474E-07    48   0.967E-03    0.174E-03
DAV:   4    -0.350994084367E+02   -0.10036E-06   -0.43351E-07    48   0.717E-03    0.607E-04
DAV:   5    -0.350994085286E+02   -0.91912E-07   -0.16303E-07    48   0.359E-03    0.437E-04
DAV:   6    -0.350994085915E+02   -0.62939E-07   -0.48568E-08    48   0.150E-03
  18 F= -.35099409E+02 E0= -.35099409E+02  d E =0.169509E-03
damped:  g(F)=  0.000E+00 g(S)=  0.000E+00 dE (1.order)= 0.000E+00
 bond charge predicted
       N       E                     dE             d eps       ncg     rms          rms(c)
DAV:   1    -0.350991417014E+02    0.26683E-03   -0.27397E-04   112   0.160E-01    0.618E-03
DAV:   2    -0.350991411216E+02    0.57976E-06   -0.54541E-06    64   0.228E-02    0.318E-03
DAV:   3    -0.350991410368E+02    0.84788E-07   -0.10149E-06    48   0.100E-02    0.187E-03
DAV:   4    -0.350991410724E+02   -0.35552E-07   -0.56322E-07    48   0.720E-03    0.757E-04
DAV:   5    -0.350991411016E+02   -0.29215E-07   -0.12845E-07    48   0.327E-03    0.439E-04
DAV:   6    -0.350991411400E+02   -0.38405E-07   -0.50173E-08    48   0.140E-03
  19 F= -.35099141E+02 E0= -.35099141E+02  d E =0.267452E-03
damped:  g(F)=  0.000E+00 g(S)=  0.000E+00 dE (1.order)= 0.000E+00
 bond charge predicted
       N       E                     dE             d eps       ncg     rms          rms(c)
DAV:   1    -0.350987769506E+02    0.36415E-03   -0.30257E-04    96   0.168E-01    0.598E-03
DAV:   2    -0.350987765086E+02    0.44206E-06   -0.51114E-06    64   0.215E-02    0.302E-03
DAV:   3    -0.350987764784E+02    0.30113E-07   -0.85968E-07    48   0.898E-03    0.176E-03
DAV:   4    -0.350987765320E+02   -0.53562E-07   -0.37732E-07    48   0.588E-03    0.726E-04
DAV:   5    -0.350987765623E+02   -0.30250E-07   -0.10016E-07    48   0.261E-03    0.337E-04
DAV:   6    -0.350987765982E+02   -0.35894E-07   -0.44768E-08    48   0.111E-03
  20 F= -.35098777E+02 E0= -.35098777E+02  d E =0.364542E-03
damped:  g(F)=  0.000E+00 g(S)=  0.000E+00 dE (1.order)= 0.000E+00
 bond charge predicted
       N       E                     dE             d eps       ncg     rms          rms(c)
DAV:   1    -0.350983297088E+02    0.44685E-03   -0.30048E-04    96   0.164E-01    0.546E-03
DAV:   2    -0.350983294718E+02    0.23701E-06   -0.36070E-06    48   0.178E-02    0.278E-03
DAV:   3    -0.350983295697E+02   -0.97917E-07   -0.59300E-07    48   0.715E-03    0.128E-03
DAV:   4    -0.350983296655E+02   -0.95741E-07   -0.18408E-07    48   0.374E-03    0.490E-04
DAV:   5    -0.350983297088E+02   -0.43291E-07   -0.72111E-08    48   0.177E-03    0.149E-04
DAV:   6    -0.350983297374E+02   -0.28635E-07   -0.44492E-08    48   0.856E-04
  21 F= -.35098330E+02 E0= -.35098330E+02  d E =0.446861E-03
damped:  g(F)=  0.000E+00 g(S)=  0.000E+00 dE (1.order)= 0.000E+00
 bond charge predicted
       N       E                     dE             d eps       ncg     rms          rms(c)
DAV:   1    -0.350978144202E+02    0.51529E-03   -0.34588E-04    96   0.171E-01    0.577E-03
DAV:   2    -0.350978141841E+02    0.23611E-06   -0.31762E-06    56   0.163E-02    0.317E-03
DAV:   3    -0.350978144269E+02   -0.24272E-06   -0.71694E-07    64   0.773E-03    0.861E-04
DAV:   4    -0.350978144849E+02   -0.58094E-07   -0.18718E-07    48   0.363E-03    0.410E-04
DAV:   5    -0.350978145207E+02   -0.35719E-07   -0.72086E-08    48   0.171E-03    0.142E-04
DAV:   6    -0.350978145450E+02   -0.24299E-07   -0.49386E-08    48   0.939E-04
  22 F= -.35097815E+02 E0= -.35097815E+02  d E =0.515192E-03
damped:  g(F)=  0.000E+00 g(S)=  0.000E+00 dE (1.order)= 0.000E+00
 bond charge predicted
       N       E                     dE             d eps       ncg     rms          rms(c)
DAV:   1    -0.350971680874E+02    0.64643E-03   -0.56847E-04    96   0.214E-01    0.772E-03
DAV:   2    -0.350971675059E+02    0.58149E-06   -0.55395E-06    64   0.209E-02    0.451E-03
DAV:   3    -0.350971678213E+02   -0.31544E-06   -0.19532E-06    80   0.134E-02    0.135E-03
DAV:   4    -0.350971678636E+02   -0.42289E-07   -0.41022E-07    48   0.606E-03    0.853E-04
DAV:   5    -0.350971679037E+02   -0.40071E-07   -0.10290E-07    48   0.272E-03    0.300E-04
DAV:   6    -0.350971679357E+02   -0.32039E-07   -0.59708E-08    48   0.136E-03
  23 F= -.35097168E+02 E0= -.35097168E+02  d E =0.646609E-03
damped:  g(F)=  0.000E+00 g(S)=  0.000E+00 dE (1.order)= 0.000E+00
 bond charge predicted
       N       E                     dE             d eps       ncg     rms          rms(c)
DAV:   1    -0.350963567315E+02    0.81117E-03   -0.89960E-04    96   0.268E-01    0.985E-03
DAV:   2    -0.350963556719E+02    0.10595E-05   -0.91048E-06    64   0.267E-02    0.577E-03
DAV:   3    -0.350963560710E+02   -0.39912E-06   -0.31528E-06    80   0.171E-02    0.182E-03
DAV:   4    -0.350963561558E+02   -0.84746E-07   -0.65174E-07    48   0.776E-03    0.114E-03
DAV:   5    -0.350963562182E+02   -0.62369E-07   -0.13773E-07    48   0.349E-03    0.389E-04
DAV:   6    -0.350963562749E+02   -0.56778E-07   -0.70254E-08    48   0.171E-03
  24 F= -.35096356E+02 E0= -.35096356E+02  d E =0.811661E-03
damped:  g(F)=  0.000E+00 g(S)=  0.000E+00 dE (1.order)= 0.000E+00
 bond charge predicted
       N       E                     dE             d eps       ncg     rms          rms(c)
DAV:   1    -0.350953710558E+02    0.98516E-03   -0.12508E-03    96   0.320E-01    0.112E-02
DAV:   2    -0.350953698390E+02    0.12168E-05   -0.11287E-05    64   0.302E-02    0.629E-03
DAV:   3    -0.350953705328E+02   -0.69380E-06   -0.29670E-06    48   0.164E-02    0.167E-03
DAV:   4    -0.350953706452E+02   -0.11235E-06   -0.65212E-07    48   0.762E-03    0.923E-04
DAV:   5    -0.350953707367E+02   -0.91466E-07   -0.15480E-07    48   0.335E-03    0.319E-04
DAV:   6    -0.350953708103E+02   -0.73680E-07   -0.75759E-08    48   0.183E-03
  25 F= -.35095371E+02 E0= -.35095371E+02  d E =0.985465E-03
damped:  g(F)=  0.000E+00 g(S)=  0.000E+00 dE (1.order)= 0.000E+00
 bond charge predicted
       N       E                     dE             d eps       ncg     rms          rms(c)
DAV:   1    -0.350942398004E+02    0.11309E-02   -0.17589E-03    96   0.388E-01    0.133E-02
DAV:   2    -0.350942382447E+02    0.15556E-05   -0.16513E-05    64   0.379E-02    0.700E-03
DAV:   3    -0.350942390236E+02   -0.77893E-06   -0.28173E-06    48   0.157E-02    0.225E-03
DAV:   4    -0.350942393227E+02   -0.29909E-06   -0.69365E-07    52   0.731E-03    0.928E-04
DAV:   5    -0.350942394227E+02   -0.99961E-07   -0.21043E-07    64   0.361E-03    0.242E-04
DAV:   6    -0.350942394818E+02   -0.59094E-07   -0.92686E-08    48   0.194E-03
  26 F= -.35094239E+02 E0= -.35094239E+02  d E =0.113133E-02
damped:  g(F)=  0.000E+00 g(S)=  0.000E+00 dE (1.order)= 0.000E+00
 bond charge predicted
       N       E                     dE             d eps       ncg     rms          rms(c)
DAV:   1    -0.350929938915E+02    0.12455E-02   -0.25203E-03    96   0.469E-01    0.163E-02
DAV:   2    -0.350929913437E+02    0.25478E-05   -0.26355E-05    64   0.486E-02    0.857E-03
DAV:   3    -0.350929919945E+02   -0.65079E-06   -0.44440E-06    64   0.203E-02    0.336E-03
DAV:   4    -0.350929924748E+02   -0.48028E-06   -0.12031E-06    48   0.101E-02    0.135E-03
DAV:   5    -0.350929925781E+02   -0.10336E-06   -0.30664E-07    64   0.461E-03    0.378E-04
DAV:   6    -0.350929926485E+02   -0.70373E-07   -0.11282E-07    48   0.226E-03
  27 F= -.35092993E+02 E0= -.35092993E+02  d E =0.124683E-02
damped:  g(F)=  0.000E+00 g(S)=  0.000E+00 dE (1.order)= 0.000E+00
 bond charge predicted
       N       E                     dE             d eps       ncg     rms          rms(c)
DAV:   1    -0.350917151619E+02    0.12774E-02   -0.29522E-03    96   0.503E-01    0.171E-02
DAV:   2    -0.350917124206E+02    0.27412E-05   -0.26279E-05    64   0.477E-02    0.925E-03
DAV:   3    -0.350917136628E+02   -0.12421E-05   -0.45617E-06    56   0.201E-02    0.268E-03
DAV:   4    -0.350917140665E+02   -0.40371E-06   -0.11302E-06    48   0.906E-03    0.117E-03
DAV:   5    -0.350917142328E+02   -0.16632E-06   -0.31427E-07    48   0.430E-03    0.311E-04
DAV:   6    -0.350917143411E+02   -0.10827E-06   -0.12750E-07    48   0.228E-03
  28 F= -.35091714E+02 E0= -.35091714E+02  d E =0.127831E-02
damped:  g(F)=  0.000E+00 g(S)=  0.000E+00 dE (1.order)= 0.000E+00
 reached required accuracy - stopping structural energy minimisation
