unknown system                          
           1
    30.000000    0.000000    0.000000
     0.000000   30.000000    0.000000
     0.000000    0.000000   30.000000
   H    C    N 
   3   2   1
Direct configuration=     1
   0.47406408  0.46810972  0.50786228
   0.47718742  0.51155082  0.46741439
   0.46796142  0.52532893  0.52512169
   0.48461891  0.50273256  0.50220016
   0.56152889  0.48638444  0.48822353
   0.53248583  0.50468422  0.50801060
Direct configuration=     2
   0.47412828  0.46810986  0.50787081
   0.47726152  0.51157450  0.46742805
   0.46796977  0.52534252  0.52514746
   0.48461795  0.50274123  0.50222034
   0.56143724  0.48633275  0.48815828
   0.53245328  0.50466909  0.50800738
Direct configuration=     3
   0.47421803  0.46810762  0.50788836
   0.47736741  0.51161292  0.46745042
   0.46797390  0.52536003  0.52518339
   0.48461328  0.50276322  0.50225203
   0.56131346  0.48624497  0.48804964
   0.53241416  0.50465007  0.50800812
Direct configuration=     4
   0.47432270  0.46810639  0.50791838
   0.47749384  0.51166885  0.46748247
   0.46796352  0.52538195  0.52522952
   0.48460127  0.50279675  0.50229376
   0.56114321  0.48613491  0.48791393
   0.53241800  0.50460905  0.50799371
Direct configuration=     5
   0.47442978  0.46811227  0.50796180
   0.47762624  0.51174365  0.46752330
   0.46793483  0.52540929  0.52528640
   0.48459516  0.50283289  0.50234347
   0.56096599  0.48597839  0.48772608
   0.53244212  0.50457142  0.50799085
Direct configuration=     6
   0.47450955  0.46812774  0.50801037
   0.47773039  0.51182687  0.46756697
   0.46789794  0.52543545  0.52534504
   0.48460840  0.50286506  0.50239619
   0.56081275  0.48578990  0.48750571
   0.53249012  0.50454947  0.50800809
Direct configuration=     7
   0.47450355  0.46812918  0.50801023
   0.47772400  0.51182678  0.46756768
   0.46789903  0.52543421  0.52534417
   0.48461089  0.50286518  0.50239615
   0.56081046  0.48579284  0.48750967
   0.53250127  0.50454626  0.50800451
Direct configuration=     8
   0.47449167  0.46813194  0.50800975
   0.47771129  0.51182644  0.46756898
   0.46790192  0.52543162  0.52534234
   0.48461648  0.50286518  0.50239586
   0.56080766  0.48579617  0.48751467
   0.53252028  0.50454297  0.50800089
Direct configuration=     9
   0.47447444  0.46813584  0.50800865
   0.47769280  0.51182561  0.46757067
   0.46790754  0.52542769  0.52533958
   0.48462598  0.50286461  0.50239496
   0.56080746  0.48579604  0.48751635
   0.53254131  0.50454429  0.50800241
Direct configuration=    10
   0.47445317  0.46814063  0.50800675
   0.47766981  0.51182411  0.46757260
   0.46791645  0.52542267  0.52533609
   0.48463917  0.50286313  0.50239317
   0.56081117  0.48579030  0.48751213
   0.53256006  0.50455291  0.50801203
Direct configuration=    11
   0.47442865  0.46814624  0.50800395
   0.47764313  0.51182184  0.46757477
   0.46792914  0.52541685  0.52533219
   0.48465518  0.50286055  0.50239038
   0.56081749  0.48577958  0.48750260
   0.53257671  0.50456820  0.50802905
Direct configuration=    12
   0.47440124  0.46815276  0.50800007
   0.47761301  0.51181860  0.46757733
   0.46794651  0.52541046  0.52532818
   0.48467272  0.50285674  0.50238651
   0.56082148  0.48576674  0.48749077
   0.53259593  0.50458732  0.50805029
Direct configuration=    13
   0.47436905  0.46816082  0.50799450
   0.47757720  0.51181379  0.46758061
   0.46797153  0.52540316  0.52532404
   0.48469201  0.50285134  0.50238114
   0.56081604  0.48575457  0.48747980
   0.53262596  0.50460801  0.50807329
Direct configuration=    14
   0.47433400  0.46817017  0.50798693
   0.47753749  0.51180699  0.46758466
   0.46800618  0.52539532  0.52532024
   0.48471205  0.50284462  0.50237451
   0.56079533  0.48574450  0.48747107
   0.53266803  0.50462879  0.50809622
Direct configuration=    15
   0.47430138  0.46817979  0.50797727
   0.47749921  0.51179791  0.46758918
   0.46805190  0.52538804  0.52531777
   0.48473253  0.50283736  0.50236755
   0.56076036  0.48573112  0.48745803
   0.53270943  0.50465443  0.50812411
Direct configuration=    16
   0.47430256  0.46817957  0.50797714
   0.47750034  0.51179772  0.46758912
   0.46805278  0.52538833  0.52531809
   0.48473247  0.50283755  0.50236774
   0.56075973  0.48572975  0.48745638
   0.53270697  0.50465570  0.50812544
Direct configuration=    17
   0.47430493  0.46817912  0.50797690
   0.47750263  0.51179737  0.46758900
   0.46805450  0.52538891  0.52531872
   0.48473229  0.50283795  0.50236813
   0.56075811  0.48572724  0.48745336
   0.53270247  0.50465794  0.50812779
Direct configuration=    18
   0.47430855  0.46817848  0.50797657
   0.47750610  0.51179685  0.46758885
   0.46805699  0.52538981  0.52531969
   0.48473187  0.50283857  0.50236873
   0.56075481  0.48572404  0.48744947
   0.53269674  0.50466066  0.50813060
Direct configuration=    19
   0.47431340  0.46817766  0.50797617
   0.47751075  0.51179621  0.46758868
   0.46806012  0.52539105  0.52532103
   0.48473105  0.50283940  0.50236952
   0.56074905  0.48572074  0.48744538
   0.53269087  0.50466319  0.50813312
Direct configuration=    20
   0.47431934  0.46817673  0.50797576
   0.47751644  0.51179548  0.46758853
   0.46806367  0.52539261  0.52532270
   0.48472975  0.50284043  0.50237048
   0.56074043  0.48571780  0.48744165
   0.53268581  0.50466501  0.50813477
Direct configuration=    21
   0.47432627  0.46817573  0.50797536
   0.47752305  0.51179473  0.46758841
   0.46806741  0.52539451  0.52532472
   0.48472797  0.50284162  0.50237159
   0.56072897  0.48571533  0.48743851
   0.53268199  0.50466593  0.50813529
Direct configuration=    22
   0.47433508  0.46817460  0.50797500
   0.47753139  0.51179393  0.46758835
   0.46807154  0.52539701  0.52532737
   0.48472550  0.50284314  0.50237300
   0.56071338  0.48571277  0.48743546
   0.53267900  0.50466615  0.50813470
Direct configuration=    23
   0.47434630  0.46817336  0.50797475
   0.47754190  0.51179318  0.46758837
   0.46807584  0.52540034  0.52533093
   0.48472235  0.50284509  0.50237482
   0.56069375  0.48570902  0.48743163
   0.53267603  0.50466636  0.50813337
Direct configuration=    24
   0.47436031  0.46817204  0.50797470
   0.47755477  0.51179265  0.46758849
   0.46807985  0.52540468  0.52533564
   0.48471875  0.50284767  0.50237722
   0.56067142  0.48570205  0.48742544
   0.53267130  0.50466805  0.50813235
Direct configuration=    25
   0.47437708  0.46817070  0.50797501
   0.47756972  0.51179261  0.46758871
   0.46808285  0.52541009  0.52534170
   0.48471497  0.50285107  0.50238033
   0.56064820  0.48568996  0.48741569
   0.53266371  0.50467258  0.50813234
Direct configuration=    26
   0.47439640  0.46816950  0.50797590
   0.47758603  0.51179359  0.46758909
   0.46808369  0.52541670  0.52534944
   0.48471102  0.50285577  0.50238436
   0.56062455  0.48567138  0.48740270
   0.53265477  0.50468016  0.50813221
Direct configuration=    27
   0.47441711  0.46816873  0.50797771
   0.47760178  0.51179636  0.46758974
   0.46808090  0.52542432  0.52535903
   0.48470663  0.50286241  0.50238946
   0.56059913  0.48564707  0.48738961
   0.53265045  0.50468871  0.50812802
Direct configuration=    28
   0.47441711  0.46816873  0.50797771
   0.47760178  0.51179636  0.46758974
   0.46808090  0.52542432  0.52535903
   0.48470663  0.50286241  0.50238946
   0.56059913  0.48564707  0.48738961
   0.53265045  0.50468871  0.50812802
