   6   6   0   0
  0.4500000E+04  0.3000000E-08  0.3000000E-08  0.3000000E-08  0.0000000E+00
  1.000000000000000E-004
  CAR 
 unknown system                          
      2.02413879    -25.88921719  301     -6.16341551      1.00000000
    -25.889  0.0000E+00  0.0000E+00
    -25.796  0.0000E+00  0.0000E+00
    -25.703  0.0000E+00  0.0000E+00
    -25.610  0.0000E+00  0.0000E+00
    -25.517  0.0000E+00  0.0000E+00
    -25.424  0.0000E+00  0.0000E+00
    -25.331  0.0000E+00  0.0000E+00
    -25.238  0.0000E+00  0.0000E+00
    -25.145  0.0000E+00  0.0000E+00
    -25.052  0.7955E-17  0.7401E-18
    -24.959  0.1404E-14  0.1314E-15
    -24.866  0.1785E-12  0.1674E-13
    -24.773  0.1481E-10  0.1394E-11
    -24.680  0.8026E-09  0.7607E-10
    -24.587  0.2846E-07  0.2724E-08
    -24.494  0.6608E-06  0.6421E-07
    -24.401  0.1006E-04  0.9998E-06
    -24.307  0.1004E-03  0.1034E-04
    -24.214  0.6583E-03  0.7159E-04
    -24.121  0.2837E-02  0.3356E-03
    -24.028  0.8047E-02  0.1084E-02
    -23.935  0.1502E-01  0.2482E-02
    -23.842  0.1847E-01  0.4201E-02
    -23.749  0.1496E-01  0.5593E-02
    -23.656  0.7981E-02  0.6336E-02
    -23.563  0.2803E-02  0.6596E-02
    -23.470  0.6475E-03  0.6657E-02
    -23.377  0.9835E-04  0.6666E-02
    -23.284  0.9810E-05  0.6667E-02
    -23.191  0.6420E-06  0.6667E-02
    -23.098  0.2754E-07  0.6667E-02
    -23.005  0.7733E-09  0.6667E-02
    -22.912  0.1421E-10  0.6667E-02
    -22.819  0.1705E-12  0.6667E-02
    -22.726  0.1336E-14  0.6667E-02
    -22.633  0.7955E-17  0.6667E-02
    -22.540  0.0000E+00  0.6667E-02
    -22.447  0.0000E+00  0.6667E-02
    -22.354  0.0000E+00  0.6667E-02
    -22.260  0.0000E+00  0.6667E-02
    -22.167  0.0000E+00  0.6667E-02
    -22.074  0.0000E+00  0.6667E-02
    -21.981  0.0000E+00  0.6667E-02
    -21.888  0.0000E+00  0.6667E-02
    -21.795  0.0000E+00  0.6667E-02
    -21.702  0.0000E+00  0.6667E-02
    -21.609  0.0000E+00  0.6667E-02
    -21.516  0.0000E+00  0.6667E-02
    -21.423  0.0000E+00  0.6667E-02
    -21.330  0.0000E+00  0.6667E-02
    -21.237  0.0000E+00  0.6667E-02
    -21.144  0.0000E+00  0.6667E-02
    -21.051  0.0000E+00  0.6667E-02
    -20.958  0.0000E+00  0.6667E-02
    -20.865  0.0000E+00  0.6667E-02
    -20.772  0.0000E+00  0.6667E-02
    -20.679  0.0000E+00  0.6667E-02
    -20.586  0.0000E+00  0.6667E-02
    -20.493  0.0000E+00  0.6667E-02
    -20.400  0.2466E-15  0.6667E-02
    -20.307  0.3619E-13  0.6667E-02
    -20.214  0.3469E-11  0.6667E-02
    -20.120  0.2172E-09  0.6667E-02
    -20.027  0.8894E-08  0.6667E-02
    -19.934  0.2384E-06  0.6667E-02
    -19.841  0.4186E-05  0.6667E-02
    -19.748  0.4821E-04  0.6672E-02
    -19.655  0.3646E-03  0.6705E-02
    -19.562  0.1812E-02  0.6874E-02
    -19.469  0.5921E-02  0.7425E-02
    -19.376  0.1274E-01  0.8610E-02
    -19.283  0.1805E-01  0.1029E-01
    -19.190  0.1684E-01  0.1186E-01
    -19.097  0.1035E-01  0.1282E-01
    -19.004  0.4189E-02  0.1321E-01
    -18.911  0.1116E-02  0.1331E-01
    -18.818  0.1954E-03  0.1333E-01
    -18.725  0.2248E-04  0.1333E-01
    -18.632  0.1698E-05  0.1333E-01
    -18.539  0.8404E-07  0.1333E-01
    -18.446  0.2725E-08  0.1333E-01
    -18.353  0.5782E-10  0.1333E-01
    -18.260  0.8020E-12  0.1333E-01
    -18.167  0.7259E-14  0.1333E-01
    -18.073  0.4773E-16  0.1333E-01
    -17.980  0.0000E+00  0.1333E-01
    -17.887  0.0000E+00  0.1333E-01
    -17.794  0.0000E+00  0.1333E-01
    -17.701  0.0000E+00  0.1333E-01
    -17.608  0.0000E+00  0.1333E-01
    -17.515  0.0000E+00  0.1333E-01
    -17.422  0.0000E+00  0.1333E-01
    -17.329  0.0000E+00  0.1333E-01
    -17.236  0.0000E+00  0.1333E-01
    -17.143  0.0000E+00  0.1333E-01
    -17.050  0.0000E+00  0.1333E-01
    -16.957  0.0000E+00  0.1333E-01
    -16.864  0.0000E+00  0.1333E-01
    -16.771  0.0000E+00  0.1333E-01
    -16.678  0.0000E+00  0.1333E-01
    -16.585  0.0000E+00  0.1333E-01
    -16.492  0.0000E+00  0.1333E-01
    -16.399  0.0000E+00  0.1333E-01
    -16.306  0.0000E+00  0.1333E-01
    -16.213  0.0000E+00  0.1333E-01
    -16.120  0.0000E+00  0.1333E-01
    -16.026  0.0000E+00  0.1333E-01
    -15.933  0.0000E+00  0.1333E-01
    -15.840  0.0000E+00  0.1333E-01
    -15.747  0.0000E+00  0.1333E-01
    -15.654  0.0000E+00  0.1333E-01
    -15.561  0.0000E+00  0.1333E-01
    -15.468  0.0000E+00  0.1333E-01
    -15.375  0.0000E+00  0.1333E-01
    -15.282  0.0000E+00  0.1333E-01
    -15.189  0.0000E+00  0.1333E-01
    -15.096  0.0000E+00  0.1333E-01
    -15.003  0.8353E-16  0.1333E-01
    -14.910  0.1334E-13  0.1333E-01
    -14.817  0.1397E-11  0.1333E-01
    -14.724  0.9550E-10  0.1333E-01
    -14.631  0.4270E-08  0.1333E-01
    -14.538  0.1249E-06  0.1333E-01
    -14.445  0.2394E-05  0.1333E-01
    -14.352  0.3009E-04  0.1334E-01
    -14.259  0.2482E-03  0.1336E-01
    -14.166  0.1345E-02  0.1348E-01
    -14.073  0.4795E-02  0.1393E-01
    -13.980  0.1125E-01  0.1498E-01
    -13.886  0.1738E-01  0.1659E-01
    -13.793  0.1768E-01  0.1824E-01
    -13.700  0.1185E-01  0.1934E-01
    -13.607  0.5228E-02  0.1983E-01
    -13.514  0.1519E-02  0.1997E-01
    -13.421  0.2901E-03  0.2000E-01
    -13.328  0.3641E-04  0.2000E-01
    -13.235  0.3000E-05  0.2000E-01
    -13.142  0.1621E-06  0.2000E-01
    -13.049  0.5739E-08  0.2000E-01
    -12.956  0.1329E-09  0.2000E-01
    -12.863  0.2017E-11  0.2000E-01
    -12.770  0.4504E-12  0.2000E-01
    -12.677  0.3510E-10  0.2000E-01
    -12.584  0.1870E-08  0.2000E-01
    -12.491  0.6517E-07  0.2000E-01
    -12.398  0.1487E-05  0.2000E-01
    -12.305  0.2225E-04  0.2000E-01
    -12.212  0.2184E-03  0.2002E-01
    -12.119  0.1408E-02  0.2015E-01
    -12.026  0.5966E-02  0.2071E-01
    -11.933  0.1664E-01  0.2226E-01
    -11.839  0.3054E-01  0.2510E-01
    -11.746  0.3693E-01  0.2853E-01
    -11.653  0.2941E-01  0.3127E-01
    -11.560  0.1543E-01  0.3271E-01
    -11.467  0.5328E-02  0.3320E-01
    -11.374  0.1211E-02  0.3331E-01
    -11.281  0.1808E-03  0.3333E-01
    -11.188  0.1774E-04  0.3333E-01
    -11.095  0.1141E-05  0.3333E-01
    -11.002  0.4815E-07  0.3333E-01
    -10.909  0.1330E-08  0.3333E-01
    -10.816  0.2402E-10  0.3333E-01
    -10.723  0.2835E-12  0.3333E-01
    -10.630  0.2196E-14  0.3333E-01
    -10.537  0.0000E+00  0.3333E-01
    -10.444  0.0000E+00  0.3333E-01
    -10.351  0.0000E+00  0.3333E-01
    -10.258  0.0000E+00  0.3333E-01
    -10.165  0.0000E+00  0.3333E-01
    -10.072  0.0000E+00  0.3333E-01
     -9.979  0.0000E+00  0.3333E-01
     -9.886  0.0000E+00  0.3333E-01
     -9.793  0.0000E+00  0.3333E-01
     -9.699  0.0000E+00  0.3333E-01
     -9.606  0.0000E+00  0.3333E-01
     -9.513  0.0000E+00  0.3333E-01
     -9.420  0.2009E-15  0.3333E-01
     -9.327  0.3177E-13  0.3333E-01
     -9.234  0.3276E-11  0.3333E-01
     -9.141  0.2206E-09  0.3333E-01
     -9.048  0.9714E-08  0.3333E-01
     -8.955  0.2799E-06  0.3333E-01
     -8.862  0.5284E-05  0.3333E-01
     -8.769  0.6540E-04  0.3334E-01
     -8.676  0.5314E-03  0.3339E-01
     -8.583  0.2837E-02  0.3365E-01
     -8.490  0.9961E-02  0.3458E-01
     -8.397  0.2302E-01  0.3672E-01
     -8.304  0.3503E-01  0.3998E-01
     -8.211  0.3511E-01  0.4325E-01
     -8.118  0.2318E-01  0.4540E-01
     -8.025  0.1007E-01  0.4634E-01
     -7.932  0.2882E-02  0.4661E-01
     -7.839  0.5424E-03  0.4666E-01
     -7.746  0.6776E-04  0.4667E-01
     -7.652  0.1605E-04  0.4667E-01
     -7.559  0.1053E-03  0.4668E-01
     -7.466  0.6823E-03  0.4674E-01
     -7.373  0.2914E-02  0.4701E-01
     -7.280  0.8191E-02  0.4777E-01
     -7.187  0.1516E-01  0.4918E-01
     -7.094  0.1847E-01  0.5090E-01
     -7.001  0.1483E-01  0.5228E-01
     -6.908  0.7838E-02  0.5301E-01
     -6.815  0.2728E-02  0.5327E-01
     -6.722  0.6246E-03  0.5332E-01
     -6.629  0.9401E-04  0.5333E-01
     -6.536  0.9293E-05  0.5333E-01
     -6.443  0.6027E-06  0.5333E-01
     -6.350  0.2562E-07  0.5333E-01
     -6.257  0.7128E-09  0.5333E-01
     -6.164  0.1298E-10  0.5333E-01
     -6.071  0.1543E-12  0.5333E-01
     -5.978  0.1201E-14  0.5333E-01
     -5.885  0.7955E-17  0.5333E-01
     -5.792  0.0000E+00  0.5333E-01
     -5.699  0.0000E+00  0.5333E-01
     -5.606  0.0000E+00  0.5333E-01
     -5.512  0.0000E+00  0.5333E-01
     -5.419  0.0000E+00  0.5333E-01
     -5.326  0.0000E+00  0.5333E-01
     -5.233  0.0000E+00  0.5333E-01
     -5.140  0.0000E+00  0.5333E-01
     -5.047  0.0000E+00  0.5333E-01
     -4.954  0.0000E+00  0.5333E-01
     -4.861  0.0000E+00  0.5333E-01
     -4.768  0.0000E+00  0.5333E-01
     -4.675  0.0000E+00  0.5333E-01
     -4.582  0.0000E+00  0.5333E-01
     -4.489  0.0000E+00  0.5333E-01
     -4.396  0.0000E+00  0.5333E-01
     -4.303  0.0000E+00  0.5333E-01
     -4.210  0.0000E+00  0.5333E-01
     -4.117  0.0000E+00  0.5333E-01
     -4.024  0.0000E+00  0.5333E-01
     -3.931  0.0000E+00  0.5333E-01
     -3.838  0.0000E+00  0.5333E-01
     -3.745  0.0000E+00  0.5333E-01
     -3.652  0.0000E+00  0.5333E-01
     -3.559  0.0000E+00  0.5333E-01
     -3.465  0.0000E+00  0.5333E-01
     -3.372  0.0000E+00  0.5333E-01
     -3.279  0.0000E+00  0.5333E-01
     -3.186  0.0000E+00  0.5333E-01
     -3.093  0.0000E+00  0.5333E-01
     -3.000  0.0000E+00  0.5333E-01
     -2.907  0.0000E+00  0.5333E-01
     -2.814  0.0000E+00  0.5333E-01
     -2.721  0.0000E+00  0.5333E-01
     -2.628  0.0000E+00  0.5333E-01
     -2.535  0.0000E+00  0.5333E-01
     -2.442  0.0000E+00  0.5333E-01
     -2.349  0.0000E+00  0.5333E-01
     -2.256  0.0000E+00  0.5333E-01
     -2.163  0.0000E+00  0.5333E-01
     -2.070  0.0000E+00  0.5333E-01
     -1.977  0.0000E+00  0.5333E-01
     -1.884  0.8353E-16  0.5333E-01
     -1.791  0.1357E-13  0.5333E-01
     -1.698  0.1427E-11  0.5333E-01
     -1.605  0.9817E-10  0.5333E-01
     -1.512  0.4435E-08  0.5333E-01
     -1.419  0.1320E-06  0.5333E-01
     -1.325  0.2596E-05  0.5333E-01
     -1.232  0.3399E-04  0.5334E-01
     -1.139  0.2981E-03  0.5336E-01
     -1.046  0.1769E-02  0.5353E-01
     -0.953  0.7163E-02  0.5420E-01
     -0.860  0.1998E-01  0.5605E-01
     -0.767  0.3861E-01  0.5965E-01
     -0.674  0.5168E-01  0.6446E-01
     -0.581  0.4774E-01  0.6890E-01
     -0.488  0.3019E-01  0.7171E-01
     -0.395  0.1304E-01  0.7292E-01
     -0.302  0.4382E-02  0.7333E-01
     -0.209  0.3525E-02  0.7366E-01
     -0.116  0.8079E-02  0.7441E-01
     -0.023  0.1498E-01  0.7580E-01
      0.070  0.1847E-01  0.7752E-01
      0.163  0.1502E-01  0.7892E-01
      0.256  0.8040E-02  0.7966E-01
      0.349  0.2834E-02  0.7993E-01
      0.442  0.6572E-03  0.7999E-01
      0.535  0.1002E-03  0.8000E-01
      0.628  0.1003E-04  0.8000E-01
      0.722  0.6589E-06  0.8000E-01
      0.815  0.2837E-07  0.8000E-01
      0.908  0.7997E-09  0.8000E-01
      1.001  0.1475E-10  0.8000E-01
      1.094  0.1777E-12  0.8000E-01
      1.187  0.1400E-14  0.8000E-01
      1.280  0.7955E-17  0.8000E-01
      1.373  0.0000E+00  0.8000E-01
      1.466  0.0000E+00  0.8000E-01
      1.559  0.0000E+00  0.8000E-01
      1.652  0.0000E+00  0.8000E-01
      1.745  0.0000E+00  0.8000E-01
      1.838  0.0000E+00  0.8000E-01
      1.931  0.0000E+00  0.8000E-01
      2.024  0.0000E+00  0.8000E-01
