    6    6  300    1
  0.4500000E+04  0.3000000E-08  0.3000000E-08  0.3000000E-08  0.0000000E+00
  1.000000000000000E-004
  CAR 
 unknown system                          
     16      4     12
 
  0.2500000E+00  0.2500000E+00  0.2500000E+00  0.2500000E+00
    1      -23.889217   1.000000
    2      -19.298467   1.000000
    3      -13.882624   1.000000
    4      -11.798347   1.000000
    5      -11.795987   1.000000
    6       -8.303373   1.000000
    7       -8.303224   1.000000
    8       -7.143202   1.000000
    9       -0.763534   0.000000
   10       -0.662527   0.000000
   11       -0.661657   0.000000
   12        0.024139   0.000000
 
 -0.2500000E+00  0.2500000E+00  0.2500000E+00  0.2500000E+00
    1      -23.889216   1.000000
    2      -19.298472   1.000000
    3      -13.882620   1.000000
    4      -11.798343   1.000000
    5      -11.795985   1.000000
    6       -8.303371   1.000000
    7       -8.303219   1.000000
    8       -7.143205   1.000000
    9       -0.763533   0.000000
   10       -0.662537   0.000000
   11       -0.661663   0.000000
   12        0.023966   0.000000
 
  0.2500000E+00 -0.2500000E+00  0.2500000E+00  0.2500000E+00
    1      -23.889217   1.000000
    2      -19.298469   1.000000
    3      -13.882621   1.000000
    4      -11.798347   1.000000
    5      -11.795985   1.000000
    6       -8.303371   1.000000
    7       -8.303220   1.000000
    8       -7.143205   1.000000
    9       -0.763534   0.000000
   10       -0.662535   0.000000
   11       -0.661659   0.000000
   12        0.023978   0.000000
 
 -0.2500000E+00 -0.2500000E+00  0.2500000E+00  0.2500000E+00
    1      -23.889217   1.000000
    2      -19.298468   1.000000
    3      -13.882623   1.000000
    4      -11.798347   1.000000
    5      -11.795991   1.000000
    6       -8.303375   1.000000
    7       -8.303230   1.000000
    8       -7.143202   1.000000
    9       -0.763534   0.000000
   10       -0.662522   0.000000
   11       -0.661655   0.000000
   12        0.024113   0.000000
