 vasp.5.4.1 24Jun15 (build Jan 13 2020 12:58:22) complex                        
  
 executed on           IFC91_ompi date 2020.02.03  09:53:44
 running on   15 total cores
 each image running on    1 cores
 distrk:  each k-point on    1 cores,    1 groups
 distr:  one band on NCORES_PER_BAND=   1 cores,    1 groups


--------------------------------------------------------------------------------------------------------


 INCAR:
 POTCAR:    PAW_PBE H 15Jun2001                   
 POTCAR:    PAW_PBE C 08Apr2002                   
 POTCAR:    PAW_PBE N 08Apr2002                   
 POTCAR:    PAW_PBE H 15Jun2001                   
   VRHFIN =H: ultrasoft test                                                    
   LEXCH  = PE                                                                  
   EATOM  =    12.4884 eV,    0.9179 Ry                                         
                                                                                
   TITEL  = PAW_PBE H 15Jun2001                                                 
   LULTRA =        F    use ultrasoft PP ?                                      
   IUNSCR =        0    unscreen: 0-lin 1-nonlin 2-no                           
   RPACOR =    0.000    partial core radius                                     
   POMASS =    1.000; ZVAL   =    1.000    mass and valenz                      
   RCORE  =    1.100    outmost cutoff radius                                   
   RWIGS  =    0.700; RWIGS  =    0.370    wigner-seitz radius (au A)           
   ENMAX  =  250.000; ENMIN  =  200.000 eV                                      
   RCLOC  =    0.701    cutoff for local pot                                    
   LCOR   =        T    correct aug charges                                     
   LPAW   =        T    paw PP                                                  
   EAUG   =  400.000                                                            
   RMAX   =    1.123    core radius for proj-oper                               
   RAUG   =    1.200    factor for augmentation sphere                          
   RDEP   =    1.112    radius for radial grids                                 
   RDEPT  =    0.926    core radius for aug-charge                              
                                                                                
   Atomic configuration                                                         
    2 entries                                                                   
     n  l   j            E        occ.                                          
     1  0  0.50        -6.4927   1.0000                                         
     2  1  0.50        -3.4015   0.0000                                         
   Description                                                                  
     l       E           TYP  RCUT    TYP  RCUT                                 
     0     -6.4927494     23  1.100                                             
     0      6.8029130     23  1.100                                             
     1     -4.0817478     23  1.100                                             
  local pseudopotential read in
  atomic valenz-charges read in
  non local Contribution for L=           0  read in
    real space projection operators read in
  non local Contribution for L=           0  read in
    real space projection operators read in
  non local Contribution for L=           1  read in
    real space projection operators read in
    PAW grid and wavefunctions read in
 
   number of l-projection  operators is LMAX  =           3
   number of lm-projection operators is LMMAX =           5
 
 POTCAR:    PAW_PBE C 08Apr2002                   
   VRHFIN =C: s2p2                                                              
   LEXCH  = PE                                                                  
   EATOM  =   147.1560 eV,   10.8157 Ry                                         
                                                                                
   TITEL  = PAW_PBE C 08Apr2002                                                 
   LULTRA =        F    use ultrasoft PP ?                                      
   IUNSCR =        1    unscreen: 0-lin 1-nonlin 2-no                           
   RPACOR =    1.200    partial core radius                                     
   POMASS =   12.011; ZVAL   =    4.000    mass and valenz                      
   RCORE  =    1.500    outmost cutoff radius                                   
   RWIGS  =    1.630; RWIGS  =    0.863    wigner-seitz radius (au A)           
   ENMAX  =  400.000; ENMIN  =  300.000 eV                                      
   ICORE  =        2    local potential                                         
   LCOR   =        T    correct aug charges                                     
   LPAW   =        T    paw PP                                                  
   EAUG   =  644.873                                                            
   DEXC   =    0.000                                                            
   RMAX   =    1.529    core radius for proj-oper                               
   RAUG   =    1.300    factor for augmentation sphere                          
   RDEP   =    1.501    radius for radial grids                                 
   RDEPT  =    1.300    core radius for aug-charge                              
                                                                                
   Atomic configuration                                                         
    4 entries                                                                   
     n  l   j            E        occ.                                          
     1  0  0.50      -273.3789   2.0000                                         
     2  0  0.50       -13.7508   2.0000                                         
     2  1  0.50        -5.2854   2.0000                                         
     3  2  1.50        -5.4423   0.0000                                         
   Description                                                                  
     l       E           TYP  RCUT    TYP  RCUT                                 
     0    -13.7508458     23  1.200                                             
     0     -8.2022199     23  1.200                                             
     1     -5.2854383     23  1.500                                             
     1     34.0145650     23  1.500                                             
     2     -5.4423304      7  1.500                                             
  local pseudopotential read in
  partial core-charges read in
  partial kinetic energy density read in
  atomic valenz-charges read in
  non local Contribution for L=           0  read in
    real space projection operators read in
  non local Contribution for L=           0  read in
    real space projection operators read in
  non local Contribution for L=           1  read in
    real space projection operators read in
  non local Contribution for L=           1  read in
    real space projection operators read in
    PAW grid and wavefunctions read in
 
   number of l-projection  operators is LMAX  =           4
   number of lm-projection operators is LMMAX =           8
 
 POTCAR:    PAW_PBE N 08Apr2002                   
   VRHFIN =N: s2p3                                                              
   LEXCH  = PE                                                                  
   EATOM  =   264.5486 eV,   19.4438 Ry                                         
                                                                                
   TITEL  = PAW_PBE N 08Apr2002                                                 
   LULTRA =        F    use ultrasoft PP ?                                      
   IUNSCR =        1    unscreen: 0-lin 1-nonlin 2-no                           
   RPACOR =    1.200    partial core radius                                     
   POMASS =   14.001; ZVAL   =    5.000    mass and valenz                      
   RCORE  =    1.500    outmost cutoff radius                                   
   RWIGS  =    1.400; RWIGS  =    0.741    wigner-seitz radius (au A)           
   ENMAX  =  400.000; ENMIN  =  300.000 eV                                      
   ICORE  =        2    local potential                                         
   LCOR   =        T    correct aug charges                                     
   LPAW   =        T    paw PP                                                  
   EAUG   =  627.112                                                            
   DEXC   =    0.000                                                            
   RMAX   =    1.529    core radius for proj-oper                               
   RAUG   =    1.300    factor for augmentation sphere                          
   RDEP   =    1.514    radius for radial grids                                 
   RDEPT  =    1.338    core radius for aug-charge                              
                                                                                
   Atomic configuration                                                         
    4 entries                                                                   
     n  l   j            E        occ.                                          
     1  0  0.50      -384.7179   2.0000                                         
     2  0  0.50       -18.5828   2.0000                                         
     2  1  0.50        -7.0898   3.0000                                         
     3  2  1.50        -6.8029   0.0000                                         
   Description                                                                  
     l       E           TYP  RCUT    TYP  RCUT                                 
     0    -18.5828119     23  1.200                                             
     0    -13.5018863     23  1.200                                             
     1     -7.0897853     23  1.500                                             
     1      9.5240782     23  1.500                                             
     2     -6.8029130      7  1.500                                             
  local pseudopotential read in
  partial core-charges read in
  partial kinetic energy density read in
  atomic valenz-charges read in
  non local Contribution for L=           0  read in
    real space projection operators read in
  non local Contribution for L=           0  read in
    real space projection operators read in
  non local Contribution for L=           1  read in
    real space projection operators read in
  non local Contribution for L=           1  read in
    real space projection operators read in
    PAW grid and wavefunctions read in
 
   number of l-projection  operators is LMAX  =           4
   number of lm-projection operators is LMMAX =           8
 

 ----------------------------------------------------------------------------- 
|                                                                             |
|  ADVICE TO THIS USER RUNNING 'VASP/VAMP'   (HEAR YOUR MASTER'S VOICE ...):  |
|                                                                             |
|      You have a (more or less) 'small supercell' and for smaller cells      |
|      it is recommended  to use the reciprocal-space projection scheme!      |
|      The real space optimization is not  efficient for small cells and it   |
|      is also less accurate ...                                              |
|      Therefore set LREAL=.FALSE. in the  INCAR file                         |
|                                                                             |
 ----------------------------------------------------------------------------- 

 Optimization of the real space projectors (new method)

 maximal supplied QI-value         = 34.20
 optimisation between [QCUT,QGAM] = [  9.92, 20.18] = [ 27.55,114.04] Ry 
 Optimized for a Real-space Cutoff    1.26 Angstroem

   l    n(q)    QCUT    max X(q) W(low)/X(q) W(high)/X(q)  e(spline) 
   0      8     9.919    19.460    0.50E-03    0.23E-03    0.29E-06
   0      8     9.919    12.209    0.48E-03    0.23E-03    0.28E-06
   1      7     9.919     4.655    0.17E-03    0.75E-03    0.30E-06
 Optimization of the real space projectors (new method)

 maximal supplied QI-value         = 25.13
 optimisation between [QCUT,QGAM] = [ 10.05, 20.36] = [ 28.30,116.06] Ry 
 Optimized for a Real-space Cutoff    1.30 Angstroem

   l    n(q)    QCUT    max X(q) W(low)/X(q) W(high)/X(q)  e(spline) 
   0      8    10.053   115.676    0.49E-03    0.72E-03    0.18E-06
   0      8    10.053    87.132    0.49E-03    0.71E-03    0.18E-06
   1      7    10.053     4.429    0.32E-03    0.31E-03    0.18E-06
   1      7    10.053     2.733    0.23E-03    0.19E-03    0.20E-06
 Optimization of the real space projectors (new method)

 maximal supplied QI-value         = 25.13
 optimisation between [QCUT,QGAM] = [ 10.05, 20.36] = [ 28.30,116.06] Ry 
 Optimized for a Real-space Cutoff    1.65 Angstroem

   l    n(q)    QCUT    max X(q) W(low)/X(q) W(high)/X(q)  e(spline) 
   0     10    10.053    79.467    0.76E-04    0.72E-04    0.56E-06
   0     10    10.053    66.151    0.76E-04    0.72E-04    0.55E-06
   1     10    10.053     8.350    0.25E-03    0.92E-03    0.41E-05
   1     10    10.053     5.531    0.27E-03    0.10E-02    0.45E-05
  PAW_PBE H 15Jun2001                   :
 energy of atom  1       EATOM=  -12.4884
 kinetic energy error for atom=    0.0098 (will be added to EATOM!!)
  PAW_PBE C 08Apr2002                   :
 energy of atom  2       EATOM= -147.1560
 kinetic energy error for atom=    0.0288 (will be added to EATOM!!)
  PAW_PBE N 08Apr2002                   :
 energy of atom  3       EATOM= -264.5486
 kinetic energy error for atom=    0.0736 (will be added to EATOM!!)
 
 
 POSCAR: H3 C2 N1                                
  positions in direct lattice
  velocities in cartesian coordinates
 exchange correlation table for  LEXCH =        8
   RHO(1)=    0.500       N(1)  =     2000
   RHO(2)=  100.500       N(2)  =     4000

 VTST: version 3.2, (02/03/18)

 CHAIN: initializing optimizer
 
 OPT: Using FIRE optimizer
 OPT: FIRE, Init
 OPT: FIRE, MAXMOVE       0.20000
 OPT: FIRE, TIMESTEP      0.10000
 OPT: FIRE, FTIMEMAX      1.00000
 OPT: FIRE, FTIMEINC      1.10000
 OPT: FIRE, FTIMEDEC      0.50000
 OPT: FIRE, FALPHADEC     0.99000
 OPT: FIRE, FALPHA        0.10000
 OPT: FIRE, FNMIN         5
 
 CHAIN: Read ICHAIN            0
 CHAIN: Running the NEB
 NEB:          SPRING     -5.000000
 NEB:          LCLIMB      T
 NEB:     LTANGENTOLD      F
 NEB:           LDNEB      F
 NEB:        LDNEBORG      F
 NEB:        LNEBCELL      F
 NEB:          EFIRST      0.000000
 NEB:           ELAST      0.000000
 
 POSCAR: H3 C2 N1                                
  positions in direct lattice
  No initial velocities read in
 
 POSCAR: H3 C2 N1                                
  positions in direct lattice
  No initial velocities read in
 


--------------------------------------------------------------------------------------------------------


 ion  position               nearest neighbor table
   1  0.463  0.476  0.509-   4 1.10
   2  0.474  0.521  0.470-   4 1.10
   3  0.482  0.529  0.529-   4 1.10
   4  0.485  0.505  0.502-   2 1.10   1 1.10   3 1.10   6 1.42
   5  0.567  0.478  0.493-   6 1.18
   6  0.530  0.491  0.497-   5 1.18   4 1.42
 
  LATTYP: Found a simple cubic cell.
 ALAT       =    30.0000000000
  
  Lattice vectors:
  
 A1 = (  30.0000000000,   0.0000000000,   0.0000000000)
 A2 = (   0.0000000000,  30.0000000000,   0.0000000000)
 A3 = (   0.0000000000,   0.0000000000,  30.0000000000)


Analysis of symmetry for initial positions (statically):
=====================================================================
 Subroutine PRICEL returns:
 Original cell was already a primitive cell.
 

 Routine SETGRP: Setting up the symmetry group for a 
 simple cubic supercell.


 Subroutine GETGRP returns: Found  1 space group operations
 (whereof  1 operations were pure point group operations)
 out of a pool of 48 trial point group operations.


The static configuration has the point symmetry C_1 .


Analysis of symmetry for dynamics (positions and initial velocities):
=====================================================================
 Subroutine PRICEL returns:
 Original cell was already a primitive cell.
 

 Routine SETGRP: Setting up the symmetry group for a 
 simple cubic supercell.


 Subroutine GETGRP returns: Found  1 space group operations
 (whereof  1 operations were pure point group operations)
 out of a pool of 48 trial point group operations.


The dynamic configuration has the point symmetry C_1 .
 
 
 KPOINTS: Mo2C                                    

Automatic generation of k-mesh.
Space group operators:
 irot       det(A)        alpha          n_x          n_y          n_z        tau_x        tau_y        tau_z
    1     1.000000     0.000000     1.000000     0.000000     0.000000     0.000000     0.000000     0.000000
 
 Subroutine IBZKPT returns following result:
 ===========================================
 
 Found      4 irreducible k-points:
 
 Following reciprocal coordinates:
            Coordinates               Weight
  0.250000  0.250000  0.250000      2.000000
 -0.250000  0.250000  0.250000      2.000000
  0.250000 -0.250000  0.250000      2.000000
 -0.250000 -0.250000  0.250000      2.000000
 
 Following cartesian coordinates:
            Coordinates               Weight
  0.008333  0.008333  0.008333      2.000000
 -0.008333  0.008333  0.008333      2.000000
  0.008333 -0.008333  0.008333      2.000000
 -0.008333 -0.008333  0.008333      2.000000
 


--------------------------------------------------------------------------------------------------------




 Dimension of arrays:
   k-points           NKPTS =      4   k-points in BZ     NKDIM =      4   number of bands    NBANDS=     12
   number of dos      NEDOS =    301   number of ions     NIONS =      6
   non local maximal  LDIM  =      4   non local SUM 2l+1 LMDIM =      8
   total plane-waves  NPLWV = ******
   max r-space proj   IRMAX =   2395   max aug-charges    IRDMAX=   1738
   dimension x,y,z NGX =   150 NGY =  150 NGZ =  150
   dimension x,y,z NGXF=   300 NGYF=  300 NGZF=  300
   support grid    NGXF=   300 NGYF=  300 NGZF=  300
   ions per type =               3   2   1
 NGX,Y,Z   is equivalent  to a cutoff of   8.31,  8.31,  8.31 a.u.
 NGXF,Y,Z  is equivalent  to a cutoff of  16.62, 16.62, 16.62 a.u.


 I would recommend the setting:
   dimension x,y,z NGX =   147 NGY =  147 NGZ =  147
 SYSTEM =  unknown system                          
 POSCAR =  H3 C2 N1                                

 Startparameter for this run:
   NWRITE =      2    write-flag & timer
   PREC   = normal    normal or accurate (medium, high low for compatibility)
   ISTART =      0    job   : 0-new  1-cont  2-samecut
   ICHARG =      2    charge: 1-file 2-atom 10-const
   ISPIN  =      1    spin polarized calculation?
   LNONCOLLINEAR =      F non collinear calculations
   LSORBIT =      F    spin-orbit coupling
   INIWAV =      1    electr: 0-lowe 1-rand  2-diag
   LASPH  =      F    aspherical Exc in radial PAW
   METAGGA=      F    non-selfconsistent MetaGGA calc.

 Electronic Relaxation 1
   ENCUT  =  400.0 eV  29.40 Ry    5.42 a.u.  48.92 48.92 48.92*2*pi/ulx,y,z
   ENINI  =  400.0     initial cutoff
   ENAUG  =  644.9 eV  augmentation charge cutoff
   NELM   =    500;   NELMIN=  6; NELMDL= -5     # of ELM steps 
   EDIFF  = 0.1E-03   stopping-criterion for ELM
   LREAL  =      T    real-space projection
   NLSPLINE    = F    spline interpolate recip. space projectors
   LCOMPAT=      F    compatible to vasp.4.4
   GGA_COMPAT  = T    GGA compatible to vasp.4.4-vasp.4.6
   LMAXPAW     = -100 max onsite density
   LMAXMIX     =    2 max onsite mixed and CHGCAR
   VOSKOWN=      0    Vosko Wilk Nusair interpolation
   ROPT   =   -0.00050  -0.00050  -0.00050
 Ionic relaxation
   EDIFFG = -.1E+00   stopping-criterion for IOM
   NSW    =    300    number of steps for IOM
   NBLOCK =      1;   KBLOCK =    300    inner block; outer block 
   IBRION =      3    ionic relax: 0-MD 1-quasi-New 2-CG
   NFREE  =      0    steps in history (QN), initial steepest desc. (CG)
   ISIF   =      2    stress and relaxation
   IWAVPR =     11    prediction:  0-non 1-charg 2-wave 3-comb
   ISYM   =      2    0-nonsym 1-usesym 2-fastsym
   LCORR  =      T    Harris-Foulkes like correction to forces

   POTIM  = 0.0000    time-step for ionic-motion
   TEIN   =    0.0    initial temperature
   TEBEG  =    0.0;   TEEND  =   0.0 temperature during run
   SMASS  =   2.00    Nose mass-parameter (am)
   estimated Nose-frequenzy (Omega)   =  0.12E+10 period in steps =  0.00 mass=   0.137E-25a.u.
   SCALEE = 1.0000    scale energy and forces
   NPACO  =    256;   APACO  = 16.0  distance and # of slots for P.C.
   PSTRESS=    0.0 pullay stress

  Mass of Ions in am
   POMASS =   1.00 12.01 14.00
  Ionic Valenz
   ZVAL   =   1.00  4.00  5.00
  Atomic Wigner-Seitz radii
   RWIGS  =  -1.00 -1.00 -1.00
  virtual crystal weights 
   VCA    =   1.00  1.00  1.00
   NELECT =      16.0000    total number of electrons
   NUPDOWN=      -1.0000    fix difference up-down

 DOS related values:
   EMIN   =  10.00;   EMAX   =-10.00  energy-range for DOS
   EFERMI =   0.00
   ISMEAR =     0;   SIGMA  =   0.20  broadening in eV -4-tet -1-fermi 0-gaus

 Electronic relaxation 2 (details)
   IALGO  =     38    algorithm
   LDIAG  =      T    sub-space diagonalisation (order eigenvalues)
   LSUBROT=      F    optimize rotation matrix (better conditioning)
   TURBO    =      0    0=normal 1=particle mesh
   IRESTART =      0    0=no restart 2=restart with 2 vectors
   NREBOOT  =      0    no. of reboots
   NMIN     =      0    reboot dimension
   EREF     =   0.00    reference energy to select bands
   IMIX   =      4    mixing-type and parameters
     AMIX     =   0.40;   BMIX     =  1.00
     AMIX_MAG =   1.60;   BMIX_MAG =  1.00
     AMIN     =   0.10
     WC   =   100.;   INIMIX=   1;  MIXPRE=   1;  MAXMIX= -45

 Intra band minimization:
   WEIMIN = 0.0010     energy-eigenvalue tresh-hold
   EBREAK =  0.21E-05  absolut break condition
   DEPER  =   0.30     relativ break condition  

   TIME   =   0.40     timestep for ELM

  volume/ion in A,a.u.               =    4500.00     30367.50
  Fermi-wavevector in a.u.,A,eV,Ry     =   0.137508  0.259852  0.257264  0.018908
  Thomas-Fermi vector in A             =   0.790710
 
 Write flags
   LWAVE  =      F    write WAVECAR
   LCHARG =      F    write CHGCAR
   LVTOT  =      F    write LOCPOT, total local potential
   LVHAR  =      F    write LOCPOT, Hartree potential only
   LELF   =      F    write electronic localiz. function (ELF)
   LORBIT =      0    0 simple, 1 ext, 2 COOP (PROOUT)


 Dipole corrections
   LMONO  =      F    monopole corrections only (constant potential shift)
   LDIPOL =      F    correct potential (dipole corrections)
   IDIPOL =      0    1-x, 2-y, 3-z, 4-all directions 
   EPSILON=  1.0000000 bulk dielectric constant

 Exchange correlation treatment:
   GGA     =    PE    GGA type
   LEXCH   =     8    internal setting for exchange type
   VOSKOWN=      0    Vosko Wilk Nusair interpolation
   LHFCALC =     F    Hartree Fock is set to
   LHFONE  =     F    Hartree Fock one center treatment
   AEXX    =    0.0000 exact exchange contribution

 Linear response parameters
   LEPSILON=     F    determine dielectric tensor
   LRPA    =     F    only Hartree local field effects (RPA)
   LNABLA  =     F    use nabla operator in PAW spheres
   LVEL    =     F    velocity operator in full k-point grid
   LINTERFAST=   F  fast interpolation
   KINTER  =     0    interpolate to denser k-point grid
   CSHIFT  =0.1000    complex shift for real part using Kramers Kronig
   OMEGAMAX=  -1.0    maximum frequency
   DEG_THRESHOLD= 0.2000000E-02 threshold for treating states as degnerate
   RTIME   =    0.100 relaxation time in fs

 Orbital magnetization related:
   ORBITALMAG=     F  switch on orbital magnetization
   LCHIMAG   =     F  perturbation theory with respect to B field
   DQ        =  0.001000  dq finite difference perturbation B field



--------------------------------------------------------------------------------------------------------


 quickmin algorithm: (dynamic with friction)
 charge density and potential will be updated during run
 non-spin polarized calculation
 Variant of blocked Davidson
 Davidson routine will perform the subspace rotation
 perform sub-space diagonalisation
    after iterative eigenvector-optimisation
 modified Broyden-mixing scheme, WC =      100.0
 initial mixing is a Kerker type mixing with AMIX =  0.4000 and BMIX =      1.0000
 Hartree-type preconditioning will be used
 using additional bands            4
 real space projection scheme for non local part
 use partial core corrections
 calculate Harris-corrections to forces 
   (improved forces if not selfconsistent)
 use gradient corrections 
 use of overlap-Matrix (Vanderbilt PP)
 Gauss-broadening in eV      SIGMA  =   0.20


--------------------------------------------------------------------------------------------------------


  energy-cutoff  :      400.00
  volume of cell :    27000.00
      direct lattice vectors                 reciprocal lattice vectors
    30.000000000  0.000000000  0.000000000     0.033333333  0.000000000  0.000000000
     0.000000000 30.000000000  0.000000000     0.000000000  0.033333333  0.000000000
     0.000000000  0.000000000 30.000000000     0.000000000  0.000000000  0.033333333

  length of vectors
    30.000000000 30.000000000 30.000000000     0.033333333  0.033333333  0.033333333


 
 k-points in units of 2pi/SCALE and weight: Mo2C                                    
   0.00833333  0.00833333  0.00833333       0.250
  -0.00833333  0.00833333  0.00833333       0.250
   0.00833333 -0.00833333  0.00833333       0.250
  -0.00833333 -0.00833333  0.00833333       0.250
 
 k-points in reciprocal lattice and weights: Mo2C                                    
   0.25000000  0.25000000  0.25000000       0.250
  -0.25000000  0.25000000  0.25000000       0.250
   0.25000000 -0.25000000  0.25000000       0.250
  -0.25000000 -0.25000000  0.25000000       0.250
 
 position of ions in fractional coordinates (direct lattice) 
   0.46324928  0.47628978  0.50874378
   0.47401695  0.52069484  0.47026582
   0.48183959  0.52935280  0.52883198
   0.48478243  0.50504272  0.50157580
   0.56656344  0.47803485  0.49320233
   0.52956597  0.49061984  0.49737493
 
 position of ions in cartesian coordinates  (Angst):
  13.89747851 14.28869352 15.26231342
  14.22050858 15.62084530 14.10797457
  14.45518772 15.88058400 15.86495929
  14.54347275 15.15128162 15.04727409
  16.99690330 14.34104550 14.79606979
  15.88697924 14.71859516 14.92124792
 


--------------------------------------------------------------------------------------------------------


 k-point  1 :   0.2500 0.2500 0.2500  plane waves:  490454
 k-point  2 :  -0.2500 0.2500 0.2500  plane waves:  490454
 k-point  3 :   0.2500-0.2500 0.2500  plane waves:  490454
 k-point  4 :  -0.2500-0.2500 0.2500  plane waves:  490454

 maximum and minimum number of plane-waves per node :    490454   490454

 maximum number of plane-waves:    490454
 maximum index in each direction: 
   IXMAX=   49   IYMAX=   49   IZMAX=   48
   IXMIN=  -49   IYMIN=  -49   IZMIN=  -49

 WARNING: aliasing errors must be expected set NGX to 198 to avoid them
 WARNING: aliasing errors must be expected set NGY to 198 to avoid them
 WARNING: aliasing errors must be expected set NGZ to 196 to avoid them
 aliasing errors are usually negligible using standard VASP settings
 and one can safely disregard these warnings

 serial   3D FFT for wavefunctions
 parallel 3D FFT for charge:
    minimum data exchange during FFTs selected (reduces bandwidth)


 total amount of memory used by VASP on root node  3203891. kBytes
========================================================================

   base      :      30000. kBytes
   nonlr-proj:        695. kBytes
   fftplans  :     924480. kBytes
   grid      :    1872000. kBytes
   one-center:         18. kBytes
   wavefun   :     376698. kBytes
 
     INWAV:  cpu time    0.0000: real time    0.0003
 Broyden mixing: mesh for mixing (old mesh)
   NGX = 97   NGY = 97   NGZ = 97
  (NGX  =300   NGY  =300   NGZ  =300)
  gives a total of 912673 points

 initial charge density was supplied:
 charge density of overlapping atoms calculated
 number of electron      16.0000000 magnetization 
 keeping initial charge density in first step


--------------------------------------------------------------------------------------------------------


 Maximum index for non-local projection operator         2290
 Maximum index for augmentation-charges         1491 (set IRDMAX)


--------------------------------------------------------------------------------------------------------


 First call to EWALD:  gamma=   0.059
 Maximum number of real-space cells 3x 3x 3
 Maximum number of reciprocal cells 3x 3x 3

 FEWALD executed in parallel
    FEWALD:  cpu time    0.0020: real time    0.0021


----------------------------------------- Iteration    1(   1)  ---------------------------------------


    POTLOK:  cpu time   19.1161: real time   19.1006
    SETDIJ:  cpu time    0.0080: real time    0.0081
     EDDAV:  cpu time   87.9036: real time   87.8320
       DOS:  cpu time    0.0010: real time    0.0003
    --------------------------------------------
      LOOP:  cpu time  107.0317: real time  106.9454

 eigenvalue-minimisations  :   160
 total energy-change (2. order) : 0.1141308E+03  (-0.2135786E+03)
 number of electron      16.0000000 magnetization 
 augmentation part       16.0000000 magnetization 

 Free energy of the ion-electron system (eV)
  ---------------------------------------------------
  alpha Z        PSCENC =         0.04144063
  Ewald energy   TEWEN  =       703.26058529
  -Hartree energ DENC   =     -1117.45300203
  -exchange      EXHF   =         0.00000000
  -V(xc)+E(xc)   XCENC  =        51.42454477
  PAW double counting   =       428.37890668     -430.73533574
  entropy T*S    EENTRO =        -0.17680164
  eigenvalues    EBANDS =      -116.77486634
  atomic energy  EATOM  =       596.16534815
  Solvation  Ediel_sol  =         0.00000000
  ---------------------------------------------------
  free energy    TOTEN  =       114.13081976 eV

  energy without entropy =      114.30762140  energy(sigma->0) =      114.21922058


--------------------------------------------------------------------------------------------------------




----------------------------------------- Iteration    1(   2)  ---------------------------------------


     EDDAV:  cpu time  113.7967: real time  113.7027
       DOS:  cpu time    0.0000: real time    0.0002
    --------------------------------------------
      LOOP:  cpu time  113.7967: real time  113.7059

 eigenvalue-minimisations  :   192
 total energy-change (2. order) :-0.1153170E+03  (-0.1128128E+03)
 number of electron      16.0000000 magnetization 
 augmentation part       16.0000000 magnetization 

 Free energy of the ion-electron system (eV)
  ---------------------------------------------------
  alpha Z        PSCENC =         0.04144063
  Ewald energy   TEWEN  =       703.26058529
  -Hartree energ DENC   =     -1117.45300203
  -exchange      EXHF   =         0.00000000
  -V(xc)+E(xc)   XCENC  =        51.42454477
  PAW double counting   =       428.37890668     -430.73533574
  entropy T*S    EENTRO =        -0.00013099
  eigenvalues    EBANDS =      -232.26852483
  atomic energy  EATOM  =       596.16534815
  Solvation  Ediel_sol  =         0.00000000
  ---------------------------------------------------
  free energy    TOTEN  =        -1.18616809 eV

  energy without entropy =       -1.18603710  energy(sigma->0) =       -1.18610259


--------------------------------------------------------------------------------------------------------




----------------------------------------- Iteration    1(   3)  ---------------------------------------


     EDDAV:  cpu time   87.5597: real time   87.4887
       DOS:  cpu time    0.0000: real time    0.0002
    --------------------------------------------
      LOOP:  cpu time   87.5617: real time   87.4916

 eigenvalue-minimisations  :   136
 total energy-change (2. order) :-0.3248284E+02  (-0.3236987E+02)
 number of electron      16.0000000 magnetization 
 augmentation part       16.0000000 magnetization 

 Free energy of the ion-electron system (eV)
  ---------------------------------------------------
  alpha Z        PSCENC =         0.04144063
  Ewald energy   TEWEN  =       703.26058529
  -Hartree energ DENC   =     -1117.45300203
  -exchange      EXHF   =         0.00000000
  -V(xc)+E(xc)   XCENC  =        51.42454477
  PAW double counting   =       428.37890668     -430.73533574
  entropy T*S    EENTRO =         0.00000000
  eigenvalues    EBANDS =      -264.75149800
  atomic energy  EATOM  =       596.16534815
  Solvation  Ediel_sol  =         0.00000000
  ---------------------------------------------------
  free energy    TOTEN  =       -33.66901027 eV

  energy without entropy =      -33.66901027  energy(sigma->0) =      -33.66901027


--------------------------------------------------------------------------------------------------------




----------------------------------------- Iteration    1(   4)  ---------------------------------------


     EDDAV:  cpu time   83.8802: real time   83.8112
       DOS:  cpu time    0.0000: real time    0.0002
    --------------------------------------------
      LOOP:  cpu time   83.8802: real time   83.8142

 eigenvalue-minimisations  :   128
 total energy-change (2. order) :-0.5240763E+01  (-0.5187071E+01)
 number of electron      16.0000000 magnetization 
 augmentation part       16.0000000 magnetization 

 Free energy of the ion-electron system (eV)
  ---------------------------------------------------
  alpha Z        PSCENC =         0.04144063
  Ewald energy   TEWEN  =       703.26058529
  -Hartree energ DENC   =     -1117.45300203
  -exchange      EXHF   =         0.00000000
  -V(xc)+E(xc)   XCENC  =        51.42454477
  PAW double counting   =       428.37890668     -430.73533574
  entropy T*S    EENTRO =         0.00000000
  eigenvalues    EBANDS =      -269.99226098
  atomic energy  EATOM  =       596.16534815
  Solvation  Ediel_sol  =         0.00000000
  ---------------------------------------------------
  free energy    TOTEN  =       -38.90977325 eV

  energy without entropy =      -38.90977325  energy(sigma->0) =      -38.90977325


--------------------------------------------------------------------------------------------------------




----------------------------------------- Iteration    1(   5)  ---------------------------------------


     EDDAV:  cpu time   75.2806: real time   75.2199
       DOS:  cpu time    0.0000: real time    0.0002
    CHARGE:  cpu time    5.8581: real time    5.8535
    MIXING:  cpu time    0.6959: real time    0.6954
    --------------------------------------------
      LOOP:  cpu time   81.8366: real time   81.7723

 eigenvalue-minimisations  :   112
 total energy-change (2. order) :-0.1953334E+00  (-0.1925734E+00)
 number of electron      16.0000012 magnetization 
 augmentation part        0.5200149 magnetization 

 Broyden mixing:
  rms(total) = 0.10385E+01    rms(broyden)= 0.10379E+01
  rms(prec ) = 0.10748E+01
  weight for this iteration     100.00

 Free energy of the ion-electron system (eV)
  ---------------------------------------------------
  alpha Z        PSCENC =         0.04144063
  Ewald energy   TEWEN  =       703.26058529
  -Hartree energ DENC   =     -1117.45300203
  -exchange      EXHF   =         0.00000000
  -V(xc)+E(xc)   XCENC  =        51.42454477
  PAW double counting   =       428.37890668     -430.73533574
  entropy T*S    EENTRO =         0.00000000
  eigenvalues    EBANDS =      -270.18759437
  atomic energy  EATOM  =       596.16534815
  Solvation  Ediel_sol  =         0.00000000
  ---------------------------------------------------
  free energy    TOTEN  =       -39.10510663 eV

  energy without entropy =      -39.10510663  energy(sigma->0) =      -39.10510663


--------------------------------------------------------------------------------------------------------




----------------------------------------- Iteration    1(   6)  ---------------------------------------


    POTLOK:  cpu time   24.9042: real time   24.8839
    SETDIJ:  cpu time    0.0080: real time    0.0083
     EDDAV:  cpu time   77.4382: real time   77.3751
       DOS:  cpu time    0.0000: real time    0.0002
    CHARGE:  cpu time    5.7671: real time    5.7631
    MIXING:  cpu time    0.6759: real time    0.6750
    --------------------------------------------
      LOOP:  cpu time  108.7955: real time  108.7095

 eigenvalue-minimisations  :   116
 total energy-change (2. order) : 0.2693777E+01  (-0.4398590E+00)
 number of electron      16.0000011 magnetization 
 augmentation part        0.4745272 magnetization 

 Broyden mixing:
  rms(total) = 0.56303E+00    rms(broyden)= 0.56293E+00
  rms(prec ) = 0.57857E+00
  weight for this iteration     100.00

 eigenvalues of (default mixing * dielectric matrix)
  average eigenvalue GAMMA=   1.6226
  1.6226

 Free energy of the ion-electron system (eV)
  ---------------------------------------------------
  alpha Z        PSCENC =         0.04144063
  Ewald energy   TEWEN  =       703.26058529
  -Hartree energ DENC   =     -1146.57722966
  -exchange      EXHF   =         0.00000000
  -V(xc)+E(xc)   XCENC  =        53.02523621
  PAW double counting   =       720.26307577     -722.95550482
  entropy T*S    EENTRO =         0.00000000
  eigenvalues    EBANDS =      -239.63428087
  atomic energy  EATOM  =       596.16534815
  Solvation  Ediel_sol  =         0.00000000
  ---------------------------------------------------
  free energy    TOTEN  =       -36.41132931 eV

  energy without entropy =      -36.41132931  energy(sigma->0) =      -36.41132931


--------------------------------------------------------------------------------------------------------




----------------------------------------- Iteration    1(   7)  ---------------------------------------


    POTLOK:  cpu time   25.0942: real time   25.0738
    SETDIJ:  cpu time    0.0090: real time    0.0084
     EDDAV:  cpu time   83.7713: real time   83.7029
       DOS:  cpu time    0.0000: real time    0.0002
    CHARGE:  cpu time    5.9691: real time    5.9652
    MIXING:  cpu time    0.7219: real time    0.7209
    --------------------------------------------
      LOOP:  cpu time  115.5674: real time  115.4792

 eigenvalue-minimisations  :   128
 total energy-change (2. order) : 0.7061034E+00  (-0.1890296E+00)
 number of electron      16.0000012 magnetization 
 augmentation part        0.4580131 magnetization 

 Broyden mixing:
  rms(total) = 0.22283E+00    rms(broyden)= 0.22277E+00
  rms(prec ) = 0.22787E+00
  weight for this iteration     100.00

 eigenvalues of (default mixing * dielectric matrix)
  average eigenvalue GAMMA=   1.5795
  1.1024  2.0566

 Free energy of the ion-electron system (eV)
  ---------------------------------------------------
  alpha Z        PSCENC =         0.04144063
  Ewald energy   TEWEN  =       703.26058529
  -Hartree energ DENC   =     -1166.80341008
  -exchange      EXHF   =         0.00000000
  -V(xc)+E(xc)   XCENC  =        54.31254381
  PAW double counting   =      1102.87652140    -1105.76295672
  entropy T*S    EENTRO =         0.00000000
  eigenvalues    EBANDS =      -219.79529842
  atomic energy  EATOM  =       596.16534815
  Solvation  Ediel_sol  =         0.00000000
  ---------------------------------------------------
  free energy    TOTEN  =       -35.70522595 eV

  energy without entropy =      -35.70522595  energy(sigma->0) =      -35.70522595


--------------------------------------------------------------------------------------------------------




----------------------------------------- Iteration    1(   8)  ---------------------------------------


    POTLOK:  cpu time   24.2153: real time   24.1959
    SETDIJ:  cpu time    0.0090: real time    0.0083
     EDDAV:  cpu time   84.0062: real time   83.9381
       DOS:  cpu time    0.0000: real time    0.0002
    CHARGE:  cpu time    5.9241: real time    5.9199
    MIXING:  cpu time    0.7449: real time    0.7449
    --------------------------------------------
      LOOP:  cpu time  114.9015: real time  114.8110

 eigenvalue-minimisations  :   128
 total energy-change (2. order) : 0.6814873E-01  (-0.1325794E-01)
 number of electron      16.0000011 magnetization 
 augmentation part        0.4497920 magnetization 

 Broyden mixing:
  rms(total) = 0.87324E-01    rms(broyden)= 0.87303E-01
  rms(prec ) = 0.91607E-01
  weight for this iteration     100.00

 eigenvalues of (default mixing * dielectric matrix)
  average eigenvalue GAMMA=   1.5949
  2.3189  0.8294  1.6366

 Free energy of the ion-electron system (eV)
  ---------------------------------------------------
  alpha Z        PSCENC =         0.04144063
  Ewald energy   TEWEN  =       703.26058529
  -Hartree energ DENC   =     -1172.88387462
  -exchange      EXHF   =         0.00000000
  -V(xc)+E(xc)   XCENC  =        54.70992100
  PAW double counting   =      1275.97817417    -1278.88211781
  entropy T*S    EENTRO =         0.00000000
  eigenvalues    EBANDS =      -214.02655402
  atomic energy  EATOM  =       596.16534815
  Solvation  Ediel_sol  =         0.00000000
  ---------------------------------------------------
  free energy    TOTEN  =       -35.63707722 eV

  energy without entropy =      -35.63707722  energy(sigma->0) =      -35.63707722


--------------------------------------------------------------------------------------------------------




----------------------------------------- Iteration    1(   9)  ---------------------------------------


    POTLOK:  cpu time   23.7874: real time   23.7683
    SETDIJ:  cpu time    0.0080: real time    0.0083
     EDDAV:  cpu time   84.2132: real time   84.1435
       DOS:  cpu time    0.0000: real time    0.0002
    CHARGE:  cpu time    5.9731: real time    5.9686
    MIXING:  cpu time    0.7599: real time    0.7585
    --------------------------------------------
      LOOP:  cpu time  114.7436: real time  114.6514

 eigenvalue-minimisations  :   128
 total energy-change (2. order) : 0.1844755E-01  (-0.2128745E-02)
 number of electron      16.0000011 magnetization 
 augmentation part        0.4503742 magnetization 

 Broyden mixing:
  rms(total) = 0.21499E-01    rms(broyden)= 0.21488E-01
  rms(prec ) = 0.27758E-01
  weight for this iteration     100.00

 eigenvalues of (default mixing * dielectric matrix)
  average eigenvalue GAMMA=   1.5474
  2.0054  2.0054  0.8507  1.3283

 Free energy of the ion-electron system (eV)
  ---------------------------------------------------
  alpha Z        PSCENC =         0.04144063
  Ewald energy   TEWEN  =       703.26058529
  -Hartree energ DENC   =     -1174.13757919
  -exchange      EXHF   =         0.00000000
  -V(xc)+E(xc)   XCENC  =        54.79625903
  PAW double counting   =      1341.88871722    -1344.76555318
  entropy T*S    EENTRO =         0.00000000
  eigenvalues    EBANDS =      -212.86784761
  atomic energy  EATOM  =       596.16534815
  Solvation  Ediel_sol  =         0.00000000
  ---------------------------------------------------
  free energy    TOTEN  =       -35.61862967 eV

  energy without entropy =      -35.61862967  energy(sigma->0) =      -35.61862967


--------------------------------------------------------------------------------------------------------




----------------------------------------- Iteration    1(  10)  ---------------------------------------


    POTLOK:  cpu time   23.4074: real time   23.3897
    SETDIJ:  cpu time    0.0090: real time    0.0083
     EDDAV:  cpu time   83.6603: real time   83.5916
       DOS:  cpu time    0.0000: real time    0.0002
    CHARGE:  cpu time    5.9811: real time    5.9770
    MIXING:  cpu time    0.8479: real time    0.8474
    --------------------------------------------
      LOOP:  cpu time  113.9077: real time  113.8174

 eigenvalue-minimisations  :   128
 total energy-change (2. order) : 0.2342231E-03  (-0.4284995E-03)
 number of electron      16.0000011 magnetization 
 augmentation part        0.4511437 magnetization 

 Broyden mixing:
  rms(total) = 0.13077E-01    rms(broyden)= 0.13070E-01
  rms(prec ) = 0.18761E-01
  weight for this iteration     100.00

 eigenvalues of (default mixing * dielectric matrix)
  average eigenvalue GAMMA=   1.5125
  2.1928  2.1928  0.8772  0.8772  1.4224

 Free energy of the ion-electron system (eV)
  ---------------------------------------------------
  alpha Z        PSCENC =         0.04144063
  Ewald energy   TEWEN  =       703.26058529
  -Hartree energ DENC   =     -1175.14701334
  -exchange      EXHF   =         0.00000000
  -V(xc)+E(xc)   XCENC  =        54.82014918
  PAW double counting   =      1336.08088744    -1338.95353949
  entropy T*S    EENTRO =         0.00000000
  eigenvalues    EBANDS =      -211.88625330
  atomic energy  EATOM  =       596.16534815
  Solvation  Ediel_sol  =         0.00000000
  ---------------------------------------------------
  free energy    TOTEN  =       -35.61839545 eV

  energy without entropy =      -35.61839545  energy(sigma->0) =      -35.61839545


--------------------------------------------------------------------------------------------------------




----------------------------------------- Iteration    1(  11)  ---------------------------------------


    POTLOK:  cpu time   23.7634: real time   23.7434
    SETDIJ:  cpu time    0.0080: real time    0.0083
     EDDAV:  cpu time   84.5441: real time   84.4748
       DOS:  cpu time    0.0000: real time    0.0002
    CHARGE:  cpu time    5.9571: real time    5.9522
    MIXING:  cpu time    0.8879: real time    0.8870
    --------------------------------------------
      LOOP:  cpu time  115.1615: real time  115.0696

 eigenvalue-minimisations  :   128
 total energy-change (2. order) :-0.1663321E-02  (-0.1626712E-03)
 number of electron      16.0000011 magnetization 
 augmentation part        0.4506694 magnetization 

 Broyden mixing:
  rms(total) = 0.81387E-02    rms(broyden)= 0.81374E-02
  rms(prec ) = 0.13036E-01
  weight for this iteration     100.00

 eigenvalues of (default mixing * dielectric matrix)
  average eigenvalue GAMMA=   1.6633
  2.7236  2.5699  1.4567  1.4567  0.8863  0.8863

 Free energy of the ion-electron system (eV)
  ---------------------------------------------------
  alpha Z        PSCENC =         0.04144063
  Ewald energy   TEWEN  =       703.26058529
  -Hartree energ DENC   =     -1176.16457757
  -exchange      EXHF   =         0.00000000
  -V(xc)+E(xc)   XCENC  =        54.85141713
  PAW double counting   =      1335.57873783    -1338.44975264
  entropy T*S    EENTRO =         0.00000000
  eigenvalues    EBANDS =      -210.90325758
  atomic energy  EATOM  =       596.16534815
  Solvation  Ediel_sol  =         0.00000000
  ---------------------------------------------------
  free energy    TOTEN  =       -35.62005877 eV

  energy without entropy =      -35.62005877  energy(sigma->0) =      -35.62005877


--------------------------------------------------------------------------------------------------------




----------------------------------------- Iteration    1(  12)  ---------------------------------------


    POTLOK:  cpu time   23.8224: real time   23.8029
    SETDIJ:  cpu time    0.0080: real time    0.0082
     EDDAV:  cpu time   81.9145: real time   81.8477
       DOS:  cpu time    0.0000: real time    0.0002
    CHARGE:  cpu time    5.9501: real time    5.9457
    MIXING:  cpu time    0.9279: real time    0.9276
    --------------------------------------------
      LOOP:  cpu time  112.6259: real time  113.0898

 eigenvalue-minimisations  :   124
 total energy-change (2. order) :-0.5882517E-02  (-0.3175489E-03)
 number of electron      16.0000011 magnetization 
 augmentation part        0.4503707 magnetization 

 Broyden mixing:
  rms(total) = 0.46096E-02    rms(broyden)= 0.46047E-02
  rms(prec ) = 0.73793E-02
  weight for this iteration     100.00

 eigenvalues of (default mixing * dielectric matrix)
  average eigenvalue GAMMA=   1.7994
  3.8880  2.2170  1.9863  1.5661  0.9091  1.0148  1.0148

 Free energy of the ion-electron system (eV)
  ---------------------------------------------------
  alpha Z        PSCENC =         0.04144063
  Ewald energy   TEWEN  =       703.26058529
  -Hartree energ DENC   =     -1177.40503304
  -exchange      EXHF   =         0.00000000
  -V(xc)+E(xc)   XCENC  =        54.88110098
  PAW double counting   =      1332.30848558    -1335.17706839
  entropy T*S    EENTRO =         0.00000000
  eigenvalues    EBANDS =      -209.70080047
  atomic energy  EATOM  =       596.16534815
  Solvation  Ediel_sol  =         0.00000000
  ---------------------------------------------------
  free energy    TOTEN  =       -35.62594128 eV

  energy without entropy =      -35.62594128  energy(sigma->0) =      -35.62594128


--------------------------------------------------------------------------------------------------------




----------------------------------------- Iteration    1(  13)  ---------------------------------------


    POTLOK:  cpu time   23.7744: real time   23.7559
    SETDIJ:  cpu time    0.0080: real time    0.0083
     EDDAV:  cpu time   84.3892: real time   84.3191
       DOS:  cpu time    0.0000: real time    0.0002
    CHARGE:  cpu time    5.9331: real time    5.9300
    MIXING:  cpu time    1.0268: real time    1.0267
    --------------------------------------------
      LOOP:  cpu time  115.1345: real time  115.0437

 eigenvalue-minimisations  :   128
 total energy-change (2. order) :-0.6156951E-02  (-0.1684813E-03)
 number of electron      16.0000011 magnetization 
 augmentation part        0.4501877 magnetization 

 Broyden mixing:
  rms(total) = 0.29121E-02    rms(broyden)= 0.29097E-02
  rms(prec ) = 0.43687E-02
  weight for this iteration     100.00

 eigenvalues of (default mixing * dielectric matrix)
  average eigenvalue GAMMA=   1.8839
  4.8797  2.3998  1.7449  1.7449  1.4841  0.9176  0.9176  0.9830

 Free energy of the ion-electron system (eV)
  ---------------------------------------------------
  alpha Z        PSCENC =         0.04144063
  Ewald energy   TEWEN  =       703.26058529
  -Hartree energ DENC   =     -1178.01363936
  -exchange      EXHF   =         0.00000000
  -V(xc)+E(xc)   XCENC  =        54.88808896
  PAW double counting   =      1331.42094610    -1334.29013316
  entropy T*S    EENTRO =         0.00000000
  eigenvalues    EBANDS =      -209.10473484
  atomic energy  EATOM  =       596.16534815
  Solvation  Ediel_sol  =         0.00000000
  ---------------------------------------------------
  free energy    TOTEN  =       -35.63209824 eV

  energy without entropy =      -35.63209824  energy(sigma->0) =      -35.63209824


--------------------------------------------------------------------------------------------------------




----------------------------------------- Iteration    1(  14)  ---------------------------------------


    POTLOK:  cpu time   23.6664: real time   23.6471
    SETDIJ:  cpu time    0.0080: real time    0.0083
     EDDAV:  cpu time   84.8561: real time   84.7870
       DOS:  cpu time    0.0000: real time    0.0002
    CHARGE:  cpu time    5.9951: real time    5.9906
    MIXING:  cpu time    1.1218: real time    1.1203
    --------------------------------------------
      LOOP:  cpu time  115.6504: real time  115.5574

 eigenvalue-minimisations  :   128
 total energy-change (2. order) :-0.3782050E-02  (-0.4493242E-04)
 number of electron      16.0000011 magnetization 
 augmentation part        0.4502241 magnetization 

 Broyden mixing:
  rms(total) = 0.18801E-02    rms(broyden)= 0.18794E-02
  rms(prec ) = 0.27381E-02
  weight for this iteration     100.00

 eigenvalues of (default mixing * dielectric matrix)
  average eigenvalue GAMMA=   1.9695
  5.0960  2.5936  2.5386  1.9524  1.5604  1.1078  1.1078  0.8843  0.8843

 Free energy of the ion-electron system (eV)
  ---------------------------------------------------
  alpha Z        PSCENC =         0.04144063
  Ewald energy   TEWEN  =       703.26058529
  -Hartree energ DENC   =     -1178.18180011
  -exchange      EXHF   =         0.00000000
  -V(xc)+E(xc)   XCENC  =        54.88205160
  PAW double counting   =      1329.89016335    -1332.75921594
  entropy T*S    EENTRO =         0.00000000
  eigenvalues    EBANDS =      -208.93445325
  atomic energy  EATOM  =       596.16534815
  Solvation  Ediel_sol  =         0.00000000
  ---------------------------------------------------
  free energy    TOTEN  =       -35.63588029 eV

  energy without entropy =      -35.63588029  energy(sigma->0) =      -35.63588029


--------------------------------------------------------------------------------------------------------




----------------------------------------- Iteration    1(  15)  ---------------------------------------


    POTLOK:  cpu time   23.6424: real time   23.6235
    SETDIJ:  cpu time    0.0080: real time    0.0083
     EDDAV:  cpu time   84.9391: real time   84.8702
       DOS:  cpu time    0.0000: real time    0.0002
    CHARGE:  cpu time    5.9961: real time    5.9910
    MIXING:  cpu time    1.1598: real time    1.1582
    --------------------------------------------
      LOOP:  cpu time  115.7474: real time  115.6550

 eigenvalue-minimisations  :   128
 total energy-change (2. order) :-0.3330003E-02  (-0.3547836E-04)
 number of electron      16.0000011 magnetization 
 augmentation part        0.4502739 magnetization 

 Broyden mixing:
  rms(total) = 0.12757E-02    rms(broyden)= 0.12755E-02
  rms(prec ) = 0.16839E-02
  weight for this iteration     100.00

 eigenvalues of (default mixing * dielectric matrix)
  average eigenvalue GAMMA=   2.0806
  6.4272  3.4812  2.3636  1.6362  1.6362  1.5312  0.9162  0.9162  1.0139  0.8839

 Free energy of the ion-electron system (eV)
  ---------------------------------------------------
  alpha Z        PSCENC =         0.04144063
  Ewald energy   TEWEN  =       703.26058529
  -Hartree energ DENC   =     -1178.20941692
  -exchange      EXHF   =         0.00000000
  -V(xc)+E(xc)   XCENC  =        54.87581857
  PAW double counting   =      1330.77800609    -1333.64725814
  entropy T*S    EENTRO =         0.00000000
  eigenvalues    EBANDS =      -208.90373395
  atomic energy  EATOM  =       596.16534815
  Solvation  Ediel_sol  =         0.00000000
  ---------------------------------------------------
  free energy    TOTEN  =       -35.63921029 eV

  energy without entropy =      -35.63921029  energy(sigma->0) =      -35.63921029


--------------------------------------------------------------------------------------------------------




----------------------------------------- Iteration    1(  16)  ---------------------------------------


    POTLOK:  cpu time   24.0453: real time   24.0255
    SETDIJ:  cpu time    0.0090: real time    0.0087
     EDDAV:  cpu time   85.6490: real time   85.5794
       DOS:  cpu time    0.0000: real time    0.0002
    CHARGE:  cpu time    5.9901: real time    5.9847
    MIXING:  cpu time    1.3818: real time    1.3818
    --------------------------------------------
      LOOP:  cpu time  117.0762: real time  116.9837

 eigenvalue-minimisations  :   128
 total energy-change (2. order) :-0.1233190E-02  (-0.1149242E-04)
 number of electron      16.0000011 magnetization 
 augmentation part        0.4502425 magnetization 

 Broyden mixing:
  rms(total) = 0.68518E-03    rms(broyden)= 0.68493E-03
  rms(prec ) = 0.93607E-03
  weight for this iteration     100.00

 eigenvalues of (default mixing * dielectric matrix)
  average eigenvalue GAMMA=   2.1100
  7.0948  3.4155  2.1409  2.1409  1.6457  1.6457  1.3595  0.9946  0.9946  0.8887
  0.8887

 Free energy of the ion-electron system (eV)
  ---------------------------------------------------
  alpha Z        PSCENC =         0.04144063
  Ewald energy   TEWEN  =       703.26058529
  -Hartree energ DENC   =     -1178.24191001
  -exchange      EXHF   =         0.00000000
  -V(xc)+E(xc)   XCENC  =        54.87377584
  PAW double counting   =      1330.67307652    -1333.54240663
  entropy T*S    EENTRO =         0.00000000
  eigenvalues    EBANDS =      -208.87035325
  atomic energy  EATOM  =       596.16534815
  Solvation  Ediel_sol  =         0.00000000
  ---------------------------------------------------
  free energy    TOTEN  =       -35.64044348 eV

  energy without entropy =      -35.64044348  energy(sigma->0) =      -35.64044348


--------------------------------------------------------------------------------------------------------




----------------------------------------- Iteration    1(  17)  ---------------------------------------


    POTLOK:  cpu time   23.5654: real time   23.5458
    SETDIJ:  cpu time    0.0080: real time    0.0083
     EDDAV:  cpu time   68.6866: real time   68.6312
       DOS:  cpu time    0.0000: real time    0.0002
    CHARGE:  cpu time    6.0091: real time    6.0047
    MIXING:  cpu time    1.3318: real time    1.3315
    --------------------------------------------
      LOOP:  cpu time   99.6049: real time   99.5347

 eigenvalue-minimisations  :    96
 total energy-change (2. order) :-0.7563055E-03  (-0.2284715E-05)
 number of electron      16.0000011 magnetization 
 augmentation part        0.4502156 magnetization 

 Broyden mixing:
  rms(total) = 0.40723E-03    rms(broyden)= 0.40708E-03
  rms(prec ) = 0.55973E-03
  weight for this iteration     100.00

 eigenvalues of (default mixing * dielectric matrix)
  average eigenvalue GAMMA=   2.2469
  8.0665  4.2226  2.7196  2.3554  1.6136  1.6136  1.5609  1.0681  0.9885  0.9885
  0.8829  0.8829

 Free energy of the ion-electron system (eV)
  ---------------------------------------------------
  alpha Z        PSCENC =         0.04144063
  Ewald energy   TEWEN  =       703.26058529
  -Hartree energ DENC   =     -1178.25346402
  -exchange      EXHF   =         0.00000000
  -V(xc)+E(xc)   XCENC  =        54.87282435
  PAW double counting   =      1330.47181302    -1333.34091947
  entropy T*S    EENTRO =         0.00000000
  eigenvalues    EBANDS =      -208.85882773
  atomic energy  EATOM  =       596.16534815
  Solvation  Ediel_sol  =         0.00000000
  ---------------------------------------------------
  free energy    TOTEN  =       -35.64119979 eV

  energy without entropy =      -35.64119979  energy(sigma->0) =      -35.64119979


--------------------------------------------------------------------------------------------------------




----------------------------------------- Iteration    1(  18)  ---------------------------------------


    POTLOK:  cpu time   24.1233: real time   24.1033
    SETDIJ:  cpu time    0.0080: real time    0.0086
     EDDAV:  cpu time   53.2719: real time   53.2288
       DOS:  cpu time    0.0000: real time    0.0002
    CHARGE:  cpu time    5.8651: real time    5.8604
    MIXING:  cpu time    1.3738: real time    1.3728
    --------------------------------------------
      LOOP:  cpu time   84.6441: real time   84.5782

 eigenvalue-minimisations  :    68
 total energy-change (2. order) :-0.4559857E-03  (-0.3161380E-05)
 number of electron      16.0000011 magnetization 
 augmentation part        0.4502168 magnetization 

 Broyden mixing:
  rms(total) = 0.27125E-03    rms(broyden)= 0.27119E-03
  rms(prec ) = 0.33767E-03
  weight for this iteration     100.00

 eigenvalues of (default mixing * dielectric matrix)
  average eigenvalue GAMMA=   2.3176
  8.3454  4.6712  2.6222  2.4672  2.4672  1.6433  1.6433  1.4929  1.0010  1.0010
  0.8911  0.8911  0.9919

 Free energy of the ion-electron system (eV)
  ---------------------------------------------------
  alpha Z        PSCENC =         0.04144063
  Ewald energy   TEWEN  =       703.26058529
  -Hartree energ DENC   =     -1178.24677347
  -exchange      EXHF   =         0.00000000
  -V(xc)+E(xc)   XCENC  =        54.87194712
  PAW double counting   =      1330.70818913    -1333.57727207
  entropy T*S    EENTRO =         0.00000000
  eigenvalues    EBANDS =      -208.86512053
  atomic energy  EATOM  =       596.16534815
  Solvation  Ediel_sol  =         0.00000000
  ---------------------------------------------------
  free energy    TOTEN  =       -35.64165577 eV

  energy without entropy =      -35.64165577  energy(sigma->0) =      -35.64165577


--------------------------------------------------------------------------------------------------------




----------------------------------------- Iteration    1(  19)  ---------------------------------------


    POTLOK:  cpu time   24.0803: real time   24.0612
    SETDIJ:  cpu time    0.0080: real time    0.0086
     EDDAV:  cpu time   63.3294: real time   63.2767
       DOS:  cpu time    0.0000: real time    0.0002
    CHARGE:  cpu time    5.9361: real time    5.9312
    MIXING:  cpu time    1.5238: real time    1.5218
    --------------------------------------------
      LOOP:  cpu time   94.8796: real time   94.8033

 eigenvalue-minimisations  :    88
 total energy-change (2. order) :-0.2255588E-03  (-0.1042796E-05)
 number of electron      16.0000011 magnetization 
 augmentation part        0.4502301 magnetization 

 Broyden mixing:
  rms(total) = 0.24624E-03    rms(broyden)= 0.24616E-03
  rms(prec ) = 0.27108E-03
  weight for this iteration     100.00

 eigenvalues of (default mixing * dielectric matrix)
  average eigenvalue GAMMA=   2.3294
  8.6562  5.3269  3.2314  2.6109  2.1053  1.7158  1.6101  1.6101  1.0221  1.0221
  1.0798  0.8779  0.8779  0.8646

 Free energy of the ion-electron system (eV)
  ---------------------------------------------------
  alpha Z        PSCENC =         0.04144063
  Ewald energy   TEWEN  =       703.26058529
  -Hartree energ DENC   =     -1178.23971416
  -exchange      EXHF   =         0.00000000
  -V(xc)+E(xc)   XCENC  =        54.87145452
  PAW double counting   =      1330.70458857    -1333.57378296
  entropy T*S    EENTRO =         0.00000000
  eigenvalues    EBANDS =      -208.87180136
  atomic energy  EATOM  =       596.16534815
  Solvation  Ediel_sol  =         0.00000000
  ---------------------------------------------------
  free energy    TOTEN  =       -35.64188133 eV

  energy without entropy =      -35.64188133  energy(sigma->0) =      -35.64188133


--------------------------------------------------------------------------------------------------------




----------------------------------------- Iteration    1(  20)  ---------------------------------------


    POTLOK:  cpu time   23.4314: real time   23.4125
    SETDIJ:  cpu time    0.0080: real time    0.0083
     EDDAV:  cpu time   61.0807: real time   61.0296
       DOS:  cpu time    0.0000: real time    0.0002
    --------------------------------------------
      LOOP:  cpu time   84.5202: real time   84.4536

 eigenvalue-minimisations  :    88
 total energy-change (2. order) :-0.5537380E-04  (-0.3061313E-06)
 number of electron      16.0000011 magnetization 
 augmentation part        0.4502301 magnetization 

 Free energy of the ion-electron system (eV)
  ---------------------------------------------------
  alpha Z        PSCENC =         0.04144063
  Ewald energy   TEWEN  =       703.26058529
  -Hartree energ DENC   =     -1178.24023611
  -exchange      EXHF   =         0.00000000
  -V(xc)+E(xc)   XCENC  =        54.87131591
  PAW double counting   =      1330.58921056    -1333.45836226
  entropy T*S    EENTRO =         0.00000000
  eigenvalues    EBANDS =      -208.87123888
  atomic energy  EATOM  =       596.16534815
  Solvation  Ediel_sol  =         0.00000000
  ---------------------------------------------------
  free energy    TOTEN  =       -35.64193670 eV

  energy without entropy =      -35.64193670  energy(sigma->0) =      -35.64193670


--------------------------------------------------------------------------------------------------------




 average (electrostatic) potential at core
  the test charge radii are     0.5201  0.6991  0.7089
  (the norm of the test charge is              1.0000)
       1 -43.0855       2 -43.0869       3 -43.0833       4 -60.5366       5 -59.3357
       6 -74.8300
 
 
 
 E-fermi :  -6.1921     XC(G=0):  -0.0949     alpha+bet : -0.0137


 k-point     1 :       0.2500    0.2500    0.2500
  band No.  band energies     occupation 
      1     -23.8974      2.00000
      2     -19.3042      2.00000
      3     -13.8640      2.00000
      4     -11.8144      2.00000
      5     -11.8042      2.00000
      6      -8.3112      2.00000
      7      -8.3061      2.00000
      8      -7.1339      2.00000
      9      -0.7652      0.00000
     10      -0.6498      0.00000
     11      -0.6463      0.00000
     12      -0.0132      0.00000

 k-point     2 :      -0.2500    0.2500    0.2500
  band No.  band energies     occupation 
      1     -23.8974      2.00000
      2     -19.3042      2.00000
      3     -13.8640      2.00000
      4     -11.8144      2.00000
      5     -11.8042      2.00000
      6      -8.3112      2.00000
      7      -8.3061      2.00000
      8      -7.1339      2.00000
      9      -0.7652      0.00000
     10      -0.6498      0.00000
     11      -0.6463      0.00000
     12      -0.0130      0.00000

 k-point     3 :       0.2500   -0.2500    0.2500
  band No.  band energies     occupation 
      1     -23.8974      2.00000
      2     -19.3042      2.00000
      3     -13.8640      2.00000
      4     -11.8144      2.00000
      5     -11.8042      2.00000
      6      -8.3113      2.00000
      7      -8.3061      2.00000
      8      -7.1339      2.00000
      9      -0.7652      0.00000
     10      -0.6498      0.00000
     11      -0.6462      0.00000
     12      -0.0132      0.00000

 k-point     4 :      -0.2500   -0.2500    0.2500
  band No.  band energies     occupation 
      1     -23.8974      2.00000
      2     -19.3042      2.00000
      3     -13.8640      2.00000
      4     -11.8144      2.00000
      5     -11.8042      2.00000
      6      -8.3112      2.00000
      7      -8.3062      2.00000
      8      -7.1339      2.00000
      9      -0.7652      0.00000
     10      -0.6498      0.00000
     11      -0.6462      0.00000
     12      -0.0132      0.00000


--------------------------------------------------------------------------------------------------------


 soft charge-density along one line, spin component           1
         0         1         2         3         4         5         6         7         8         9
 total charge-density along one line
 
 pseudopotential strength for first ion, spin component:           1
 -2.363  -4.075  -0.001   0.000  -0.001
 -4.075  -6.943  -0.004   0.001  -0.003
 -0.001  -0.004  -0.331  -0.001   0.002
  0.000   0.001  -0.001  -0.334  -0.001
 -0.001  -0.003   0.002  -0.001  -0.332
 total augmentation occupancy for first ion, spin component:           1
  3.521  -0.634   0.348  -0.087   0.263
 -0.634   0.131  -0.065   0.016  -0.048
  0.348  -0.065   0.037  -0.007   0.023
 -0.087   0.016  -0.007   0.011  -0.005
  0.263  -0.048   0.023  -0.005   0.023


------------------------ aborting loop because EDIFF is reached ----------------------------------------


    CHARGE:  cpu time    5.6661: real time    5.6608
    FORLOC:  cpu time    2.9156: real time    2.9126
    FORNL :  cpu time   18.2602: real time   18.2455
    STRESS:  cpu time   56.5384: real time   56.4917
    FORCOR:  cpu time   24.6523: real time   24.6321
    FORHAR:  cpu time    8.3227: real time    8.3151
    MIXING:  cpu time    1.3368: real time    1.3364
    OFIELD:  cpu time    0.0010: real time    0.0000

  FORCE on cell =-STRESS in cart. coord.  units (eV):
  Direction    XX          YY          ZZ          XY          YZ          ZX
  --------------------------------------------------------------------------------------
  Alpha Z     0.04144     0.04144     0.04144
  Ewald     561.12483    96.90937    45.22609  -172.40079    17.79995   -54.08616
  Hartree   564.53243   320.32549   293.38663   -89.76158     9.09748   -27.74799
  E(xc)     -58.93225   -60.06473   -60.19287    -0.42729     0.04575    -0.13787
  Local   -1268.01882  -588.52539  -513.19094   251.19915   -25.71351    78.27923
  n-local   -26.43214   -24.65418   -24.42754     0.72946    -0.09054     0.27540
  augment     0.50986     0.94332     0.99197     0.16064    -0.01663     0.05030
  Kinetic   226.56132   254.03397   257.14537    10.38613    -1.12425     3.37155
  Fock        0.00000     0.00000     0.00000     0.00000     0.00000     0.00000
  -------------------------------------------------------------------------------------
  Total      -0.61333    -0.99071    -1.01985    -0.11428    -0.00174     0.00446
  in kB      -0.03639    -0.05879    -0.06052    -0.00678    -0.00010     0.00026
  external pressure =       -0.05 kB  Pullay stress =        0.00 kB


 VOLUME and BASIS-vectors are now :
 -----------------------------------------------------------------------------
  energy-cutoff  :      400.00
  volume of cell :    27000.00
      direct lattice vectors                 reciprocal lattice vectors
    30.000000000  0.000000000  0.000000000     0.033333333  0.000000000  0.000000000
     0.000000000 30.000000000  0.000000000     0.000000000  0.033333333  0.000000000
     0.000000000  0.000000000 30.000000000     0.000000000  0.000000000  0.033333333

  length of vectors
    30.000000000 30.000000000 30.000000000     0.033333333  0.033333333  0.033333333


 FORCES acting on ions
    electron-ion (+dipol)            ewald-force                    non-local-force                 convergence-correction
 -----------------------------------------------------------------------------------------------
   0.489E+02 0.439E+02 -.133E+02   -.523E+02 -.484E+02 0.144E+02   0.337E+01 0.444E+01 -.111E+01   0.391E-04 0.283E-03 -.445E-04
   0.309E+02 -.304E+02 0.512E+02   -.326E+02 0.329E+02 -.560E+02   0.170E+01 -.244E+01 0.485E+01   -.473E-04 -.880E-04 0.276E-03
   0.176E+02 -.447E+02 -.467E+02   -.181E+02 0.485E+02 0.509E+02   0.497E+00 -.377E+01 -.422E+01   -.108E-03 -.166E-03 -.217E-03
   0.115E+03 -.375E+02 -.114E+02   -.122E+03 0.398E+02 0.121E+02   0.724E+01 -.233E+01 -.677E+00   -.152E-02 0.490E-03 0.171E-03
   -.218E+03 0.735E+02 0.240E+02   0.243E+03 -.821E+02 -.268E+02   -.250E+02 0.855E+01 0.287E+01   0.172E-02 -.587E-03 -.216E-03
   0.146E+02 -.794E+01 -.481E+01   -.175E+02 0.927E+01 0.548E+01   0.283E+01 -.130E+01 -.655E+00   -.170E-02 0.579E-03 0.175E-03
 -----------------------------------------------------------------------------------------------
   0.935E+01 -.316E+01 -.105E+01   0.000E+00 -.711E-14 0.355E-14   -.936E+01 0.316E+01 0.106E+01   -.162E-02 0.512E-03 0.144E-03
 
 
 POSITION                                       TOTAL-FORCE (eV/Angst)
 -----------------------------------------------------------------------------------
     13.89748     14.28869     15.26231        -0.031766      0.017829     -0.000882
     14.22051     15.62085     14.10797        -0.047188      0.011994      0.006099
     14.45519     15.88058     15.86496         0.004503     -0.005863     -0.008244
     14.54347     15.15128     15.04727         0.055025     -0.024834     -0.016779
     16.99690     14.34105     14.79607         0.153390     -0.035375     -0.002427
     15.88698     14.71860     14.92125        -0.133964      0.036249      0.022232
 -----------------------------------------------------------------------------------
    total drift:                               -0.007961      0.006126      0.005636


--------------------------------------------------------------------------------------------------------



  FREE ENERGIE OF THE ION-ELECTRON SYSTEM (eV)
  ---------------------------------------------------
  free  energy   TOTEN  =       -35.64193670 eV

  energy  without entropy=      -35.64193670  energy(sigma->0) =      -35.64193670
 


--------------------------------------------------------------------------------------------------------


    POTLOK:  cpu time   21.4257: real time   21.4088


--------------------------------------------------------------------------------------------------------


 NEB: the previous image is higher in energy: F
 NEB: the next image is higher in energy    : T
 NEB: only next energy greater

 NEB: Tangent
 ----------------------------------------------
      0.20774      0.00029      0.47513
     -0.24569     -0.21593      0.20147
      0.15260      0.13394      0.02348
      0.03924     -0.00630      0.15779
     -0.14880      0.02540     -0.67463
     -0.00565      0.06166     -0.18306

 NEB: forces: par spring, perp REAL, dneb     0.097104    0.227819    0.000000
 NEB: distance to prev, next image, angle between     0.725013    0.705592  120.983187
 NEB: projections on to tangent (spring, REAL)    -0.097104   -0.020567

 stress matrix after NEB project (eV)
     -0.61333     -0.11428      0.00446
     -0.11428     -0.99071     -0.00174
      0.00446     -0.00174     -1.01985
  FORCES: max atom, RMS     0.175972    0.101103
  FORCE total and by dimension    0.247650    0.164779
  Stress total and by dimension    1.556902    1.019852
 
 OPT: Flag T
 OPT: FIRE Step
 OPT: FIRE, TIMESTEP      0.10000
 OPT: FIRE, alpha         0.10000


--------------------------------------------------------------------------------------------------------


    WAVPRE:  cpu time    9.8675: real time    9.8591
 FEWALD executed in parallel
    FEWALD:  cpu time    0.0000: real time    0.0004
    ORTHCH:  cpu time    6.9169: real time    6.9121
     LOOP+:  cpu time 2410.8905: real time 2409.5459


----------------------------------------- Iteration    2(   1)  ---------------------------------------


    POTLOK:  cpu time   28.3017: real time   28.2796
    SETDIJ:  cpu time    0.0090: real time    0.0084
     EDDAV:  cpu time   75.7845: real time   75.7228
       DOS:  cpu time    0.0000: real time    0.0002
    CHARGE:  cpu time    5.9601: real time    5.9561
    MIXING:  cpu time    0.6569: real time    0.6555
    --------------------------------------------
      LOOP:  cpu time  110.7152: real time  110.6253

 eigenvalue-minimisations  :   108
 total energy-change (2. order) :-0.1710265E-03  (-0.2258587E-02)
 number of electron      16.0000010 magnetization 
 augmentation part        0.4494902 magnetization 

 Broyden mixing:
  rms(total) = 0.72777E-02    rms(broyden)= 0.72646E-02
  rms(prec ) = 0.74394E-02
  weight for this iteration     100.00

 Free energy of the ion-electron system (eV)
  ---------------------------------------------------
  alpha Z        PSCENC =         0.04144063
  Ewald energy   TEWEN  =       702.87034860
  -Hartree energ DENC   =     -1178.03810936
  -exchange      EXHF   =         0.00000000
  -V(xc)+E(xc)   XCENC  =        54.86334967
  PAW double counting   =      1330.62225220    -1333.49140113
  entropy T*S    EENTRO =         0.00000000
  eigenvalues    EBANDS =      -208.67528112
  atomic energy  EATOM  =       596.16534815
  Solvation  Ediel_sol  =         0.00000000
  ---------------------------------------------------
  free energy    TOTEN  =       -35.64205236 eV

  energy without entropy =      -35.64205236  energy(sigma->0) =      -35.64205236


--------------------------------------------------------------------------------------------------------




----------------------------------------- Iteration    2(   2)  ---------------------------------------


    POTLOK:  cpu time   24.4533: real time   24.4346
    SETDIJ:  cpu time    0.0080: real time    0.0082
     EDDAV:  cpu time   85.6190: real time   85.5488
       DOS:  cpu time    0.0000: real time    0.0002
    CHARGE:  cpu time    5.9221: real time    5.9173
    MIXING:  cpu time    0.7069: real time    0.7055
    --------------------------------------------
      LOOP:  cpu time  116.7113: real time  116.6182

 eigenvalue-minimisations  :   128
 total energy-change (2. order) : 0.3798822E-04  (-0.6185662E-04)
 number of electron      16.0000010 magnetization 
 augmentation part        0.4491732 magnetization 

 Broyden mixing:
  rms(total) = 0.35296E-02    rms(broyden)= 0.35272E-02
  rms(prec ) = 0.36244E-02
  weight for this iteration     100.00

 eigenvalues of (default mixing * dielectric matrix)
  average eigenvalue GAMMA=   1.0402
  1.0402

 Free energy of the ion-electron system (eV)
  ---------------------------------------------------
  alpha Z        PSCENC =         0.04144063
  Ewald energy   TEWEN  =       702.87034860
  -Hartree energ DENC   =     -1178.00296118
  -exchange      EXHF   =         0.00000000
  -V(xc)+E(xc)   XCENC  =        54.86029815
  PAW double counting   =      1329.26367891    -1332.13161475
  entropy T*S    EENTRO =         0.00000000
  eigenvalues    EBANDS =      -208.70855287
  atomic energy  EATOM  =       596.16534815
  Solvation  Ediel_sol  =         0.00000000
  ---------------------------------------------------
  free energy    TOTEN  =       -35.64201437 eV

  energy without entropy =      -35.64201437  energy(sigma->0) =      -35.64201437


--------------------------------------------------------------------------------------------------------




----------------------------------------- Iteration    2(   3)  ---------------------------------------


    POTLOK:  cpu time   24.1903: real time   24.1706
    SETDIJ:  cpu time    0.0080: real time    0.0084
     EDDAV:  cpu time   68.7985: real time   68.7418
       DOS:  cpu time    0.0000: real time    0.0002
    CHARGE:  cpu time    5.8851: real time    5.8806
    MIXING:  cpu time    0.7149: real time    0.7142
    --------------------------------------------
      LOOP:  cpu time   99.5979: real time   99.5199

 eigenvalue-minimisations  :    96
 total energy-change (2. order) : 0.1715779E-04  (-0.8006674E-05)
 number of electron      16.0000010 magnetization 
 augmentation part        0.4492729 magnetization 

 Broyden mixing:
  rms(total) = 0.17397E-02    rms(broyden)= 0.17394E-02
  rms(prec ) = 0.17727E-02
  weight for this iteration     100.00

 eigenvalues of (default mixing * dielectric matrix)
  average eigenvalue GAMMA=   1.3960
  0.9379  1.8542

 Free energy of the ion-electron system (eV)
  ---------------------------------------------------
  alpha Z        PSCENC =         0.04144063
  Ewald energy   TEWEN  =       702.87034860
  -Hartree energ DENC   =     -1177.94455165
  -exchange      EXHF   =         0.00000000
  -V(xc)+E(xc)   XCENC  =        54.85719199
  PAW double counting   =      1328.43902123    -1331.30603427
  entropy T*S    EENTRO =         0.00000000
  eigenvalues    EBANDS =      -208.76476189
  atomic energy  EATOM  =       596.16534815
  Solvation  Ediel_sol  =         0.00000000
  ---------------------------------------------------
  free energy    TOTEN  =       -35.64199721 eV

  energy without entropy =      -35.64199721  energy(sigma->0) =      -35.64199721


--------------------------------------------------------------------------------------------------------




----------------------------------------- Iteration    2(   4)  ---------------------------------------


    POTLOK:  cpu time   23.6654: real time   23.6461
    SETDIJ:  cpu time    0.0080: real time    0.0084
     EDDAV:  cpu time   51.4912: real time   51.4494
[...]
  ---------------------------------------------------
  free energy    TOTEN  =       -35.64342703 eV

  energy without entropy =      -35.64342703  energy(sigma->0) =      -35.64342703


--------------------------------------------------------------------------------------------------------




----------------------------------------- Iteration  135(   2)  ---------------------------------------


    POTLOK:  cpu time   29.5425: real time   29.5197
    SETDIJ:  cpu time    0.0090: real time    0.0084
     EDDAV:  cpu time   46.7819: real time   46.7446
       DOS:  cpu time    0.0000: real time    0.0002
    CHARGE:  cpu time    6.6850: real time    6.6793
    MIXING:  cpu time    0.7319: real time    0.7317
    --------------------------------------------
      LOOP:  cpu time   83.7523: real time   83.6870

 eigenvalue-minimisations  :    48
 total energy-change (2. order) :-0.3688481E-06  (-0.4718029E-06)
 number of electron      16.0000010 magnetization 
 augmentation part        0.4498003 magnetization 

 Broyden mixing:
  rms(total) = 0.14155E-03    rms(broyden)= 0.14144E-03
  rms(prec ) = 0.14424E-03
  weight for this iteration     100.00

 eigenvalues of (default mixing * dielectric matrix)
  average eigenvalue GAMMA=   1.1035
  1.1035

 Free energy of the ion-electron system (eV)
  ---------------------------------------------------
  alpha Z        PSCENC =         0.04144063
  Ewald energy   TEWEN  =       702.77691652
  -Hartree energ DENC   =     -1177.78864496
  -exchange      EXHF   =         0.00000000
  -V(xc)+E(xc)   XCENC  =        54.86018895
  PAW double counting   =      1328.52666610    -1331.39436442
  entropy T*S    EENTRO =         0.00000000
  eigenvalues    EBANDS =      -208.83097837
  atomic energy  EATOM  =       596.16534815
  Solvation  Ediel_sol  =         0.00000000
  ---------------------------------------------------
  free energy    TOTEN  =       -35.64342740 eV

  energy without entropy =      -35.64342740  energy(sigma->0) =      -35.64342740


--------------------------------------------------------------------------------------------------------




----------------------------------------- Iteration  135(   3)  ---------------------------------------


    POTLOK:  cpu time   27.1809: real time   27.1588
    SETDIJ:  cpu time    0.0090: real time    0.0087
     EDDAV:  cpu time   45.4581: real time   45.4211
       DOS:  cpu time    0.0000: real time    0.0002
    CHARGE:  cpu time    6.6150: real time    6.6097
    MIXING:  cpu time    0.7659: real time    0.7654
    --------------------------------------------
      LOOP:  cpu time   80.0298: real time   79.9674

 eigenvalue-minimisations  :    48
 total energy-change (2. order) :-0.4694903E-07  (-0.5854488E-07)
 number of electron      16.0000010 magnetization 
 augmentation part        0.4498010 magnetization 

 Broyden mixing:
  rms(total) = 0.93812E-04    rms(broyden)= 0.93788E-04
  rms(prec ) = 0.95669E-04
  weight for this iteration     100.00

 eigenvalues of (default mixing * dielectric matrix)
  average eigenvalue GAMMA=   1.5666
  1.0930  2.0402

 Free energy of the ion-electron system (eV)
  ---------------------------------------------------
  alpha Z        PSCENC =         0.04144063
  Ewald energy   TEWEN  =       702.77691652
  -Hartree energ DENC   =     -1177.78975226
  -exchange      EXHF   =         0.00000000
  -V(xc)+E(xc)   XCENC  =        54.86025278
  PAW double counting   =      1328.54529195    -1331.41301200
  entropy T*S    EENTRO =         0.00000000
  eigenvalues    EBANDS =      -208.82991321
  atomic energy  EATOM  =       596.16534815
  Solvation  Ediel_sol  =         0.00000000
  ---------------------------------------------------
  free energy    TOTEN  =       -35.64342744 eV

  energy without entropy =      -35.64342744  energy(sigma->0) =      -35.64342744


--------------------------------------------------------------------------------------------------------




----------------------------------------- Iteration  135(   4)  ---------------------------------------


    POTLOK:  cpu time   28.1707: real time   28.1479
    SETDIJ:  cpu time    0.0090: real time    0.0088
     EDDAV:  cpu time   45.6121: real time   45.5743
       DOS:  cpu time    0.0000: real time    0.0002
    CHARGE:  cpu time    6.3680: real time    6.3635
    MIXING:  cpu time    0.7659: real time    0.7652
    --------------------------------------------
      LOOP:  cpu time   80.9267: real time   80.8629

 eigenvalue-minimisations  :    48
 total energy-change (2. order) :-0.1779154E-07  (-0.1862225E-07)
 number of electron      16.0000010 magnetization 
 augmentation part        0.4497992 magnetization 

 Broyden mixing:
  rms(total) = 0.25716E-04    rms(broyden)= 0.25700E-04
  rms(prec ) = 0.26173E-04
  weight for this iteration     100.00

 eigenvalues of (default mixing * dielectric matrix)
  average eigenvalue GAMMA=   1.4731
  2.1232  0.9427  1.3534

 Free energy of the ion-electron system (eV)
  ---------------------------------------------------
  alpha Z        PSCENC =         0.04144063
  Ewald energy   TEWEN  =       702.77691652
  -Hartree energ DENC   =     -1177.79099104
  -exchange      EXHF   =         0.00000000
  -V(xc)+E(xc)   XCENC  =        54.86031806
  PAW double counting   =      1328.57491889    -1331.44265831
  entropy T*S    EENTRO =         0.00000000
  eigenvalues    EBANDS =      -208.82872037
  atomic energy  EATOM  =       596.16534815
  Solvation  Ediel_sol  =         0.00000000
  ---------------------------------------------------
  free energy    TOTEN  =       -35.64342746 eV

  energy without entropy =      -35.64342746  energy(sigma->0) =      -35.64342746


--------------------------------------------------------------------------------------------------------




----------------------------------------- Iteration  135(   5)  ---------------------------------------


    POTLOK:  cpu time   28.1497: real time   28.1265
    SETDIJ:  cpu time    0.0080: real time    0.0083
     EDDAV:  cpu time   44.9912: real time   44.9550
       DOS:  cpu time    0.0000: real time    0.0002
    CHARGE:  cpu time    6.4480: real time    6.4426
    MIXING:  cpu time    0.8129: real time    0.8122
    --------------------------------------------
      LOOP:  cpu time   80.4118: real time   80.3488

 eigenvalue-minimisations  :    48
 total energy-change (2. order) :-0.8991492E-08  (-0.7615823E-08)
 number of electron      16.0000010 magnetization 
 augmentation part        0.4497988 magnetization 

 Broyden mixing:
  rms(total) = 0.22096E-04    rms(broyden)= 0.22086E-04
  rms(prec ) = 0.22530E-04
  weight for this iteration     100.00

 eigenvalues of (default mixing * dielectric matrix)
  average eigenvalue GAMMA=   1.4185
  1.9539  1.9539  1.0776  0.6889

 Free energy of the ion-electron system (eV)
  ---------------------------------------------------
  alpha Z        PSCENC =         0.04144063
  Ewald energy   TEWEN  =       702.77691652
  -Hartree energ DENC   =     -1177.79095604
  -exchange      EXHF   =         0.00000000
  -V(xc)+E(xc)   XCENC  =        54.86031568
  PAW double counting   =      1328.58162422    -1331.44936220
  entropy T*S    EENTRO =         0.00000000
  eigenvalues    EBANDS =      -208.82875443
  atomic energy  EATOM  =       596.16534815
  Solvation  Ediel_sol  =         0.00000000
  ---------------------------------------------------
  free energy    TOTEN  =       -35.64342747 eV

  energy without entropy =      -35.64342747  energy(sigma->0) =      -35.64342747


--------------------------------------------------------------------------------------------------------




----------------------------------------- Iteration  135(   6)  ---------------------------------------


    POTLOK:  cpu time   27.4558: real time   27.4337
    SETDIJ:  cpu time    0.0080: real time    0.0085
     EDDAV:  cpu time   43.9643: real time   43.9280
       DOS:  cpu time    0.0000: real time    0.0002
    --------------------------------------------
      LOOP:  cpu time   71.4291: real time   71.3737

 eigenvalue-minimisations  :    48
 total energy-change (2. order) :-0.6246864E-08  (-0.3417188E-08)
 number of electron      16.0000010 magnetization 
 augmentation part        0.4497988 magnetization 

 Free energy of the ion-electron system (eV)
  ---------------------------------------------------
  alpha Z        PSCENC =         0.04144063
  Ewald energy   TEWEN  =       702.77691652
  -Hartree energ DENC   =     -1177.79082480
  -exchange      EXHF   =         0.00000000
  -V(xc)+E(xc)   XCENC  =        54.86030692
  PAW double counting   =      1328.58384951    -1331.45158480
  entropy T*S    EENTRO =         0.00000000
  eigenvalues    EBANDS =      -208.82887959
  atomic energy  EATOM  =       596.16534815
  Solvation  Ediel_sol  =         0.00000000
  ---------------------------------------------------
  free energy    TOTEN  =       -35.64342748 eV

  energy without entropy =      -35.64342748  energy(sigma->0) =      -35.64342748


--------------------------------------------------------------------------------------------------------




 average (electrostatic) potential at core
  the test charge radii are     0.5201  0.6991  0.7089
  (the norm of the test charge is              1.0000)
       1 -43.0794       2 -43.0794       3 -43.0792       4 -60.5352       5 -59.3462
       6 -74.8316
 
 
 
 E-fermi :  -6.1634     XC(G=0):  -0.0614     alpha+bet : -0.0137


 k-point     1 :       0.2500    0.2500    0.2500
  band No.  band energies     occupation 
      1     -23.8892      2.00000
      2     -19.2985      2.00000
      3     -13.8826      2.00000
      4     -11.7983      2.00000
      5     -11.7960      2.00000
      6      -8.3034      2.00000
      7      -8.3032      2.00000
      8      -7.1432      2.00000
      9      -0.7635      0.00000
     10      -0.6625      0.00000
     11      -0.6617      0.00000
     12       0.0241      0.00000

 k-point     2 :      -0.2500    0.2500    0.2500
  band No.  band energies     occupation 
      1     -23.8892      2.00000
      2     -19.2985      2.00000
      3     -13.8826      2.00000
      4     -11.7983      2.00000
      5     -11.7960      2.00000
      6      -8.3034      2.00000
      7      -8.3032      2.00000
      8      -7.1432      2.00000
      9      -0.7635      0.00000
     10      -0.6625      0.00000
     11      -0.6617      0.00000
     12       0.0240      0.00000

 k-point     3 :       0.2500   -0.2500    0.2500
  band No.  band energies     occupation 
      1     -23.8892      2.00000
      2     -19.2985      2.00000
      3     -13.8826      2.00000
      4     -11.7983      2.00000
      5     -11.7960      2.00000
      6      -8.3034      2.00000
      7      -8.3032      2.00000
      8      -7.1432      2.00000
      9      -0.7635      0.00000
     10      -0.6625      0.00000
     11      -0.6617      0.00000
     12       0.0240      0.00000

 k-point     4 :      -0.2500   -0.2500    0.2500
  band No.  band energies     occupation 
      1     -23.8892      2.00000
      2     -19.2985      2.00000
      3     -13.8826      2.00000
      4     -11.7983      2.00000
      5     -11.7960      2.00000
      6      -8.3034      2.00000
      7      -8.3032      2.00000
      8      -7.1432      2.00000
      9      -0.7635      0.00000
     10      -0.6625      0.00000
     11      -0.6617      0.00000
     12       0.0241      0.00000


--------------------------------------------------------------------------------------------------------


 soft charge-density along one line, spin component           1
         0         1         2         3         4         5         6         7         8         9
 total charge-density along one line
 
 pseudopotential strength for first ion, spin component:           1
 -2.363  -4.075  -0.001   0.000  -0.001
 -4.075  -6.942  -0.004   0.001  -0.003
 -0.001  -0.004  -0.331   0.000   0.002
  0.000   0.001   0.000  -0.334   0.000
 -0.001  -0.003   0.002   0.000  -0.332
 total augmentation occupancy for first ion, spin component:           1
  3.521  -0.634   0.352  -0.042   0.269
 -0.634   0.131  -0.065   0.008  -0.049
  0.352  -0.065   0.038  -0.004   0.024
 -0.042   0.008  -0.004   0.009  -0.003
  0.269  -0.049   0.024  -0.003   0.024


------------------------ aborting loop because EDIFF is reached ----------------------------------------


    CHARGE:  cpu time    6.4550: real time    6.4500
    FORLOC:  cpu time    2.8736: real time    2.8710
    FORNL :  cpu time   19.3991: real time   19.3848
    STRESS:  cpu time   59.3280: real time   59.2796
    FORCOR:  cpu time   24.4353: real time   24.4150
    FORHAR:  cpu time    8.2188: real time    8.2121
    MIXING:  cpu time    0.8509: real time    0.8501
    OFIELD:  cpu time    0.0000: real time    0.0000

  FORCE on cell =-STRESS in cart. coord.  units (eV):
  Direction    XX          YY          ZZ          XY          YZ          ZX
  --------------------------------------------------------------------------------------
  Alpha Z     0.04144     0.04144     0.04144
  Ewald     574.24125    89.14418    39.39118  -162.91220     2.40372    -7.81298
  Hartree   570.86890   316.54995   290.37210   -85.28074     1.24846    -4.06432
  E(xc)     -58.88283   -60.07542   -60.19673    -0.40054     0.00597    -0.01940
  Local   -1286.55930  -577.57637  -504.73566   237.98128    -3.49811    11.38028
  n-local   -26.50398   -24.56452   -24.37525     0.63375    -0.01044     0.03539
  augment     0.50054     0.95215     0.99644     0.15093    -0.00235     0.00733
  Kinetic   225.46430   254.54567   257.51329     9.76423    -0.14706     0.47234
  Fock        0.00000     0.00000     0.00000     0.00000     0.00000     0.00000
  -------------------------------------------------------------------------------------
  Total      -0.82969    -0.98292    -0.99320    -0.06328     0.00019    -0.00135
  in kB      -0.04923    -0.05833    -0.05894    -0.00376     0.00001    -0.00008
  external pressure =       -0.06 kB  Pullay stress =        0.00 kB


 VOLUME and BASIS-vectors are now :
 -----------------------------------------------------------------------------
  energy-cutoff  :      400.00
  volume of cell :    27000.00
      direct lattice vectors                 reciprocal lattice vectors
    30.000000000  0.000000000  0.000000000     0.033333333  0.000000000  0.000000000
     0.000000000 30.000000000  0.000000000     0.000000000  0.033333333  0.000000000
     0.000000000  0.000000000 30.000000000     0.000000000  0.000000000  0.033333333

  length of vectors
    30.000000000 30.000000000 30.000000000     0.033333333  0.033333333  0.033333333


 FORCES acting on ions
    electron-ion (+dipol)            ewald-force                    non-local-force                 convergence-correction
 -----------------------------------------------------------------------------------------------
   0.496E+02 0.447E+02 -.595E+01   -.530E+02 -.491E+02 0.649E+01   0.345E+01 0.448E+01 -.534E+00   -.260E-04 -.103E-04 0.921E-05
   0.264E+02 -.331E+02 0.519E+02   -.277E+02 0.358E+02 -.567E+02   0.130E+01 -.271E+01 0.482E+01   -.194E-04 0.106E-04 -.165E-04
   0.224E+02 -.418E+02 -.473E+02   -.233E+02 0.454E+02 0.517E+02   0.921E+00 -.352E+01 -.436E+01   -.137E-04 0.174E-04 0.124E-04
   0.116E+03 -.355E+02 -.167E+01   -.123E+03 0.377E+02 0.177E+01   0.724E+01 -.223E+01 -.103E+00   -.545E-04 0.209E-04 0.204E-04
   -.220E+03 0.671E+02 0.329E+01   0.246E+03 -.748E+02 -.368E+01   -.254E+02 0.771E+01 0.384E+00   -.525E-04 -.554E-04 -.136E-03
   0.159E+02 -.414E+01 -.367E+00   -.189E+02 0.498E+01 0.427E+00   0.298E+01 -.825E+00 -.584E-01   0.886E-04 -.967E-04 -.112E-03
 -----------------------------------------------------------------------------------------------
   0.955E+01 -.290E+01 -.140E+00   0.000E+00 0.711E-14 -.400E-14   -.956E+01 0.291E+01 0.143E+00   -.775E-04 -.114E-03 -.222E-03
 
 
 POSITION                                       TOTAL-FORCE (eV/Angst)
 -----------------------------------------------------------------------------------
     13.87915     14.26865     15.11027         0.004769     -0.002588     -0.000118
     14.29555     15.66487     14.07190        -0.001508      0.000484      0.001429
     14.36908     15.82097     15.85310        -0.002702      0.000205      0.000034
     14.53987     15.14092     15.00672         0.002826      0.000255     -0.000299
     17.02320     14.38149     14.97041         0.014204     -0.008851     -0.001562
     15.89380     14.72433     14.98741        -0.017589      0.010495      0.000516
 -----------------------------------------------------------------------------------
    total drift:                               -0.002849      0.008562      0.003086


--------------------------------------------------------------------------------------------------------



  FREE ENERGIE OF THE ION-ELECTRON SYSTEM (eV)
  ---------------------------------------------------
  free  energy   TOTEN  =       -35.64342748 eV

  energy  without entropy=      -35.64342748  energy(sigma->0) =      -35.64342748
 
 d Force =-0.8258361E-06[-0.118E-05,-0.468E-06]  d Energy =-0.7754226E-06-0.504E-07
 d Force =-0.5887471E-02[-0.589E-02,-0.589E-02]  d Ewald  =-0.5887471E-02 0.106E-10


--------------------------------------------------------------------------------------------------------


    POTLOK:  cpu time   23.6794: real time   23.6597


--------------------------------------------------------------------------------------------------------


 NEB: the previous image is higher in energy: T
 NEB: the next image is higher in energy    : T
 NEB: image is at an extrema
 NEB: diff energy (min, max):     0.000081    0.000249

 NEB: Tangent
 ----------------------------------------------
      0.00146      0.14990      0.51146
     -0.22731     -0.10560      0.13029
      0.35668      0.25156      0.00812
      0.02515      0.05661      0.12097
     -0.10936     -0.24951     -0.53194
     -0.04690     -0.10340     -0.23882

 NEB: forces: par spring, perp REAL, dneb     0.110627    0.027417    0.000000
 NEB: distance to prev, next image, angle between     0.601975    0.579850  111.559760
 NEB: projections on to tangent (spring, REAL)    -0.110627    0.000276

 stress matrix after NEB project (eV)
     -0.82969     -0.06328     -0.00135
     -0.06328     -0.98292      0.00019
     -0.00135      0.00019     -0.99320
  FORCES: max atom, RMS     0.065924    0.046529
  FORCE total and by dimension    0.113973    0.057431
  Stress total and by dimension    1.627570    0.993199
 OPT: skip step - force has converged


--------------------------------------------------------------------------------------------------------


  
 reached required accuracy - stopping structural energy minimisation
     LOOP+:  cpu time  680.9025: real time  680.3742
    4ORBIT:  cpu time    0.0000: real time    0.0000

 total amount of memory used by VASP on root node  3203891. kBytes
========================================================================

   base      :      30000. kBytes
   nonlr-proj:        695. kBytes
   fftplans  :     924480. kBytes
   grid      :    1872000. kBytes
   one-center:         18. kBytes
   wavefun   :     376698. kBytes
 
  
  
 General timing and accounting informations for this job:
 ========================================================
  
                  Total CPU time used (sec):    97109.961
                            User time (sec):    95595.153
                          System time (sec):     1514.804
                         Elapsed time (sec):    97129.293
  
                   Maximum memory used (kb):     4750508.
                   Average memory used (kb):           0.
  
                          Minor page faults:    114617091
                          Major page faults:            3
                 Voluntary context switches:        16130
