 vasp.5.4.1 24Jun15 (build Jan 13 2020 12:58:22) complex                        
  
 POSCAR found type information on POSCAR  H  C  N 
 02/POSCAR found :  3 types and       6 ions
 scaLAPACK will be used

 ----------------------------------------------------------------------------- 
|                                                                             |
|  ADVICE TO THIS USER RUNNING 'VASP/VAMP'   (HEAR YOUR MASTER'S VOICE ...):  |
|                                                                             |
|      You have a (more or less) 'small supercell' and for smaller cells      |
|      it is recommended  to use the reciprocal-space projection scheme!      |
|      The real space optimization is not  efficient for small cells and it   |
|      is also less accurate ...                                              |
|      Therefore set LREAL=.FALSE. in the  INCAR file                         |
|                                                                             |
 ----------------------------------------------------------------------------- 

 LDA part: xc-table for Pade appr. of Perdew
 POSCAR found type information on POSCAR  H  C  N 
 00/POSCAR found :  3 types and       6 ions
 POSCAR found type information on POSCAR  H  C  N 
 16/POSCAR found :  3 types and       6 ions
 Jacobian:    40.4401846379183     
 POSCAR, INCAR and KPOINTS ok, starting setup
 WARNING: small aliasing (wrap around) errors must be expected
 FFT: planning ...
 WAVECAR not read
 entering main loop
       N       E                     dE             d eps       ncg     rms          rms(c)
DAV:   1     0.114130819759E+03    0.11413E+03   -0.21358E+03   160   0.366E+02
DAV:   2    -0.118616808763E+01   -0.11532E+03   -0.11281E+03   192   0.109E+02
DAV:   3    -0.336690102650E+02   -0.32483E+02   -0.32370E+02   136   0.840E+01
DAV:   4    -0.389097732475E+02   -0.52408E+01   -0.51871E+01   128   0.310E+01
DAV:   5    -0.391051066346E+02   -0.19533E+00   -0.19257E+00   112   0.638E+00    0.104E+01
DAV:   6    -0.364113293119E+02    0.26938E+01   -0.43986E+00   116   0.147E+01    0.563E+00
DAV:   7    -0.357052259455E+02    0.70610E+00   -0.18903E+00   128   0.940E+00    0.223E+00
DAV:   8    -0.356370772193E+02    0.68149E-01   -0.13258E-01   128   0.278E+00    0.873E-01
DAV:   9    -0.356186296700E+02    0.18448E-01   -0.21287E-02   128   0.123E+00    0.215E-01
DAV:  10    -0.356183954469E+02    0.23422E-03   -0.42850E-03   128   0.504E-01    0.131E-01
DAV:  11    -0.356200587682E+02   -0.16633E-02   -0.16267E-03   128   0.329E-01    0.814E-02
DAV:  12    -0.356259412849E+02   -0.58825E-02   -0.31755E-03   124   0.429E-01    0.461E-02
DAV:  13    -0.356320982363E+02   -0.61570E-02   -0.16848E-03   128   0.254E-01    0.291E-02
DAV:  14    -0.356358802864E+02   -0.37821E-02   -0.44932E-04   128   0.117E-01    0.188E-02
DAV:  15    -0.356392102898E+02   -0.33300E-02   -0.35478E-04   128   0.890E-02    0.128E-02
DAV:  16    -0.356404434801E+02   -0.12332E-02   -0.11492E-04   128   0.557E-02    0.685E-03
DAV:  17    -0.356411997856E+02   -0.75631E-03   -0.22847E-05    96   0.358E-02    0.407E-03
DAV:  18    -0.356416557713E+02   -0.45599E-03   -0.31614E-05    68   0.258E-02    0.271E-03
DAV:  19    -0.356418813301E+02   -0.22556E-03   -0.10428E-05    88   0.211E-02    0.246E-03
DAV:  20    -0.356419367039E+02   -0.55374E-04   -0.30613E-06    88   0.118E-02
   1 F= -.35641937E+02 E0= -.35641937E+02  d E =-.356419E+02
damped:  g(F)=  0.000E+00 g(S)=  0.000E+00 dE (1.order)= 0.000E+00
 bond charge predicted
       N       E                     dE             d eps       ncg     rms          rms(c)
DAV:   1    -0.356420523566E+02   -0.17103E-03   -0.22586E-02   108   0.143E+00    0.728E-02
DAV:   2    -0.356420143683E+02    0.37988E-04   -0.61857E-04   128   0.220E-01    0.353E-02
DAV:   3    -0.356419972105E+02    0.17158E-04   -0.80067E-05    96   0.932E-02    0.174E-02
DAV:   4    -0.356420046011E+02   -0.73906E-05   -0.55095E-05    64   0.730E-02    0.592E-03
DAV:   5    -0.356420094000E+02   -0.47989E-05   -0.96996E-06    64   0.308E-02    0.293E-03
DAV:   6    -0.356420140642E+02   -0.46641E-05   -0.18382E-06    64   0.130E-02
   2 F= -.35642014E+02 E0= -.35642014E+02  d E =-.773603E-04
damped:  g(F)=  0.000E+00 g(S)=  0.000E+00 dE (1.order)= 0.000E+00
 bond charge predicted
       N       E                     dE             d eps       ncg     rms          rms(c)
DAV:   1    -0.356421800636E+02   -0.17066E-03   -0.24261E-03    96   0.470E-01    0.236E-02
DAV:   2    -0.356421772576E+02    0.28060E-05   -0.55204E-05    96   0.732E-02    0.112E-02
DAV:   3    -0.356421781661E+02   -0.90855E-06   -0.15317E-05    64   0.387E-02    0.489E-03
DAV:   4    -0.356421812151E+02   -0.30489E-05   -0.69508E-06    96   0.251E-02    0.176E-03
DAV:   5    -0.356421828039E+02   -0.15888E-05   -0.12923E-06    64   0.114E-02    0.957E-04
DAV:   6    -0.356421840043E+02   -0.12004E-05   -0.27121E-07    64   0.539E-03
   3 F= -.35642184E+02 E0= -.35642184E+02  d E =-.169940E-03
damped:  g(F)=  0.000E+00 g(S)=  0.000E+00 dE (1.order)= 0.000E+00
 bond charge predicted
       N       E                     dE             d eps       ncg     rms          rms(c)
DAV:   1    -0.356422378221E+02   -0.55018E-04   -0.50675E-03    96   0.681E-01    0.334E-02
DAV:   2    -0.356422271966E+02    0.10626E-04   -0.11663E-04    96   0.105E-01    0.159E-02
DAV:   3    -0.356422247383E+02    0.24583E-05   -0.31137E-05    96   0.548E-02    0.701E-03
DAV:   4    -0.356422257630E+02   -0.10248E-05   -0.13825E-05    96   0.354E-02    0.257E-03
DAV:   5    -0.356422260385E+02   -0.27546E-06   -0.25653E-06    96   0.160E-02    0.150E-03
DAV:   6    -0.356422261115E+02   -0.73025E-07   -0.59914E-07    64   0.786E-03
   4 F= -.35642226E+02 E0= -.35642226E+02  d E =-.421072E-04
damped:  g(F)=  0.000E+00 g(S)=  0.000E+00 dE (1.order)= 0.000E+00
 bond charge predicted
       N       E                     dE             d eps       ncg     rms          rms(c)
DAV:   1    -0.356422349472E+02   -0.89087E-05   -0.18458E-05    64   0.420E-02    0.185E-03
DAV:   2    -0.356422350805E+02   -0.13332E-06   -0.11730E-06    48   0.106E-02    0.107E-03
DAV:   3    -0.356422351479E+02   -0.67402E-07   -0.13405E-07    48   0.357E-03    0.685E-04
DAV:   4    -0.356422353125E+02   -0.16459E-06   -0.10381E-07    84   0.323E-03    0.242E-04
DAV:   5    -0.356422353762E+02   -0.63710E-07   -0.29699E-08    48   0.151E-03    0.184E-04
DAV:   6    -0.356422354680E+02   -0.91723E-07   -0.15675E-08    48   0.810E-04
   5 F= -.35642235E+02 E0= -.35642235E+02  d E =-.935645E-05
damped:  g(F)=  0.000E+00 g(S)=  0.000E+00 dE (1.order)= 0.000E+00
 bond charge predicted
       N       E                     dE             d eps       ncg     rms          rms(c)
DAV:   1    -0.356422488200E+02   -0.13444E-04   -0.66540E-05    48   0.794E-02    0.316E-03
DAV:   2    -0.356422490419E+02   -0.22190E-06   -0.39788E-06    96   0.199E-02    0.186E-03
DAV:   3    -0.356422490559E+02   -0.13977E-07   -0.46033E-07    48   0.655E-03    0.121E-03
DAV:   4    -0.356422491515E+02   -0.95550E-07   -0.30928E-07    96   0.576E-03    0.394E-04
DAV:   5    -0.356422491943E+02   -0.42817E-07   -0.86295E-08    48   0.274E-03    0.322E-04
DAV:   6    -0.356422492436E+02   -0.49336E-07   -0.30638E-08    48   0.134E-03
   6 F= -.35642249E+02 E0= -.35642249E+02  d E =-.137756E-04
damped:  g(F)=  0.000E+00 g(S)=  0.000E+00 dE (1.order)= 0.000E+00
 bond charge predicted
       N       E                     dE             d eps       ncg     rms          rms(c)
DAV:   1    -0.356422614576E+02   -0.12263E-04   -0.13889E-04    64   0.114E-01    0.384E-03
DAV:   2    -0.356422618210E+02   -0.36340E-06   -0.79907E-06    68   0.284E-02    0.247E-03
DAV:   3    -0.356422617844E+02    0.36557E-07   -0.93884E-07    48   0.920E-03    0.168E-03
DAV:   4    -0.356422617826E+02    0.18513E-08   -0.49966E-07    92   0.724E-03    0.529E-04
DAV:   5    -0.356422618042E+02   -0.21606E-07   -0.15675E-07    48   0.347E-03    0.447E-04
DAV:   6    -0.356422618270E+02   -0.22811E-07   -0.54304E-08    48   0.178E-03
   7 F= -.35642262E+02 E0= -.35642262E+02  d E =-.125834E-04
damped:  g(F)=  0.000E+00 g(S)=  0.000E+00 dE (1.order)= 0.000E+00
 bond charge predicted
       N       E                     dE             d eps       ncg     rms          rms(c)
DAV:   1    -0.356422703181E+02   -0.85139E-05   -0.26661E-04    96   0.152E-01    0.504E-03
DAV:   2    -0.356422700278E+02    0.29033E-06   -0.45699E-06    64   0.193E-02    0.303E-03
DAV:   3    -0.356422699448E+02    0.83009E-07   -0.10658E-06    48   0.987E-03    0.143E-03
DAV:   4    -0.356422699803E+02   -0.35491E-07   -0.43116E-07    48   0.588E-03    0.629E-04
DAV:   5    -0.356422699976E+02   -0.17271E-07   -0.10575E-07    48   0.270E-03    0.233E-04
DAV:   6    -0.356422700204E+02   -0.22877E-07   -0.47763E-08    48   0.118E-03
   8 F= -.35642270E+02 E0= -.35642270E+02  d E =-.819343E-05
damped:  g(F)=  0.000E+00 g(S)=  0.000E+00 dE (1.order)= 0.000E+00
 bond charge predicted
       N       E                     dE             d eps       ncg     rms          rms(c)
DAV:   1    -0.356422747673E+02   -0.47697E-05   -0.42321E-04    96   0.189E-01    0.544E-03
DAV:   2    -0.356422746123E+02    0.15505E-06   -0.58342E-06    64   0.215E-02    0.337E-03
DAV:   3    -0.356422746058E+02    0.64468E-08   -0.12139E-06    48   0.104E-02    0.143E-03
DAV:   4    -0.356422746701E+02   -0.64318E-07   -0.41999E-07    48   0.566E-03    0.669E-04
DAV:   5    -0.356422746949E+02   -0.24769E-07   -0.10951E-07    48   0.264E-03    0.199E-04
DAV:   6    -0.356422747250E+02   -0.30129E-07   -0.54057E-08    48   0.122E-03
   9 F= -.35642275E+02 E0= -.35642275E+02  d E =-.470459E-05
damped:  g(F)=  0.000E+00 g(S)=  0.000E+00 dE (1.order)= 0.000E+00
 bond charge predicted
       N       E                     dE             d eps       ncg     rms          rms(c)
DAV:   1    -0.356422789457E+02   -0.42508E-05   -0.62769E-04    96   0.227E-01    0.610E-03
DAV:   2    -0.356422789168E+02    0.28804E-07   -0.73311E-06    64   0.238E-02    0.378E-03
DAV:   3    -0.356422790359E+02   -0.11902E-06   -0.14300E-06    48   0.111E-02    0.120E-03
DAV:   4    -0.356422791083E+02   -0.72442E-07   -0.40331E-07    48   0.537E-03    0.632E-04
DAV:   5    -0.356422791384E+02   -0.30059E-07   -0.11454E-07    48   0.256E-03    0.215E-04
DAV:   6    -0.356422791732E+02   -0.34828E-07   -0.64001E-08    48   0.141E-03
  10 F= -.35642279E+02 E0= -.35642279E+02  d E =-.444818E-05
damped:  g(F)=  0.000E+00 g(S)=  0.000E+00 dE (1.order)= 0.000E+00
 bond charge predicted
       N       E                     dE             d eps       ncg     rms          rms(c)
DAV:   1    -0.356422862822E+02   -0.71439E-05   -0.11227E-03    96   0.302E-01    0.788E-03
DAV:   2    -0.356422863809E+02   -0.98686E-07   -0.12131E-05    64   0.303E-02    0.488E-03
DAV:   3    -0.356422866765E+02   -0.29562E-06   -0.21580E-06    48   0.135E-02    0.113E-03
DAV:   4    -0.356422867581E+02   -0.81549E-07   -0.54628E-07    48   0.613E-03    0.619E-04
DAV:   5    -0.356422867973E+02   -0.39214E-07   -0.16584E-07    48   0.299E-03    0.200E-04
DAV:   6    -0.356422868368E+02   -0.39526E-07   -0.81850E-08    48   0.169E-03
  11 F= -.35642287E+02 E0= -.35642287E+02  d E =-.766363E-05
damped:  g(F)=  0.000E+00 g(S)=  0.000E+00 dE (1.order)= 0.000E+00
 bond charge predicted
       N       E                     dE             d eps       ncg     rms          rms(c)
DAV:   1    -0.356422975014E+02   -0.10704E-04   -0.19819E-03    96   0.403E-01    0.106E-02
DAV:   2    -0.356422977234E+02   -0.22196E-06   -0.21629E-05    64   0.408E-02    0.651E-03
DAV:   3    -0.356422981748E+02   -0.45141E-06   -0.35687E-06    64   0.173E-02    0.166E-03
DAV:   4    -0.356422983320E+02   -0.15722E-06   -0.89923E-07    48   0.785E-03    0.755E-04
DAV:   5    -0.356422983965E+02   -0.64530E-07   -0.26620E-07    48   0.379E-03    0.252E-04
DAV:   6    -0.356422984572E+02   -0.60616E-07   -0.11267E-07    48   0.209E-03
  12 F= -.35642298E+02 E0= -.35642298E+02  d E =-.116203E-04
damped:  g(F)=  0.000E+00 g(S)=  0.000E+00 dE (1.order)= 0.000E+00
 bond charge predicted
       N       E                     dE             d eps       ncg     rms          rms(c)
DAV:   1    -0.356423081611E+02   -0.97645E-05   -0.33613E-03    96   0.526E-01    0.140E-02
DAV:   2    -0.356423085445E+02   -0.38345E-06   -0.37694E-05    68   0.542E-02    0.856E-03
DAV:   3    -0.356423091880E+02   -0.64348E-06   -0.60834E-06    88   0.227E-02    0.256E-03
DAV:   4    -0.356423094960E+02   -0.30796E-06   -0.15824E-06    48   0.106E-02    0.105E-03
DAV:   5    -0.356423096040E+02   -0.10805E-06   -0.43650E-07    48   0.502E-03    0.366E-04
DAV:   6    -0.356423097037E+02   -0.99644E-07   -0.16718E-07    48   0.269E-03
  13 F= -.35642310E+02 E0= -.35642310E+02  d E =-.112465E-04
damped:  g(F)=  0.000E+00 g(S)=  0.000E+00 dE (1.order)= 0.000E+00
 bond charge predicted
       N       E                     dE             d eps       ncg     rms          rms(c)
DAV:   1    -0.356423136281E+02   -0.40241E-05   -0.53729E-03    96   0.664E-01    0.175E-02
DAV:   2    -0.356423143503E+02   -0.72218E-06   -0.59629E-05    64   0.681E-02    0.107E-02
DAV:   3    -0.356423154159E+02   -0.10656E-05   -0.96045E-06    64   0.286E-02    0.308E-03
DAV:   4    -0.356423158918E+02   -0.47592E-06   -0.24593E-06    48   0.132E-02    0.127E-03
DAV:   5    -0.356423160678E+02   -0.17596E-06   -0.67599E-07    48   0.630E-03    0.454E-04
DAV:   6    -0.356423162194E+02   -0.15160E-06   -0.25085E-07    48   0.342E-03
  14 F= -.35642316E+02 E0= -.35642316E+02  d E =-.651570E-05
damped:  g(F)=  0.000E+00 g(S)=  0.000E+00 dE (1.order)= 0.000E+00
 bond charge predicted
       N       E                     dE             d eps       ncg     rms          rms(c)
DAV:   1    -0.356423181740E+02   -0.21062E-05   -0.81459E-03    96   0.814E-01    0.211E-02
DAV:   2    -0.356423194919E+02   -0.13180E-05   -0.87246E-05    64   0.819E-02    0.130E-02
DAV:   3    -0.356423214038E+02   -0.19119E-05   -0.14399E-05    64   0.350E-02    0.307E-03
DAV:   4    -0.356423220193E+02   -0.61552E-06   -0.35587E-06    48   0.158E-02    0.144E-03
DAV:   5    -0.356423222918E+02   -0.27244E-06   -0.99808E-07    48   0.769E-03    0.517E-04
DAV:   6    -0.356423225058E+02   -0.21405E-06   -0.37890E-07    48   0.433E-03
  15 F= -.35642323E+02 E0= -.35642323E+02  d E =-.628646E-05
damped:  g(F)=  0.000E+00 g(S)=  0.000E+00 dE (1.order)= 0.000E+00
 bond charge predicted
       N       E                     dE             d eps       ncg     rms          rms(c)
DAV:   1    -0.356423303401E+02   -0.80483E-05   -0.12043E-02    96   0.989E-01    0.255E-02
DAV:   2    -0.356423322326E+02   -0.18925E-05   -0.12837E-04    80   0.993E-02    0.159E-02
DAV:   3    -0.356423349412E+02   -0.27085E-05   -0.22633E-05    72   0.444E-02    0.370E-03
DAV:   4    -0.356423358779E+02   -0.93676E-06   -0.56611E-06    48   0.203E-02    0.200E-03
DAV:   5    -0.356423362613E+02   -0.38335E-06   -0.14538E-06    48   0.973E-03    0.827E-04
DAV:   6    -0.356423366008E+02   -0.33950E-06   -0.60551E-07    48   0.583E-03
  16 F= -.35642337E+02 E0= -.35642337E+02  d E =-.140949E-04
damped:  g(F)=  0.000E+00 g(S)=  0.000E+00 dE (1.order)= 0.000E+00
 bond charge predicted
       N       E                     dE             d eps       ncg     rms          rms(c)
DAV:   1    -0.356423412037E+02   -0.49425E-05   -0.17367E-02    96   0.119E+00    0.308E-02
DAV:   2    -0.356423468926E+02   -0.56889E-05   -0.21802E-04   112   0.120E-01    0.200E-02
DAV:   3    -0.356423471989E+02   -0.30629E-06   -0.12915E-05    80   0.387E-02    0.589E-03
DAV:   4    -0.356423486569E+02   -0.14580E-05   -0.47526E-06    48   0.192E-02    0.267E-03
DAV:   5    -0.356423491204E+02   -0.46356E-06   -0.82552E-07    48   0.852E-03    0.112E-03
DAV:   6    -0.356423496472E+02   -0.52671E-06   -0.31236E-07    48   0.455E-03
  17 F= -.35642350E+02 E0= -.35642350E+02  d E =-.130464E-04
damped:  g(F)=  0.000E+00 g(S)=  0.000E+00 dE (1.order)= 0.000E+00
 bond charge predicted
       N       E                     dE             d eps       ncg     rms          rms(c)
DAV:   1    -0.356423506616E+02   -0.15411E-05   -0.23538E-02    96   0.139E+00    0.350E-02
DAV:   2    -0.356423596757E+02   -0.90142E-05   -0.28826E-04    96   0.139E-01    0.226E-02
DAV:   3    -0.356423610464E+02   -0.13707E-05   -0.14580E-05    64   0.411E-02    0.612E-03
DAV:   4    -0.356423627947E+02   -0.17483E-05   -0.54766E-06    48   0.199E-02    0.279E-03
DAV:   5    -0.356423634899E+02   -0.69528E-06   -0.94116E-07    48   0.871E-03    0.112E-03
DAV:   6    -0.356423641597E+02   -0.66977E-06   -0.27795E-07    48   0.427E-03
  18 F= -.35642364E+02 E0= -.35642364E+02  d E =-.145126E-04
damped:  g(F)=  0.000E+00 g(S)=  0.000E+00 dE (1.order)= 0.000E+00
 bond charge predicted
       N       E                     dE             d eps       ncg     rms          rms(c)
DAV:   1    -0.356423716015E+02   -0.81116E-05   -0.30407E-02    96   0.159E+00    0.400E-02
DAV:   2    -0.356423850449E+02   -0.13443E-04   -0.39075E-04    96   0.164E-01    0.254E-02
DAV:   3    -0.356423855919E+02   -0.54696E-06   -0.16278E-05    96   0.431E-02    0.882E-03
DAV:   4    -0.356423883916E+02   -0.27998E-05   -0.79537E-06    64   0.242E-02    0.311E-03
DAV:   5    -0.356423893773E+02   -0.98562E-06   -0.16684E-06    64   0.119E-02    0.111E-03
DAV:   6    -0.356423899704E+02   -0.59310E-06   -0.33588E-07    48   0.474E-03
  19 F= -.35642390E+02 E0= -.35642390E+02  d E =-.258106E-04
damped:  g(F)=  0.000E+00 g(S)=  0.000E+00 dE (1.order)= 0.000E+00
 bond charge predicted
       N       E                     dE             d eps       ncg     rms          rms(c)
DAV:   1    -0.356424046572E+02   -0.15280E-04   -0.33642E-02    96   0.167E+00    0.402E-02
DAV:   2    -0.356424201241E+02   -0.15467E-04   -0.40865E-04   112   0.168E-01    0.262E-02
DAV:   3    -0.356424216442E+02   -0.15200E-05   -0.19859E-05    64   0.472E-02    0.793E-03
DAV:   4    -0.356424241623E+02   -0.25181E-05   -0.73001E-06    48   0.234E-02    0.324E-03
DAV:   5    -0.356424251186E+02   -0.95630E-06   -0.13310E-06    48   0.103E-02    0.144E-03
DAV:   6    -0.356424260366E+02   -0.91800E-06   -0.35982E-07    48   0.506E-03
  20 F= -.35642426E+02 E0= -.35642426E+02  d E =-.360662E-04
damped:  g(F)=  0.000E+00 g(S)=  0.000E+00 dE (1.order)= 0.000E+00
 bond charge predicted
       N       E                     dE             d eps       ncg     rms          rms(c)
DAV:   1    -0.356424285886E+02   -0.34700E-05   -0.43243E-06    48   0.193E-02    0.618E-04
DAV:   2    -0.356424290448E+02   -0.45618E-06   -0.23604E-07    48   0.452E-03    0.378E-04
DAV:   3    -0.356424297642E+02   -0.71940E-06   -0.76101E-08    48   0.168E-03    0.125E-04
DAV:   4    -0.356424302645E+02   -0.50033E-06   -0.48869E-08    64   0.904E-04    0.718E-05
DAV:   5    -0.356424309790E+02   -0.71443E-06   -0.54371E-08    72   0.724E-04    0.447E-05
DAV:   6    -0.356424316399E+02   -0.66097E-06   -0.57429E-08    80   0.658E-04
  21 F= -.35642432E+02 E0= -.35642432E+02  d E =-.560335E-05
damped:  g(F)=  0.000E+00 g(S)=  0.000E+00 dE (1.order)= 0.000E+00
 bond charge predicted
       N       E                     dE             d eps       ncg     rms          rms(c)
DAV:   1    -0.356424354829E+02   -0.45040E-05   -0.16491E-05    80   0.381E-02    0.100E-03
DAV:   2    -0.356424355893E+02   -0.10632E-06   -0.68785E-07    48   0.849E-03    0.572E-04
DAV:   3    -0.356424356859E+02   -0.96627E-07   -0.10267E-07    72   0.253E-03    0.208E-04
DAV:   4    -0.356424357632E+02   -0.77267E-07   -0.46156E-08    52   0.110E-03    0.586E-05
DAV:   5    -0.356424358144E+02   -0.51284E-07   -0.33658E-08    48   0.548E-04    0.329E-05
DAV:   6    -0.356424358632E+02   -0.48788E-07   -0.29583E-08    52   0.319E-04
  22 F= -.35642436E+02 E0= -.35642436E+02  d E =-.422330E-05
damped:  g(F)=  0.000E+00 g(S)=  0.000E+00 dE (1.order)= 0.000E+00
 bond charge predicted
       N       E                     dE             d eps       ncg     rms          rms(c)
DAV:   1    -0.356424409692E+02   -0.51548E-05   -0.35211E-05    48   0.559E-02    0.146E-03
DAV:   2    -0.356424410762E+02   -0.10698E-06   -0.14030E-06    48   0.124E-02    0.827E-04
DAV:   3    -0.356424411189E+02   -0.42746E-07   -0.17572E-07    48   0.368E-03    0.301E-04
DAV:   4    -0.356424411412E+02   -0.22277E-07   -0.61270E-08    48   0.158E-03    0.862E-05
DAV:   5    -0.356424411542E+02   -0.13040E-07   -0.36821E-08    48   0.782E-04    0.471E-05
DAV:   6    -0.356424411641E+02   -0.99004E-08   -0.29291E-08    48   0.448E-04
  23 F= -.35642441E+02 E0= -.35642441E+02  d E =-.530092E-05
damped:  g(F)=  0.000E+00 g(S)=  0.000E+00 dE (1.order)= 0.000E+00
 bond charge predicted
       N       E                     dE             d eps       ncg     rms          rms(c)
DAV:   1    -0.356424477065E+02   -0.65523E-05   -0.57672E-05    48   0.718E-02    0.183E-03
DAV:   2    -0.356424478595E+02   -0.15298E-06   -0.22523E-06    48   0.159E-02    0.104E-03
DAV:   3    -0.356424478973E+02   -0.37783E-07   -0.26437E-07    48   0.471E-03    0.384E-04
DAV:   4    -0.356424479071E+02   -0.98321E-08   -0.80123E-08    48   0.200E-03    0.109E-04
DAV:   5    -0.356424479116E+02   -0.44365E-08   -0.40720E-08    48   0.988E-04    0.600E-05
DAV:   6    -0.356424479141E+02   -0.25063E-08   -0.29101E-08    48   0.568E-04
  24 F= -.35642448E+02 E0= -.35642448E+02  d E =-.674992E-05
damped:  g(F)=  0.000E+00 g(S)=  0.000E+00 dE (1.order)= 0.000E+00
 bond charge predicted
       N       E                     dE             d eps       ncg     rms          rms(c)
DAV:   1    -0.356424557588E+02   -0.78473E-05   -0.80910E-05    64   0.856E-02    0.206E-03
DAV:   2    -0.356424559790E+02   -0.22013E-06   -0.31123E-06    48   0.189E-02    0.118E-03
DAV:   3    -0.356424560264E+02   -0.47474E-07   -0.35281E-07    48   0.556E-03    0.462E-04
DAV:   4    -0.356424560382E+02   -0.11734E-07   -0.99718E-08    48   0.235E-03    0.127E-04
DAV:   5    -0.356424560431E+02   -0.49563E-08   -0.45571E-08    48   0.115E-03    0.744E-05
DAV:   6    -0.356424560469E+02   -0.37994E-08   -0.30124E-08    48   0.660E-04
  25 F= -.35642456E+02 E0= -.35642456E+02  d E =-.813286E-05
damped:  g(F)=  0.000E+00 g(S)=  0.000E+00 dE (1.order)= 0.000E+00
 bond charge predicted
       N       E                     dE             d eps       ncg     rms          rms(c)
DAV:   1    -0.356424651791E+02   -0.91359E-05   -0.10749E-04    96   0.977E-02    0.200E-03
DAV:   2    -0.356424651887E+02   -0.96682E-08   -0.99664E-07    48   0.821E-03    0.133E-03
DAV:   3    -0.356424652128E+02   -0.24070E-07   -0.17970E-07    48   0.350E-03    0.264E-04
DAV:   4    -0.356424652192E+02   -0.63569E-08   -0.56675E-08    48   0.149E-03    0.141E-04
DAV:   5    -0.356424652237E+02   -0.45804E-08   -0.31546E-08    48   0.785E-04    0.519E-05
DAV:   6    -0.356424652286E+02   -0.48992E-08   -0.25327E-08    48   0.457E-04
  26 F= -.35642465E+02 E0= -.35642465E+02  d E =-.918171E-05
damped:  g(F)=  0.000E+00 g(S)=  0.000E+00 dE (1.order)= 0.000E+00
 bond charge predicted
       N       E                     dE             d eps       ncg     rms          rms(c)
DAV:   1    -0.356424760822E+02   -0.10858E-04   -0.17701E-04    96   0.125E-01    0.229E-03
DAV:   2    -0.356424761544E+02   -0.72236E-07   -0.17615E-06    48   0.110E-02    0.157E-03
DAV:   3    -0.356424761884E+02   -0.34004E-07   -0.26595E-07    48   0.442E-03    0.508E-04
DAV:   4    -0.356424762025E+02   -0.14126E-07   -0.81560E-08    48   0.202E-03    0.175E-04
DAV:   5    -0.356424762094E+02   -0.69233E-08   -0.38170E-08    48   0.105E-03    0.738E-05
DAV:   6    -0.356424762162E+02   -0.67168E-08   -0.27232E-08    48   0.582E-04
  27 F= -.35642476E+02 E0= -.35642476E+02  d E =-.109875E-04
damped:  g(F)=  0.000E+00 g(S)=  0.000E+00 dE (1.order)= 0.000E+00
 bond charge predicted
       N       E                     dE             d eps       ncg     rms          rms(c)
DAV:   1    -0.356424888185E+02   -0.12609E-04   -0.31549E-04    96   0.166E-01    0.285E-03
DAV:   2    -0.356424890123E+02   -0.19380E-06   -0.32700E-06    48   0.153E-02    0.197E-03
DAV:   3    -0.356424890589E+02   -0.46634E-07   -0.43238E-07    48   0.578E-03    0.808E-04
DAV:   4    -0.356424890869E+02   -0.27964E-07   -0.13157E-07    48   0.280E-03    0.229E-04
DAV:   5    -0.356424890961E+02   -0.91788E-08   -0.52799E-08    48   0.140E-03    0.107E-04
DAV:   6    -0.356424891045E+02   -0.84347E-08   -0.31981E-08    48   0.749E-04
  28 F= -.35642489E+02 E0= -.35642489E+02  d E =-.128883E-04
damped:  g(F)=  0.000E+00 g(S)=  0.000E+00 dE (1.order)= 0.000E+00
 bond charge predicted
       N       E                     dE             d eps       ncg     rms          rms(c)
DAV:   1    -0.356425035224E+02   -0.14426E-04   -0.60593E-04    96   0.228E-01    0.390E-03
DAV:   2    -0.356425039355E+02   -0.41300E-06   -0.63760E-06    48   0.218E-02    0.269E-03
DAV:   3    -0.356425040135E+02   -0.78038E-07   -0.78972E-07    48   0.797E-03    0.111E-03
DAV:   4    -0.356425040600E+02   -0.46502E-07   -0.23713E-07    48   0.394E-03    0.294E-04
DAV:   5    -0.356425040733E+02   -0.13323E-07   -0.84166E-08    48   0.193E-03    0.143E-04
DAV:   6    -0.356425040835E+02   -0.10186E-07   -0.42979E-08    48   0.101E-03
  29 F= -.35642504E+02 E0= -.35642504E+02  d E =-.149790E-04
damped:  g(F)=  0.000E+00 g(S)=  0.000E+00 dE (1.order)= 0.000E+00
 bond charge predicted
       N       E                     dE             d eps       ncg     rms          rms(c)
DAV:   1    -0.356425204653E+02   -0.16392E-04   -0.11252E-03    96   0.309E-01    0.540E-03
DAV:   2    -0.356425212074E+02   -0.74204E-06   -0.11636E-05    48   0.297E-02    0.370E-03
DAV:   3    -0.356425213388E+02   -0.13144E-06   -0.14495E-06    48   0.109E-02    0.145E-03
DAV:   4    -0.356425214156E+02   -0.76763E-07   -0.43578E-07    48   0.542E-03    0.382E-04
DAV:   5    -0.356425214372E+02   -0.21658E-07   -0.14200E-07    48   0.265E-03    0.184E-04
DAV:   6    -0.356425214527E+02   -0.15439E-07   -0.62835E-08    48   0.137E-03
  30 F= -.35642521E+02 E0= -.35642521E+02  d E =-.173692E-04
damped:  g(F)=  0.000E+00 g(S)=  0.000E+00 dE (1.order)= 0.000E+00
 bond charge predicted
       N       E                     dE             d eps       ncg     rms          rms(c)
DAV:   1    -0.356425398382E+02   -0.18401E-04   -0.19788E-03    96   0.408E-01    0.729E-03
DAV:   2    -0.356425410924E+02   -0.12542E-05   -0.20040E-05    64   0.392E-02    0.496E-03
DAV:   3    -0.356425413091E+02   -0.21675E-06   -0.25437E-06    48   0.145E-02    0.186E-03
DAV:   4    -0.356425414368E+02   -0.12769E-06   -0.76832E-07    48   0.722E-03    0.507E-04
DAV:   5    -0.356425414716E+02   -0.34771E-07   -0.23677E-07    48   0.354E-03    0.236E-04
DAV:   6    -0.356425414960E+02   -0.24401E-07   -0.94233E-08    48   0.183E-03
  31 F= -.35642541E+02 E0= -.35642541E+02  d E =-.200434E-04
damped:  g(F)=  0.000E+00 g(S)=  0.000E+00 dE (1.order)= 0.000E+00
 bond charge predicted
       N       E                     dE             d eps       ncg     rms          rms(c)
DAV:   1    -0.356425617341E+02   -0.20262E-04   -0.32880E-03    96   0.525E-01    0.955E-03
DAV:   2    -0.356425637530E+02   -0.20190E-05   -0.32804E-05    64   0.503E-02    0.646E-03
DAV:   3    -0.356425641207E+02   -0.36767E-06   -0.42346E-06    48   0.189E-02    0.233E-03
DAV:   4    -0.356425643278E+02   -0.20707E-06   -0.12802E-06    48   0.932E-03    0.662E-04
DAV:   5    -0.356425643831E+02   -0.55339E-07   -0.38137E-07    48   0.458E-03    0.298E-04
DAV:   6    -0.356425644211E+02   -0.37978E-07   -0.14195E-07    48   0.237E-03
  32 F= -.35642564E+02 E0= -.35642564E+02  d E =-.229251E-04
damped:  g(F)=  0.000E+00 g(S)=  0.000E+00 dE (1.order)= 0.000E+00
 bond charge predicted
       N       E                     dE             d eps       ncg     rms          rms(c)
DAV:   1    -0.356425862812E+02   -0.21898E-04   -0.51732E-03    96   0.658E-01    0.121E-02
DAV:   2    -0.356425894193E+02   -0.31381E-05   -0.51254E-05    64   0.631E-02    0.818E-03
DAV:   3    -0.356425900098E+02   -0.59048E-06   -0.66912E-06    64   0.238E-02    0.287E-03
DAV:   4    -0.356425903330E+02   -0.32323E-06   -0.20178E-06    48   0.117E-02    0.842E-04
DAV:   5    -0.356425904200E+02   -0.86932E-07   -0.58912E-07    48   0.575E-03    0.370E-04
DAV:   6    -0.356425904805E+02   -0.60553E-07   -0.21073E-07    48   0.298E-03
  33 F= -.35642590E+02 E0= -.35642590E+02  d E =-.260594E-04
damped:  g(F)=  0.000E+00 g(S)=  0.000E+00 dE (1.order)= 0.000E+00
 bond charge predicted
       N       E                     dE             d eps       ncg     rms          rms(c)
DAV:   1    -0.356426137958E+02   -0.23376E-04   -0.76631E-03    96   0.801E-01    0.149E-02
DAV:   2    -0.356426184169E+02   -0.46210E-05   -0.75701E-05    64   0.768E-02    0.100E-02
DAV:   3    -0.356426193016E+02   -0.88475E-06   -0.99017E-06    64   0.290E-02    0.345E-03
DAV:   4    -0.356426197804E+02   -0.47874E-06   -0.29813E-06    48   0.142E-02    0.102E-03
DAV:   5    -0.356426199166E+02   -0.13621E-06   -0.86118E-07    48   0.699E-03    0.445E-04
DAV:   6    -0.356426200084E+02   -0.91854E-07   -0.30109E-07    48   0.363E-03
  34 F= -.35642620E+02 E0= -.35642620E+02  d E =-.295279E-04
damped:  g(F)=  0.000E+00 g(S)=  0.000E+00 dE (1.order)= 0.000E+00
 bond charge predicted
       N       E                     dE             d eps       ncg     rms          rms(c)
DAV:   1    -0.356426446193E+02   -0.24703E-04   -0.10580E-02    96   0.941E-01    0.175E-02
DAV:   2    -0.356426510690E+02   -0.64498E-05   -0.10461E-04    64   0.901E-02    0.118E-02
DAV:   3    -0.356426523369E+02   -0.12678E-05   -0.13598E-05    64   0.339E-02    0.402E-03
DAV:   4    -0.356426529937E+02   -0.65686E-06   -0.40788E-06    48   0.166E-02    0.119E-03
DAV:   5    -0.356426531953E+02   -0.20158E-06   -0.11719E-06    48   0.816E-03    0.514E-04
DAV:   6    -0.356426533252E+02   -0.12987E-06   -0.40511E-07    48   0.423E-03
  35 F= -.35642653E+02 E0= -.35642653E+02  d E =-.333168E-04
damped:  g(F)=  0.000E+00 g(S)=  0.000E+00 dE (1.order)= 0.000E+00
 bond charge predicted
       N       E                     dE             d eps       ncg     rms          rms(c)
DAV:   1    -0.356426794848E+02   -0.26290E-04   -0.13162E-02    96   0.105E+00    0.195E-02
DAV:   2    -0.356426897339E+02   -0.10249E-04   -0.14997E-04   112   0.101E-01    0.137E-02
DAV:   3    -0.356426898164E+02   -0.82521E-07   -0.42236E-06    48   0.218E-02    0.553E-03
DAV:   4    -0.356426904973E+02   -0.68085E-06   -0.25486E-06    48   0.141E-02    0.148E-03
DAV:   5    -0.356426906634E+02   -0.16615E-06   -0.58960E-07    48   0.675E-03    0.606E-04
DAV:   6    -0.356426907848E+02   -0.12133E-06   -0.11379E-07    48   0.243E-03
  36 F= -.35642691E+02 E0= -.35642691E+02  d E =-.374596E-04
damped:  g(F)=  0.000E+00 g(S)=  0.000E+00 dE (1.order)= 0.000E+00
 bond charge predicted
       N       E                     dE             d eps       ncg     rms          rms(c)
DAV:   1    -0.356427159586E+02   -0.25295E-04   -0.13637E-02    96   0.108E+00    0.201E-02
DAV:   2    -0.356427268647E+02   -0.10906E-04   -0.15677E-04   128   0.102E-01    0.141E-02
DAV:   3    -0.356427271309E+02   -0.26617E-06   -0.40977E-06    48   0.212E-02    0.574E-03
DAV:   4    -0.356427279057E+02   -0.77481E-06   -0.24068E-06    48   0.137E-02    0.137E-03
DAV:   5    -0.356427280819E+02   -0.17626E-06   -0.53802E-07    48   0.627E-03    0.697E-04
DAV:   6    -0.356427282430E+02   -0.16110E-06   -0.11879E-07    48   0.248E-03
  37 F= -.35642728E+02 E0= -.35642728E+02  d E =-.374583E-04
damped:  g(F)=  0.000E+00 g(S)=  0.000E+00 dE (1.order)= 0.000E+00
 bond charge predicted
       N       E                     dE             d eps       ncg     rms          rms(c)
DAV:   1    -0.356427289727E+02   -0.89080E-06   -0.71882E-06    48   0.245E-02    0.654E-04
DAV:   2    -0.356427290869E+02   -0.11416E-06   -0.36753E-07    48   0.587E-03    0.403E-04
DAV:   3    -0.356427292145E+02   -0.12758E-06   -0.67547E-08    48   0.178E-03    0.170E-04
DAV:   4    -0.356427293438E+02   -0.12930E-06   -0.37416E-08    48   0.863E-04    0.439E-05
DAV:   5    -0.356427294115E+02   -0.67746E-07   -0.30334E-08    48   0.450E-04    0.338E-05
DAV:   6    -0.356427295129E+02   -0.10137E-06   -0.28237E-08    48   0.289E-04
  38 F= -.35642730E+02 E0= -.35642730E+02  d E =-.126986E-05
damped:  g(F)=  0.000E+00 g(S)=  0.000E+00 dE (1.order)= 0.000E+00
 bond charge predicted
       N       E                     dE             d eps       ncg     rms          rms(c)
DAV:   1    -0.356427306221E+02   -0.12106E-05   -0.27718E-05    64   0.483E-02    0.126E-03
DAV:   2    -0.356427307616E+02   -0.13953E-06   -0.13264E-06    48   0.115E-02    0.750E-04
DAV:   3    -0.356427308332E+02   -0.71587E-07   -0.17619E-07    48   0.339E-03    0.318E-04
DAV:   4    -0.356427308845E+02   -0.51267E-07   -0.62625E-08    48   0.158E-03    0.820E-05
DAV:   5    -0.356427309070E+02   -0.22557E-07   -0.37644E-08    48   0.780E-04    0.627E-05
DAV:   6    -0.356427309332E+02   -0.26147E-07   -0.29831E-08    48   0.448E-04
  39 F= -.35642731E+02 E0= -.35642731E+02  d E =-.142027E-05
damped:  g(F)=  0.000E+00 g(S)=  0.000E+00 dE (1.order)= 0.000E+00
 bond charge predicted
       N       E                     dE             d eps       ncg     rms          rms(c)
DAV:   1    -0.356427323322E+02   -0.14252E-05   -0.59769E-05    48   0.708E-02    0.186E-03
DAV:   2    -0.356427325567E+02   -0.22451E-06   -0.28165E-06    48   0.168E-02    0.110E-03
DAV:   3    -0.356427326171E+02   -0.60360E-07   -0.34659E-07    48   0.496E-03    0.459E-04
DAV:   4    -0.356427326338E+02   -0.16746E-07   -0.10317E-07    48   0.230E-03    0.122E-04
DAV:   5    -0.356427326390E+02   -0.51303E-08   -0.48979E-08    48   0.114E-03    0.918E-05
DAV:   6    -0.356427326419E+02   -0.29256E-08   -0.31676E-08    48   0.656E-04
  40 F= -.35642733E+02 E0= -.35642733E+02  d E =-.170871E-05
damped:  g(F)=  0.000E+00 g(S)=  0.000E+00 dE (1.order)= 0.000E+00
 bond charge predicted
       N       E                     dE             d eps       ncg     rms          rms(c)
DAV:   1    -0.356427342936E+02   -0.16547E-05   -0.10066E-04    80   0.917E-02    0.241E-03
DAV:   2    -0.356427346506E+02   -0.35694E-06   -0.47004E-06    48   0.217E-02    0.143E-03
DAV:   3    -0.356427347353E+02   -0.84724E-07   -0.56093E-07    48   0.642E-03    0.589E-04
DAV:   4    -0.356427347498E+02   -0.14469E-07   -0.15451E-07    48   0.298E-03    0.161E-04
DAV:   5    -0.356427347546E+02   -0.48381E-08   -0.63865E-08    48   0.147E-03    0.119E-04
DAV:   6    -0.356427347559E+02   -0.13131E-08   -0.35412E-08    48   0.851E-04
  41 F= -.35642735E+02 E0= -.35642735E+02  d E =-.211403E-05
damped:  g(F)=  0.000E+00 g(S)=  0.000E+00 dE (1.order)= 0.000E+00
 bond charge predicted
       N       E                     dE             d eps       ncg     rms          rms(c)
DAV:   1    -0.356427374505E+02   -0.26959E-05   -0.15337E-04    96   0.111E-01    0.293E-03
DAV:   2    -0.356427374312E+02    0.19244E-07   -0.16846E-06    48   0.111E-02    0.184E-03
DAV:   3    -0.356427374682E+02   -0.36965E-07   -0.27855E-07    48   0.465E-03    0.371E-04
DAV:   4    -0.356427374786E+02   -0.10423E-07   -0.78053E-08    48   0.197E-03    0.192E-04
DAV:   5    -0.356427374859E+02   -0.72880E-08   -0.36237E-08    48   0.939E-04    0.602E-05
DAV:   6    -0.356427374934E+02   -0.75183E-08   -0.26490E-08    48   0.529E-04
  42 F= -.35642737E+02 E0= -.35642737E+02  d E =-.273752E-05
damped:  g(F)=  0.000E+00 g(S)=  0.000E+00 dE (1.order)= 0.000E+00
 bond charge predicted
       N       E                     dE             d eps       ncg     rms          rms(c)
DAV:   1    -0.356427408812E+02   -0.33953E-05   -0.20489E-04    96   0.128E-01    0.339E-03
DAV:   2    -0.356427408564E+02    0.24801E-07   -0.21942E-06    48   0.127E-02    0.213E-03
DAV:   3    -0.356427409106E+02   -0.54216E-07   -0.35429E-07    48   0.530E-03    0.414E-04
DAV:   4    -0.356427409251E+02   -0.14467E-07   -0.91983E-08    48   0.221E-03    0.219E-04
DAV:   5    -0.356427409366E+02   -0.11521E-07   -0.39076E-08    48   0.105E-03    0.646E-05
DAV:   6    -0.356427409479E+02   -0.11304E-07   -0.26963E-08    48   0.584E-04
  43 F= -.35642741E+02 E0= -.35642741E+02  d E =-.345451E-05
damped:  g(F)=  0.000E+00 g(S)=  0.000E+00 dE (1.order)= 0.000E+00
 bond charge predicted
       N       E                     dE             d eps       ncg     rms          rms(c)
DAV:   1    -0.356427452018E+02   -0.42652E-05   -0.31635E-04    96   0.160E-01    0.422E-03
DAV:   2    -0.356427451682E+02    0.33636E-07   -0.33268E-06    48   0.157E-02    0.265E-03
DAV:   3    -0.356427452574E+02   -0.89227E-07   -0.52880E-07    48   0.651E-03    0.494E-04
DAV:   4    -0.356427452759E+02   -0.18464E-07   -0.12646E-07    48   0.268E-03    0.267E-04
DAV:   5    -0.356427452909E+02   -0.14973E-07   -0.47842E-08    48   0.127E-03    0.720E-05
DAV:   6    -0.356427453052E+02   -0.14373E-07   -0.29317E-08    48   0.703E-04
  44 F= -.35642745E+02 E0= -.35642745E+02  d E =-.435729E-05
damped:  g(F)=  0.000E+00 g(S)=  0.000E+00 dE (1.order)= 0.000E+00
 bond charge predicted
       N       E                     dE             d eps       ncg     rms          rms(c)
DAV:   1    -0.356427507395E+02   -0.54486E-05   -0.46416E-04    96   0.194E-01    0.512E-03
DAV:   2    -0.356427506908E+02    0.48693E-07   -0.47789E-06    48   0.187E-02    0.322E-03
DAV:   3    -0.356427508248E+02   -0.13400E-06   -0.76432E-07    48   0.784E-03    0.576E-04
DAV:   4    -0.356427508487E+02   -0.23951E-07   -0.17149E-07    48   0.319E-03    0.322E-04
DAV:   5    -0.356427508687E+02   -0.19916E-07   -0.59341E-08    48   0.151E-03    0.874E-05
DAV:   6    -0.356427508875E+02   -0.18793E-07   -0.32572E-08    48   0.836E-04
  45 F= -.35642751E+02 E0= -.35642751E+02  d E =-.558223E-05
damped:  g(F)=  0.000E+00 g(S)=  0.000E+00 dE (1.order)= 0.000E+00
 bond charge predicted
       N       E                     dE             d eps       ncg     rms          rms(c)
DAV:   1    -0.356427576429E+02   -0.67742E-05   -0.64295E-04    96   0.229E-01    0.602E-03
DAV:   2    -0.356427575702E+02    0.72751E-07   -0.64079E-06    48   0.216E-02    0.379E-03
DAV:   3    -0.356427577591E+02   -0.18896E-06   -0.10499E-06    48   0.917E-03    0.655E-04
DAV:   4    -0.356427577886E+02   -0.29525E-07   -0.22325E-07    48   0.370E-03    0.381E-04
DAV:   5    -0.356427578163E+02   -0.27676E-07   -0.73414E-08    48   0.175E-03    0.110E-04
DAV:   6    -0.356427578415E+02   -0.25157E-07   -0.36663E-08    48   0.979E-04
  46 F= -.35642758E+02 E0= -.35642758E+02  d E =-.695401E-05
damped:  g(F)=  0.000E+00 g(S)=  0.000E+00 dE (1.order)= 0.000E+00
 bond charge predicted
       N       E                     dE             d eps       ncg     rms          rms(c)
DAV:   1    -0.356427653445E+02   -0.75282E-05   -0.82155E-04    96   0.261E-01    0.673E-03
DAV:   2    -0.356427652441E+02    0.10037E-06   -0.78431E-06    48   0.237E-02    0.424E-03
DAV:   3    -0.356427654845E+02   -0.24042E-06   -0.13310E-06    56   0.102E-02    0.731E-04
DAV:   4    -0.356427655203E+02   -0.35822E-07   -0.27202E-07    48   0.414E-03    0.439E-04
DAV:   5    -0.356427655576E+02   -0.37271E-07   -0.87570E-08    48   0.198E-03    0.145E-04
DAV:   6    -0.356427655918E+02   -0.34188E-07   -0.41163E-08    48   0.113E-03
  47 F= -.35642766E+02 E0= -.35642766E+02  d E =-.775033E-05
damped:  g(F)=  0.000E+00 g(S)=  0.000E+00 dE (1.order)= 0.000E+00
 bond charge predicted
       N       E                     dE             d eps       ncg     rms          rms(c)
DAV:   1    -0.356427731444E+02   -0.75868E-05   -0.96150E-04    96   0.286E-01    0.703E-03
DAV:   2    -0.356427730622E+02    0.82240E-07   -0.86660E-06    48   0.247E-02    0.448E-03
DAV:   3    -0.356427733418E+02   -0.27962E-06   -0.14893E-06    48   0.106E-02    0.754E-04
DAV:   4    -0.356427733835E+02   -0.41670E-07   -0.30105E-07    48   0.432E-03    0.465E-04
DAV:   5    -0.356427734311E+02   -0.47641E-07   -0.99585E-08    48   0.211E-03    0.160E-04
DAV:   6    -0.356427734731E+02   -0.42002E-07   -0.45442E-08    48   0.121E-03
  48 F= -.35642773E+02 E0= -.35642773E+02  d E =-.788133E-05
damped:  g(F)=  0.000E+00 g(S)=  0.000E+00 dE (1.order)= 0.000E+00
 bond charge predicted
       N       E                     dE             d eps       ncg     rms          rms(c)
DAV:   1    -0.356427804075E+02   -0.69763E-05   -0.10903E-03    96   0.310E-01    0.701E-03
DAV:   2    -0.356427804392E+02   -0.31741E-07   -0.93869E-06    48   0.256E-02    0.454E-03
DAV:   3    -0.356427807424E+02   -0.30317E-06   -0.15408E-06    48   0.107E-02    0.725E-04
DAV:   4    -0.356427807942E+02   -0.51854E-07   -0.32187E-07    48   0.438E-03    0.447E-04
DAV:   5    -0.356427808487E+02   -0.54506E-07   -0.11077E-07    48   0.223E-03    0.145E-04
DAV:   6    -0.356427808947E+02   -0.45906E-07   -0.50531E-08    48   0.126E-03
  49 F= -.35642781E+02 E0= -.35642781E+02  d E =-.742152E-05
damped:  g(F)=  0.000E+00 g(S)=  0.000E+00 dE (1.order)= 0.000E+00
 bond charge predicted
       N       E                     dE             d eps       ncg     rms          rms(c)
DAV:   1    -0.356427865630E+02   -0.57143E-05   -0.12962E-03    96   0.341E-01    0.694E-03
DAV:   2    -0.356427868704E+02   -0.30737E-06   -0.11351E-05    48   0.283E-02    0.460E-03
DAV:   3    -0.356427871921E+02   -0.32171E-06   -0.17084E-06    48   0.114E-02    0.872E-04
DAV:   4    -0.356427872663E+02   -0.74208E-07   -0.38464E-07    48   0.473E-03    0.404E-04
DAV:   5    -0.356427873215E+02   -0.55142E-07   -0.13208E-07    48   0.249E-03    0.137E-04
DAV:   6    -0.356427873668E+02   -0.45327E-07   -0.59334E-08    48   0.139E-03
  50 F= -.35642787E+02 E0= -.35642787E+02  d E =-.647214E-05
damped:  g(F)=  0.000E+00 g(S)=  0.000E+00 dE (1.order)= 0.000E+00
 bond charge predicted
       N       E                     dE             d eps       ncg     rms          rms(c)
DAV:   1    -0.356427910522E+02   -0.37308E-05   -0.16865E-03    96   0.389E-01    0.728E-03
DAV:   2    -0.356427918188E+02   -0.76656E-06   -0.15983E-05    48   0.336E-02    0.494E-03
DAV:   3    -0.356427921722E+02   -0.35343E-06   -0.22312E-06    48   0.132E-02    0.133E-03
DAV:   4    -0.356427922864E+02   -0.11415E-06   -0.53436E-07    48   0.579E-03    0.396E-04
DAV:   5    -0.356427923407E+02   -0.54343E-07   -0.17471E-07    48   0.301E-03    0.155E-04
DAV:   6    -0.356427923816E+02   -0.40927E-07   -0.73842E-08    48   0.165E-03
  51 F= -.35642792E+02 E0= -.35642792E+02  d E =-.501485E-05
damped:  g(F)=  0.000E+00 g(S)=  0.000E+00 dE (1.order)= 0.000E+00
 bond charge predicted
       N       E                     dE             d eps       ncg     rms          rms(c)
DAV:   1    -0.356427936168E+02   -0.12761E-05   -0.22756E-03    96   0.448E-01    0.812E-03
DAV:   2    -0.356427949717E+02   -0.13549E-05   -0.22985E-05    64   0.410E-02    0.555E-03
DAV:   3    -0.356427953729E+02   -0.40125E-06   -0.30035E-06    48   0.156E-02    0.184E-03
DAV:   4    -0.356427955351E+02   -0.16212E-06   -0.77453E-07    48   0.722E-03    0.483E-04
DAV:   5    -0.356427955896E+02   -0.54564E-07   -0.23948E-07    48   0.363E-03    0.217E-04
DAV:   6    -0.356427956302E+02   -0.40592E-07   -0.93657E-08    48   0.195E-03
  52 F= -.35642796E+02 E0= -.35642796E+02  d E =-.324858E-05
damped:  g(F)=  0.000E+00 g(S)=  0.000E+00 dE (1.order)= 0.000E+00
 bond charge predicted
       N       E                     dE             d eps       ncg     rms          rms(c)
DAV:   1    -0.356427941747E+02    0.14149E-05   -0.29397E-03    96   0.506E-01    0.926E-03
DAV:   2    -0.356427960132E+02   -0.18385E-05   -0.30510E-05    64   0.475E-02    0.630E-03
DAV:   3    -0.356427964610E+02   -0.44782E-06   -0.38456E-06    52   0.177E-02    0.222E-03
DAV:   4    -0.356427966631E+02   -0.20204E-06   -0.10364E-06    48   0.840E-03    0.578E-04
DAV:   5    -0.356427967289E+02   -0.65849E-07   -0.30775E-07    48   0.413E-03    0.258E-04
DAV:   6    -0.356427967757E+02   -0.46819E-07   -0.11548E-07    48   0.218E-03
  53 F= -.35642797E+02 E0= -.35642797E+02  d E =-.114552E-05
damped:  g(F)=  0.000E+00 g(S)=  0.000E+00 dE (1.order)= 0.000E+00
 bond charge predicted
       N       E                     dE             d eps       ncg     rms          rms(c)
DAV:   1    -0.356427897902E+02    0.69387E-05   -0.31437E-03    96   0.529E-01    0.109E-02
DAV:   2    -0.356427912971E+02   -0.15069E-05   -0.37746E-05    64   0.541E-02    0.722E-03
DAV:   3    -0.356427914975E+02   -0.20042E-06   -0.55869E-06    96   0.222E-02    0.347E-03
DAV:   4    -0.356427918550E+02   -0.35749E-06   -0.22083E-06    64   0.132E-02    0.121E-03
DAV:   5    -0.356427918923E+02   -0.37326E-07   -0.52911E-07    48   0.653E-03    0.611E-04
DAV:   6    -0.356427919356E+02   -0.43349E-07   -0.17659E-07    48   0.327E-03
  54 F= -.35642792E+02 E0= -.35642792E+02  d E =0.484009E-05
damped:  g(F)=  0.000E+00 g(S)=  0.000E+00 dE (1.order)= 0.000E+00
 bond charge predicted
       N       E                     dE             d eps       ncg     rms          rms(c)
DAV:   1    -0.356427959627E+02   -0.40704E-05   -0.16742E-04    48   0.126E-01    0.577E-03
DAV:   2    -0.356427964265E+02   -0.46379E-06   -0.10210E-05    64   0.312E-02    0.305E-03
DAV:   3    -0.356427963274E+02    0.99082E-07   -0.10836E-06    60   0.103E-02    0.198E-03
DAV:   4    -0.356427963295E+02   -0.21280E-08   -0.84253E-07    92   0.978E-03    0.611E-04
DAV:   5    -0.356427963603E+02   -0.30781E-07   -0.22637E-07    48   0.470E-03    0.475E-04
DAV:   6    -0.356427963803E+02   -0.20022E-07   -0.57746E-08    48   0.196E-03
  55 F= -.35642796E+02 E0= -.35642796E+02  d E =-.444469E-05
damped:  g(F)=  0.000E+00 g(S)=  0.000E+00 dE (1.order)= 0.000E+00
 bond charge predicted
       N       E                     dE             d eps       ncg     rms          rms(c)
DAV:   1    -0.356427928346E+02    0.35257E-05   -0.15592E-04    48   0.122E-01    0.491E-03
DAV:   2    -0.356427931923E+02   -0.35768E-06   -0.94566E-06    76   0.303E-02    0.279E-03
DAV:   3    -0.356427930910E+02    0.10128E-06   -0.10727E-06    48   0.100E-02    0.182E-03
DAV:   4    -0.356427930336E+02    0.57363E-07   -0.69976E-07    84   0.882E-03    0.556E-04
DAV:   5    -0.356427930455E+02   -0.11832E-07   -0.20403E-07    48   0.421E-03    0.483E-04
DAV:   6    -0.356427930542E+02   -0.86931E-08   -0.62197E-08    48   0.193E-03
  56 F= -.35642793E+02 E0= -.35642793E+02  d E =0.332618E-05
damped:  g(F)=  0.000E+00 g(S)=  0.000E+00 dE (1.order)= 0.000E+00
 bond charge predicted
       N       E                     dE             d eps       ncg     rms          rms(c)
DAV:   1    -0.356427945412E+02   -0.14957E-05   -0.90235E-06    48   0.293E-02    0.115E-03
DAV:   2    -0.356427946095E+02   -0.68329E-07   -0.55828E-07    48   0.715E-03    0.648E-04
DAV:   3    -0.356427946309E+02   -0.21349E-07   -0.82958E-08    48   0.228E-03    0.428E-04
DAV:   4    -0.356427946701E+02   -0.39201E-07   -0.57811E-08    64   0.195E-03    0.120E-04
DAV:   5    -0.356427946832E+02   -0.13099E-07   -0.34364E-08    48   0.910E-04    0.104E-04
DAV:   6    -0.356427946948E+02   -0.11612E-07   -0.27174E-08    48   0.418E-04
  57 F= -.35642795E+02 E0= -.35642795E+02  d E =-.164061E-05
damped:  g(F)=  0.000E+00 g(S)=  0.000E+00 dE (1.order)= 0.000E+00
 bond charge predicted
       N       E                     dE             d eps       ncg     rms          rms(c)
DAV:   1    -0.356427962278E+02   -0.15446E-05   -0.30437E-05    48   0.537E-02    0.205E-03
DAV:   2    -0.356427963521E+02   -0.12435E-06   -0.18379E-06    64   0.133E-02    0.119E-03
DAV:   3    -0.356427963535E+02   -0.14168E-08   -0.22744E-07    48   0.435E-03    0.784E-04
DAV:   4    -0.356427963575E+02   -0.39829E-08   -0.14116E-07    80   0.368E-03    0.231E-04
DAV:   5    -0.356427963601E+02   -0.25739E-08   -0.56611E-08    48   0.175E-03    0.205E-04
DAV:   6    -0.356427963623E+02   -0.22030E-08   -0.30852E-08    48   0.822E-04
  58 F= -.35642796E+02 E0= -.35642796E+02  d E =-.166750E-05
damped:  g(F)=  0.000E+00 g(S)=  0.000E+00 dE (1.order)= 0.000E+00
 bond charge predicted
       N       E                     dE             d eps       ncg     rms          rms(c)
DAV:   1    -0.356427965490E+02   -0.18897E-06   -0.51794E-05    48   0.695E-02    0.228E-03
DAV:   2    -0.356427967275E+02   -0.17850E-06   -0.29991E-06    64   0.171E-02    0.141E-03
DAV:   3    -0.356427967261E+02    0.14700E-08   -0.36634E-07    48   0.553E-03    0.972E-04
DAV:   4    -0.356427967155E+02    0.10599E-07   -0.17605E-07    48   0.417E-03    0.285E-04
DAV:   5    -0.356427967174E+02   -0.19008E-08   -0.72577E-08    48   0.201E-03    0.245E-04
DAV:   6    -0.356427967206E+02   -0.32048E-08   -0.33852E-08    48   0.983E-04
  59 F= -.35642797E+02 E0= -.35642797E+02  d E =-.358303E-06
damped:  g(F)=  0.000E+00 g(S)=  0.000E+00 dE (1.order)= 0.000E+00
 bond charge predicted
       N       E                     dE             d eps       ncg     rms          rms(c)
DAV:   1    -0.356427956664E+02    0.10510E-05   -0.76105E-05    48   0.823E-02    0.226E-03
DAV:   2    -0.356427959663E+02   -0.29995E-06   -0.41076E-06    48   0.201E-02    0.142E-03
DAV:   3    -0.356427959991E+02   -0.32807E-07   -0.51302E-07    48   0.631E-03    0.977E-04
DAV:   4    -0.356427960056E+02   -0.65040E-08   -0.17897E-07    48   0.394E-03    0.282E-04
DAV:   5    -0.356427960124E+02   -0.67994E-08   -0.78230E-08    48   0.194E-03    0.229E-04
DAV:   6    -0.356427960178E+02   -0.53551E-08   -0.35924E-08    48   0.977E-04
  60 F= -.35642796E+02 E0= -.35642796E+02  d E =0.702796E-06
damped:  g(F)=  0.000E+00 g(S)=  0.000E+00 dE (1.order)= 0.000E+00
 bond charge predicted
       N       E                     dE             d eps       ncg     rms          rms(c)
DAV:   1    -0.356427954580E+02    0.55441E-06   -0.13717E-04    96   0.105E-01    0.266E-03
DAV:   2    -0.356427954710E+02   -0.12997E-07   -0.15848E-06    48   0.110E-02    0.164E-03
DAV:   3    -0.356427955024E+02   -0.31406E-07   -0.27405E-07    48   0.465E-03    0.539E-04
DAV:   4    -0.356427955210E+02   -0.18634E-07   -0.96597E-08    48   0.231E-03    0.229E-04
DAV:   5    -0.356427955314E+02   -0.10386E-07   -0.40784E-08    48   0.111E-03    0.932E-05
DAV:   6    -0.356427955425E+02   -0.11063E-07   -0.28361E-08    48   0.603E-04
  61 F= -.35642796E+02 E0= -.35642796E+02  d E =0.475284E-06
damped:  g(F)=  0.000E+00 g(S)=  0.000E+00 dE (1.order)= 0.000E+00
 bond charge predicted
       N       E                     dE             d eps       ncg     rms          rms(c)
DAV:   1    -0.356427959121E+02   -0.38065E-06   -0.26900E-04    96   0.146E-01    0.358E-03
DAV:   2    -0.356427959420E+02   -0.29942E-07   -0.28539E-06    48   0.146E-02    0.225E-03
DAV:   3    -0.356427960043E+02   -0.62299E-07   -0.46755E-07    64   0.614E-03    0.552E-04
DAV:   4    -0.356427960269E+02   -0.22624E-07   -0.13463E-07    48   0.275E-03    0.241E-04
DAV:   5    -0.356427960397E+02   -0.12802E-07   -0.51569E-08    48   0.132E-03    0.888E-05
DAV:   6    -0.356427960507E+02   -0.10914E-07   -0.31649E-08    48   0.737E-04
  62 F= -.35642796E+02 E0= -.35642796E+02  d E =-.508167E-06
damped:  g(F)=  0.000E+00 g(S)=  0.000E+00 dE (1.order)= 0.000E+00
 bond charge predicted
       N       E                     dE             d eps       ncg     rms          rms(c)
DAV:   1    -0.356427968781E+02   -0.83830E-06   -0.66798E-04    96   0.231E-01    0.578E-03
DAV:   2    -0.356427969311E+02   -0.53009E-07   -0.72482E-06    64   0.235E-02    0.363E-03
DAV:   3    -0.356427970496E+02   -0.11856E-06   -0.11895E-06    68   0.100E-02    0.104E-03
DAV:   4    -0.356427971061E+02   -0.56448E-07   -0.33228E-07    48   0.467E-03    0.462E-04
DAV:   5    -0.356427971267E+02   -0.20603E-07   -0.98570E-08    48   0.220E-03    0.179E-04
DAV:   6    -0.356427971459E+02   -0.19198E-07   -0.47662E-08    48   0.123E-03
  63 F= -.35642797E+02 E0= -.35642797E+02  d E =-.109520E-05
damped:  g(F)=  0.000E+00 g(S)=  0.000E+00 dE (1.order)= 0.000E+00
 bond charge predicted
       N       E                     dE             d eps       ncg     rms          rms(c)
DAV:   1    -0.356427964655E+02    0.66116E-06   -0.16148E-03    96   0.359E-01    0.897E-03
DAV:   2    -0.356427966683E+02   -0.20274E-06   -0.17432E-05    64   0.364E-02    0.563E-03
DAV:   3    -0.356427969602E+02   -0.29192E-06   -0.28396E-06    64   0.155E-02    0.160E-03
DAV:   4    -0.356427970911E+02   -0.13096E-06   -0.76859E-07    48   0.722E-03    0.713E-04
DAV:   5    -0.356427971360E+02   -0.44899E-07   -0.20902E-07    48   0.340E-03    0.275E-04
DAV:   6    -0.356427971769E+02   -0.40905E-07   -0.85953E-08    48   0.189E-03
  64 F= -.35642797E+02 E0= -.35642797E+02  d E =-.310690E-07
damped:  g(F)=  0.000E+00 g(S)=  0.000E+00 dE (1.order)= 0.000E+00
 bond charge predicted
       N       E                     dE             d eps       ncg     rms          rms(c)
DAV:   1    -0.356427931165E+02    0.40196E-05   -0.37984E-03    96   0.550E-01    0.136E-02
DAV:   2    -0.356427938779E+02   -0.76145E-06   -0.40161E-05    64   0.551E-02    0.852E-03
DAV:   3    -0.356427946504E+02   -0.77245E-06   -0.64147E-06    64   0.233E-02    0.215E-03
DAV:   4    -0.356427949316E+02   -0.28122E-06   -0.16621E-06    48   0.105E-02    0.956E-04
DAV:   5    -0.356427950385E+02   -0.10692E-06   -0.45759E-07    48   0.500E-03    0.360E-04
DAV:   6    -0.356427951256E+02   -0.87039E-07   -0.17455E-07    48   0.280E-03
  65 F= -.35642795E+02 E0= -.35642795E+02  d E =0.205138E-05
damped:  g(F)=  0.000E+00 g(S)=  0.000E+00 dE (1.order)= 0.000E+00
 bond charge predicted
       N       E                     dE             d eps       ncg     rms          rms(c)
DAV:   1    -0.356427874112E+02    0.76274E-05   -0.88033E-03    96   0.838E-01    0.205E-02
DAV:   2    -0.356427895738E+02   -0.21627E-05   -0.92611E-05    80   0.837E-02    0.129E-02
DAV:   3    -0.356427914288E+02   -0.18550E-05   -0.14537E-05    64   0.349E-02    0.311E-03
DAV:   4    -0.356427920564E+02   -0.62752E-06   -0.37310E-06    48   0.156E-02    0.134E-03
DAV:   5    -0.356427923091E+02   -0.25278E-06   -0.10466E-06    48   0.754E-03    0.495E-04
DAV:   6    -0.356427924885E+02   -0.17935E-06   -0.38244E-07    48   0.420E-03
  66 F= -.35642792E+02 E0= -.35642792E+02  d E =0.263707E-05
damped:  g(F)=  0.000E+00 g(S)=  0.000E+00 dE (1.order)= 0.000E+00
 bond charge predicted
       N       E                     dE             d eps       ncg     rms          rms(c)
DAV:   1    -0.356427770280E+02    0.15281E-04   -0.20012E-02    96   0.126E+00    0.310E-02
DAV:   2    -0.356427856650E+02   -0.86370E-05   -0.24629E-04   112   0.127E-01    0.202E-02
DAV:   3    -0.356427867364E+02   -0.10715E-05   -0.10832E-05    96   0.351E-02    0.587E-03
DAV:   4    -0.356427881948E+02   -0.14583E-05   -0.49260E-06    48   0.182E-02    0.250E-03
DAV:   5    -0.356427886059E+02   -0.41116E-06   -0.86341E-07    48   0.831E-03    0.702E-04
DAV:   6    -0.356427888812E+02   -0.27529E-06   -0.18160E-07    48   0.333E-03
  67 F= -.35642789E+02 E0= -.35642789E+02  d E =0.360725E-05
damped:  g(F)=  0.000E+00 g(S)=  0.000E+00 dE (1.order)= 0.000E+00
 bond charge predicted
       N       E                     dE             d eps       ncg     rms          rms(c)
DAV:   1    -0.356427530340E+02    0.35572E-04   -0.44163E-02    96   0.188E+00    0.460E-02
DAV:   2    -0.356427718917E+02   -0.18858E-04   -0.54060E-04   112   0.188E-01    0.299E-02
DAV:   3    -0.356427748709E+02   -0.29792E-05   -0.23688E-05    80   0.520E-02    0.871E-03
DAV:   4    -0.356427781441E+02   -0.32732E-05   -0.10775E-05    64   0.269E-02    0.369E-03
DAV:   5    -0.356427791002E+02   -0.95608E-06   -0.18840E-06    48   0.124E-02    0.102E-03
DAV:   6    -0.356427797076E+02   -0.60737E-06   -0.38609E-07    48   0.495E-03
  68 F= -.35642780E+02 E0= -.35642780E+02  d E =0.917367E-05
damped:  g(F)=  0.000E+00 g(S)=  0.000E+00 dE (1.order)= 0.000E+00
 bond charge predicted
       N       E                     dE             d eps       ncg     rms          rms(c)
DAV:   1    -0.356427086448E+02    0.70455E-04   -0.94372E-02    96   0.275E+00    0.671E-02
DAV:   2    -0.356427500958E+02   -0.41451E-04   -0.11491E-03   112   0.275E-01    0.438E-02
DAV:   3    -0.356427562836E+02   -0.61879E-05   -0.50312E-05    80   0.760E-02    0.124E-02
DAV:   4    -0.356427631864E+02   -0.69028E-05   -0.22555E-05    64   0.388E-02    0.535E-03
DAV:   5    -0.356427651598E+02   -0.19734E-05   -0.38205E-06    64   0.175E-02    0.144E-03
DAV:   6    -0.356427663656E+02   -0.12057E-05   -0.77008E-07    48   0.704E-03
  69 F= -.35642766E+02 E0= -.35642766E+02  d E =0.133420E-04
damped:  g(F)=  0.000E+00 g(S)=  0.000E+00 dE (1.order)= 0.000E+00
 bond charge predicted
       N       E                     dE             d eps       ncg     rms          rms(c)
DAV:   1    -0.356426371871E+02    0.12797E-03   -0.19580E-01    96   0.397E+00    0.969E-02
DAV:   2    -0.356427225059E+02   -0.85319E-04   -0.23836E-03   112   0.397E-01    0.631E-02
DAV:   3    -0.356427381796E+02   -0.15674E-04   -0.10461E-04    80   0.110E-01    0.178E-02
DAV:   4    -0.356427527157E+02   -0.14536E-04   -0.46754E-05    64   0.560E-02    0.771E-03
DAV:   5    -0.356427564248E+02   -0.37092E-05   -0.78652E-06    64   0.253E-02    0.209E-03
DAV:   6    -0.356427585657E+02   -0.21409E-05   -0.15794E-06    48   0.102E-02
  70 F= -.35642759E+02 E0= -.35642759E+02  d E =0.779984E-05
damped:  g(F)=  0.000E+00 g(S)=  0.000E+00 dE (1.order)= 0.000E+00
 bond charge predicted
       N       E                     dE             d eps       ncg     rms          rms(c)
DAV:   1    -0.356425134852E+02    0.24294E-03   -0.39316E-01    96   0.564E+00    0.138E-01
DAV:   2    -0.356426945257E+02   -0.18104E-03   -0.47880E-03   112   0.564E-01    0.896E-02
DAV:   3    -0.356427250450E+02   -0.30519E-04   -0.24226E-04   112   0.156E-01    0.247E-02
DAV:   4    -0.356427514160E+02   -0.26371E-04   -0.60300E-05    96   0.623E-02    0.107E-02
DAV:   5    -0.356427576387E+02   -0.62226E-05   -0.81781E-06    64   0.258E-02    0.332E-03
DAV:   6    -0.356427617730E+02   -0.41343E-05   -0.14539E-06    48   0.102E-02
  71 F= -.35642762E+02 E0= -.35642762E+02  d E =-.320729E-05
damped:  g(F)=  0.000E+00 g(S)=  0.000E+00 dE (1.order)= 0.000E+00
 bond charge predicted
       N       E                     dE             d eps       ncg     rms          rms(c)
DAV:   1    -0.356423114927E+02    0.44615E-03   -0.76155E-01    96   0.785E+00    0.192E-01
DAV:   2    -0.356426803557E+02   -0.36886E-03   -0.92691E-03   112   0.785E-01    0.125E-01
DAV:   3    -0.356427164007E+02   -0.36045E-04   -0.46928E-04   112   0.217E-01    0.346E-02
DAV:   4    -0.356427706195E+02   -0.54219E-04   -0.13310E-04   128   0.873E-02    0.164E-02
DAV:   5    -0.356427794364E+02   -0.88170E-05   -0.63170E-06    64   0.255E-02    0.478E-03
DAV:   6    -0.356427868737E+02   -0.74372E-05   -0.24432E-06    64   0.127E-02
  72 F= -.35642787E+02 E0= -.35642787E+02  d E =-.251007E-04
damped:  g(F)=  0.000E+00 g(S)=  0.000E+00 dE (1.order)= 0.000E+00
 bond charge predicted
       N       E                     dE             d eps       ncg     rms          rms(c)
DAV:   1    -0.356420628688E+02    0.71657E-03   -0.12754E+00    96   0.102E+01    0.249E-01
DAV:   2    -0.356427304172E+02   -0.66755E-03   -0.15568E-02   112   0.102E+00    0.162E-01
DAV:   3    -0.356427275328E+02    0.28844E-05   -0.78525E-04   116   0.281E-01    0.452E-02
DAV:   4    -0.356428266390E+02   -0.99106E-04   -0.22287E-04   128   0.113E-01    0.212E-02
DAV:   5    -0.356428418366E+02   -0.15198E-04   -0.10778E-05    64   0.332E-02    0.622E-03
DAV:   6    -0.356428547792E+02   -0.12943E-04   -0.41287E-06    64   0.165E-02
  73 F= -.35642855E+02 E0= -.35642855E+02  d E =-.679055E-04
damped:  g(F)=  0.000E+00 g(S)=  0.000E+00 dE (1.order)= 0.000E+00
 bond charge predicted
       N       E                     dE             d eps       ncg     rms          rms(c)
DAV:   1    -0.356417869653E+02    0.10549E-02   -0.18826E+00    96   0.124E+01    0.304E-01
DAV:   2    -0.356428517634E+02   -0.10648E-02   -0.23044E-02   112   0.124E+00    0.198E-01
DAV:   3    -0.356427754900E+02    0.76273E-04   -0.11624E-03   124   0.342E-01    0.553E-02
DAV:   4    -0.356429241888E+02   -0.14870E-03   -0.32969E-04   116   0.138E-01    0.258E-02
DAV:   5    -0.356429483825E+02   -0.24194E-04   -0.16024E-05    64   0.404E-02    0.779E-03
DAV:   6    -0.356429672173E+02   -0.18835E-04   -0.61938E-06    80   0.201E-02
  74 F= -.35642967E+02 E0= -.35642967E+02  d E =-.112438E-03
damped:  g(F)=  0.000E+00 g(S)=  0.000E+00 dE (1.order)= 0.000E+00
 bond charge predicted
       N       E                     dE             d eps       ncg     rms          rms(c)
DAV:   1    -0.356415822486E+02    0.13661E-02   -0.23007E+00    96   0.137E+01    0.339E-01
DAV:   2    -0.356429047626E+02   -0.13225E-02   -0.28137E-02   112   0.136E+00    0.221E-01
DAV:   3    -0.356427805391E+02    0.12422E-03   -0.14869E-03   128   0.384E-01    0.626E-02
DAV:   4    -0.356429476243E+02   -0.16709E-03   -0.41136E-04   128   0.156E-01    0.292E-02
DAV:   5    -0.356429776077E+02   -0.29983E-04   -0.21810E-05    64   0.478E-02    0.961E-03
DAV:   6    -0.356430039497E+02   -0.26342E-04   -0.90674E-06    80   0.251E-02
  75 F= -.35643004E+02 E0= -.35643004E+02  d E =-.367324E-04
damped:  g(F)=  0.000E+00 g(S)=  0.000E+00 dE (1.order)= 0.000E+00
 bond charge predicted
       N       E                     dE             d eps       ncg     rms          rms(c)
DAV:   1    -0.356431208830E+02   -0.14328E-03   -0.27234E-03    96   0.496E-01    0.226E-02
DAV:   2    -0.356431297071E+02   -0.88241E-05   -0.63110E-05    96   0.734E-02    0.115E-02
DAV:   3    -0.356431413610E+02   -0.11654E-04   -0.14832E-05    64   0.378E-02    0.532E-03
DAV:   4    -0.356431575532E+02   -0.16192E-04   -0.74629E-06    80   0.251E-02    0.201E-03
DAV:   5    -0.356431672173E+02   -0.96640E-05   -0.15294E-06    64   0.118E-02    0.107E-03
DAV:   6    -0.356431752453E+02   -0.80280E-05   -0.62356E-07    96   0.598E-03
  76 F= -.35643175E+02 E0= -.35643175E+02  d E =-.171296E-03
damped:  g(F)=  0.000E+00 g(S)=  0.000E+00 dE (1.order)= 0.000E+00
 bond charge predicted
       N       E                     dE             d eps       ncg     rms          rms(c)
DAV:   1    -0.356431580598E+02    0.91574E-05   -0.51612E-03    96   0.676E-01    0.269E-02
DAV:   2    -0.356431561348E+02    0.19251E-05   -0.10578E-04    92   0.933E-02    0.146E-02
DAV:   3    -0.356431575843E+02   -0.14495E-05   -0.23195E-05    72   0.469E-02    0.699E-03
DAV:   4    -0.356431626790E+02   -0.50947E-05   -0.10481E-05    88   0.303E-02    0.255E-03
DAV:   5    -0.356431655366E+02   -0.28576E-05   -0.19272E-06    72   0.139E-02    0.129E-03
DAV:   6    -0.356431677407E+02   -0.22042E-05   -0.51177E-07    80   0.635E-03
  77 F= -.35643168E+02 E0= -.35643168E+02  d E =0.750458E-05
damped:  g(F)=  0.000E+00 g(S)=  0.000E+00 dE (1.order)= 0.000E+00
 bond charge predicted
       N       E                     dE             d eps       ncg     rms          rms(c)
DAV:   1    -0.356431377470E+02    0.27790E-04   -0.41275E-03    96   0.573E-01    0.146E-02
DAV:   2    -0.356431394916E+02   -0.17447E-05   -0.46962E-05    80   0.587E-02    0.916E-03
DAV:   3    -0.356431414648E+02   -0.19731E-05   -0.75850E-06    80   0.254E-02    0.324E-03
DAV:   4    -0.356431429949E+02   -0.15301E-05   -0.22046E-06    72   0.126E-02    0.135E-03
DAV:   5    -0.356431439733E+02   -0.97836E-06   -0.54380E-07    80   0.577E-03    0.483E-04
DAV:   6    -0.356431446976E+02   -0.72438E-06   -0.18935E-07    76   0.296E-03
  78 F= -.35643145E+02 E0= -.35643145E+02  d E =0.230431E-04
damped:  g(F)=  0.000E+00 g(S)=  0.000E+00 dE (1.order)= 0.000E+00
 bond charge predicted
       N       E                     dE             d eps       ncg     rms          rms(c)
DAV:   1    -0.356432138593E+02   -0.69886E-04   -0.65890E-03    96   0.744E-01    0.218E-02
DAV:   2    -0.356432137888E+02    0.70573E-07   -0.10157E-04    68   0.884E-02    0.130E-02
DAV:   3    -0.356432136111E+02    0.17761E-06   -0.17802E-05    96   0.397E-02    0.644E-03
DAV:   4    -0.356432148625E+02   -0.12514E-05   -0.69869E-06    64   0.245E-02    0.253E-03
DAV:   5    -0.356432152115E+02   -0.34895E-06   -0.14266E-06    92   0.113E-02    0.975E-04
DAV:   6    -0.356432153768E+02   -0.16531E-06   -0.36633E-07    64   0.501E-03
  79 F= -.35643215E+02 E0= -.35643215E+02  d E =-.706792E-04
damped:  g(F)=  0.000E+00 g(S)=  0.000E+00 dE (1.order)= 0.000E+00
 bond charge predicted
       N       E                     dE             d eps       ncg     rms          rms(c)
DAV:   1    -0.356431931822E+02    0.22029E-04   -0.86612E-03    96   0.866E-01    0.286E-02
DAV:   2    -0.356431912914E+02    0.18908E-05   -0.17872E-04    96   0.111E-01    0.175E-02
DAV:   3    -0.356431872746E+02    0.40168E-05   -0.13289E-05    96   0.383E-02    0.954E-03
DAV:   4    -0.356431879836E+02   -0.70897E-06   -0.12086E-05    64   0.336E-02    0.296E-03
DAV:   5    -0.356431880553E+02   -0.71692E-07   -0.23570E-06    64   0.159E-02    0.162E-03
DAV:   6    -0.356431882252E+02   -0.16997E-06   -0.53885E-07    48   0.648E-03
  80 F= -.35643188E+02 E0= -.35643188E+02  d E =0.271516E-04
damped:  g(F)=  0.000E+00 g(S)=  0.000E+00 dE (1.order)= 0.000E+00
 bond charge predicted
       N       E                     dE             d eps       ncg     rms          rms(c)
DAV:   1    -0.356432017724E+02   -0.13717E-04   -0.55132E-05    48   0.726E-02    0.321E-03
DAV:   2    -0.356432021397E+02   -0.36732E-06   -0.34578E-06    48   0.182E-02    0.183E-03
DAV:   3    -0.356432022767E+02   -0.13703E-06   -0.38101E-07    48   0.603E-03    0.119E-03
DAV:   4    -0.356432026658E+02   -0.38910E-06   -0.34063E-07    64   0.607E-03    0.388E-04
DAV:   5    -0.356432027996E+02   -0.13379E-06   -0.95240E-08    48   0.289E-03    0.301E-04
DAV:   6    -0.356432029534E+02   -0.15375E-06   -0.32114E-08    48   0.129E-03
  81 F= -.35643203E+02 E0= -.35643203E+02  d E =-.147281E-04
damped:  g(F)=  0.000E+00 g(S)=  0.000E+00 dE (1.order)= 0.000E+00
 bond charge predicted
       N       E                     dE             d eps       ncg     rms          rms(c)
DAV:   1    -0.356432201815E+02   -0.17382E-04   -0.18861E-04    64   0.134E-01    0.562E-03
DAV:   2    -0.356432208098E+02   -0.62834E-06   -0.11458E-05    76   0.333E-02    0.308E-03
DAV:   3    -0.356432207916E+02    0.18210E-07   -0.12851E-06    48   0.109E-02    0.200E-03
DAV:   4    -0.356432209067E+02   -0.11508E-06   -0.84519E-07    80   0.976E-03    0.605E-04
DAV:   5    -0.356432209703E+02   -0.63674E-07   -0.23745E-07    48   0.465E-03    0.516E-04
DAV:   6    -0.356432210227E+02   -0.52401E-07   -0.63990E-08    48   0.209E-03
  82 F= -.35643221E+02 E0= -.35643221E+02  d E =-.180694E-04
damped:  g(F)=  0.000E+00 g(S)=  0.000E+00 dE (1.order)= 0.000E+00
 bond charge predicted
       N       E                     dE             d eps       ncg     rms          rms(c)
DAV:   1    -0.356432315130E+02   -0.10543E-04   -0.37596E-04   108   0.184E-01    0.770E-03
DAV:   2    -0.356432308249E+02    0.68816E-06   -0.83334E-06    64   0.266E-02    0.408E-03
DAV:   3    -0.356432306220E+02    0.20284E-06   -0.19919E-06    96   0.138E-02    0.188E-03
DAV:   4    -0.356432306834E+02   -0.61310E-07   -0.89763E-07    64   0.877E-03    0.713E-04
DAV:   5    -0.356432307029E+02   -0.19494E-07   -0.18360E-07    48   0.402E-03    0.381E-04
DAV:   6    -0.356432307246E+02   -0.21702E-07   -0.62158E-08    48   0.186E-03
  83 F= -.35643231E+02 E0= -.35643231E+02  d E =-.970181E-05
damped:  g(F)=  0.000E+00 g(S)=  0.000E+00 dE (1.order)= 0.000E+00
 bond charge predicted
       N       E                     dE             d eps       ncg     rms          rms(c)
DAV:   1    -0.356432292699E+02    0.14330E-05   -0.63167E-04    96   0.234E-01    0.775E-03
DAV:   2    -0.356432286932E+02    0.57668E-06   -0.10808E-05    64   0.296E-02    0.451E-03
DAV:   3    -0.356432285763E+02    0.11692E-06   -0.21507E-06    48   0.140E-02    0.222E-03
DAV:   4    -0.356432286844E+02   -0.10811E-06   -0.93724E-07    48   0.889E-03    0.830E-04
DAV:   5    -0.356432287094E+02   -0.24971E-07   -0.19579E-07    48   0.412E-03    0.387E-04
DAV:   6    -0.356432287403E+02   -0.30923E-07   -0.66809E-08    48   0.185E-03
  84 F= -.35643229E+02 E0= -.35643229E+02  d E =0.198426E-05
damped:  g(F)=  0.000E+00 g(S)=  0.000E+00 dE (1.order)= 0.000E+00
 bond charge predicted
       N       E                     dE             d eps       ncg     rms          rms(c)
DAV:   1    -0.356432209913E+02    0.77181E-05   -0.11690E-03    96   0.311E-01    0.846E-03
DAV:   2    -0.356432206410E+02    0.35023E-06   -0.14606E-05    64   0.340E-02    0.517E-03
DAV:   3    -0.356432208883E+02   -0.24722E-06   -0.25255E-06    48   0.149E-02    0.219E-03
DAV:   4    -0.356432211188E+02   -0.23050E-06   -0.88271E-07    48   0.828E-03    0.877E-04
DAV:   5    -0.356432211740E+02   -0.55203E-07   -0.20896E-07    48   0.387E-03    0.328E-04
DAV:   6    -0.356432212251E+02   -0.51142E-07   -0.75070E-08    48   0.186E-03
  85 F= -.35643221E+02 E0= -.35643221E+02  d E =0.751519E-05
damped:  g(F)=  0.000E+00 g(S)=  0.000E+00 dE (1.order)= 0.000E+00
 bond charge predicted
       N       E                     dE             d eps       ncg     rms          rms(c)
DAV:   1    -0.356432171753E+02    0.39987E-05   -0.19818E-03    96   0.400E-01    0.986E-03
DAV:   2    -0.356432169398E+02    0.23549E-06   -0.21011E-05    64   0.402E-02    0.617E-03
DAV:   3    -0.356432178655E+02   -0.92569E-06   -0.33803E-06    64   0.170E-02    0.168E-03
DAV:   4    -0.356432180838E+02   -0.21830E-06   -0.91135E-07    48   0.784E-03    0.732E-04
DAV:   5    -0.356432181614E+02   -0.77599E-07   -0.25251E-07    48   0.374E-03    0.281E-04
DAV:   6    -0.356432182274E+02   -0.66036E-07   -0.10091E-07    48   0.209E-03
  86 F= -.35643218E+02 E0= -.35643218E+02  d E =0.299769E-05
damped:  g(F)=  0.000E+00 g(S)=  0.000E+00 dE (1.order)= 0.000E+00
 bond charge predicted
       N       E                     dE             d eps       ncg     rms          rms(c)
DAV:   1    -0.356432244469E+02   -0.62855E-05   -0.39445E-03    96   0.563E-01    0.138E-02
DAV:   2    -0.356432239760E+02    0.47086E-06   -0.41519E-05    68   0.565E-02    0.862E-03
DAV:   3    -0.356432260601E+02   -0.20840E-05   -0.65392E-06    76   0.236E-02    0.217E-03
DAV:   4    -0.356432264467E+02   -0.38660E-06   -0.17230E-06    48   0.107E-02    0.924E-04
DAV:   5    -0.356432265750E+02   -0.12834E-06   -0.48356E-07    48   0.521E-03    0.347E-04
DAV:   6    -0.356432266687E+02   -0.93700E-07   -0.18135E-07    48   0.291E-03
  87 F= -.35643227E+02 E0= -.35643227E+02  d E =-.844128E-05
damped:  g(F)=  0.000E+00 g(S)=  0.000E+00 dE (1.order)= 0.000E+00
 bond charge predicted
       N       E                     dE             d eps       ncg     rms          rms(c)
DAV:   1    -0.356432389290E+02   -0.12354E-04   -0.74622E-03    96   0.777E-01    0.194E-02
DAV:   2    -0.356432378223E+02    0.11067E-05   -0.82077E-05    64   0.798E-02    0.121E-02
DAV:   3    -0.356432413782E+02   -0.35559E-05   -0.13088E-05    96   0.336E-02    0.369E-03
DAV:   4    -0.356432424338E+02   -0.10556E-05   -0.36977E-06    48   0.161E-02    0.157E-03
DAV:   5    -0.356432426589E+02   -0.22516E-06   -0.95725E-07    48   0.776E-03    0.639E-04
DAV:   6    -0.356432428334E+02   -0.17446E-06   -0.35043E-07    48   0.430E-03
  88 F= -.35643243E+02 E0= -.35643243E+02  d E =-.161647E-04
damped:  g(F)=  0.000E+00 g(S)=  0.000E+00 dE (1.order)= 0.000E+00
 bond charge predicted
       N       E                     dE             d eps       ncg     rms          rms(c)
DAV:   1    -0.356432441572E+02   -0.14983E-05   -0.13156E-02    96   0.103E+00    0.259E-02
DAV:   2    -0.356432452197E+02   -0.10625E-05   -0.16971E-04    96   0.107E-01    0.167E-02
DAV:   3    -0.356432475746E+02   -0.23548E-05   -0.79455E-06    80   0.305E-02    0.618E-03
DAV:   4    -0.356432503825E+02   -0.28079E-05   -0.42217E-06    64   0.182E-02    0.222E-03
DAV:   5    -0.356432507060E+02   -0.32345E-06   -0.87025E-07    48   0.899E-03    0.812E-04
DAV:   6    -0.356432509683E+02   -0.26234E-06   -0.19580E-07    48   0.361E-03
  89 F= -.35643251E+02 E0= -.35643251E+02  d E =-.813490E-05
damped:  g(F)=  0.000E+00 g(S)=  0.000E+00 dE (1.order)= 0.000E+00
 bond charge predicted
       N       E                     dE             d eps       ncg     rms          rms(c)
DAV:   1    -0.356432364329E+02    0.14273E-04   -0.21682E-02    96   0.132E+00    0.326E-02
DAV:   2    -0.356432408600E+02   -0.44271E-05   -0.26959E-04   112   0.134E-01    0.211E-02
DAV:   3    -0.356432441848E+02   -0.33248E-05   -0.12166E-05    64   0.376E-02    0.682E-03
DAV:   4    -0.356432478165E+02   -0.36317E-05   -0.58995E-06    48   0.208E-02    0.268E-03
DAV:   5    -0.356432484690E+02   -0.65252E-06   -0.11214E-06    64   0.992E-03    0.860E-04
DAV:   6    -0.356432489092E+02   -0.44018E-06   -0.24646E-07    48   0.401E-03
  90 F= -.35643249E+02 E0= -.35643249E+02  d E =0.205908E-05
damped:  g(F)=  0.000E+00 g(S)=  0.000E+00 dE (1.order)= 0.000E+00
 bond charge predicted
       N       E                     dE             d eps       ncg     rms          rms(c)
DAV:   1    -0.356432363667E+02    0.12102E-04   -0.34365E-02    96   0.166E+00    0.404E-02
DAV:   2    -0.356432471847E+02   -0.10818E-04   -0.41756E-04   112   0.166E-01    0.263E-02
DAV:   3    -0.356432517060E+02   -0.45214E-05   -0.18510E-05    80   0.462E-02    0.746E-03
DAV:   4    -0.356432556909E+02   -0.39848E-05   -0.82535E-06    48   0.236E-02    0.323E-03
DAV:   5    -0.356432568085E+02   -0.11176E-05   -0.14011E-06    64   0.106E-02    0.878E-04
DAV:   6    -0.356432574378E+02   -0.62928E-06   -0.29137E-07    48   0.430E-03
  91 F= -.35643257E+02 E0= -.35643257E+02  d E =-.852855E-05
damped:  g(F)=  0.000E+00 g(S)=  0.000E+00 dE (1.order)= 0.000E+00
 bond charge predicted
       N       E                     dE             d eps       ncg     rms          rms(c)
DAV:   1    -0.356432398354E+02    0.16973E-04   -0.53245E-02    96   0.207E+00    0.507E-02
DAV:   2    -0.356432581406E+02   -0.18305E-04   -0.65458E-04   112   0.208E-01    0.331E-02
DAV:   3    -0.356432619844E+02   -0.38438E-05   -0.29685E-05    80   0.587E-02    0.103E-02
DAV:   4    -0.356432695088E+02   -0.75243E-05   -0.13559E-05    64   0.312E-02    0.409E-03
DAV:   5    -0.356432709749E+02   -0.14661E-05   -0.24328E-06    48   0.144E-02    0.134E-03
DAV:   6    -0.356432719422E+02   -0.96732E-06   -0.52410E-07    48   0.597E-03
  92 F= -.35643272E+02 E0= -.35643272E+02  d E =-.145044E-04
damped:  g(F)=  0.000E+00 g(S)=  0.000E+00 dE (1.order)= 0.000E+00
 bond charge predicted
       N       E                     dE             d eps       ncg     rms          rms(c)
DAV:   1    -0.356432212728E+02    0.49702E-04   -0.78912E-02    96   0.252E+00    0.614E-02
DAV:   2    -0.356432501026E+02   -0.28830E-04   -0.96376E-04   112   0.253E-01    0.400E-02
DAV:   3    -0.356432550207E+02   -0.49180E-05   -0.42975E-05    80   0.707E-02    0.120E-02
DAV:   4    -0.356432652051E+02   -0.10184E-04   -0.19468E-05    48   0.369E-02    0.492E-03
DAV:   5    -0.356432672915E+02   -0.20864E-05   -0.34296E-06    64   0.169E-02    0.151E-03
DAV:   6    -0.356432686382E+02   -0.13467E-05   -0.72071E-07    48   0.695E-03
  93 F= -.35643269E+02 E0= -.35643269E+02  d E =0.330400E-05
damped:  g(F)=  0.000E+00 g(S)=  0.000E+00 dE (1.order)= 0.000E+00
 bond charge predicted
       N       E                     dE             d eps       ncg     rms          rms(c)
DAV:   1    -0.356432181883E+02    0.49103E-04   -0.11143E-01    96   0.300E+00    0.728E-02
DAV:   2    -0.356432628215E+02   -0.44633E-04   -0.13577E-03   112   0.300E-01    0.474E-02
DAV:   3    -0.356432697975E+02   -0.69760E-05   -0.60144E-05    80   0.838E-02    0.140E-02
DAV:   4    -0.356432821714E+02   -0.12374E-04   -0.27304E-05    88   0.435E-02    0.585E-03
DAV:   5    -0.356432851021E+02   -0.29307E-05   -0.47908E-06    64   0.200E-02    0.163E-03
DAV:   6    -0.356432868153E+02   -0.17132E-05   -0.96389E-07    48   0.801E-03
  94 F= -.35643287E+02 E0= -.35643287E+02  d E =-.181771E-04
damped:  g(F)=  0.000E+00 g(S)=  0.000E+00 dE (1.order)= 0.000E+00
 bond charge predicted
       N       E                     dE             d eps       ncg     rms          rms(c)
DAV:   1    -0.356432010886E+02    0.84013E-04   -0.15159E-01    96   0.350E+00    0.851E-02
DAV:   2    -0.356432634204E+02   -0.62332E-04   -0.18476E-03   112   0.350E-01    0.555E-02
DAV:   3    -0.356432704590E+02   -0.70386E-05   -0.83647E-05    80   0.989E-02    0.166E-02
DAV:   4    -0.356432873498E+02   -0.16891E-04   -0.37764E-05    96   0.515E-02    0.688E-03
DAV:   5    -0.356432909364E+02   -0.35866E-05   -0.66733E-06    64   0.237E-02    0.204E-03
DAV:   6    -0.356432932211E+02   -0.22848E-05   -0.13688E-06    48   0.964E-03
  95 F= -.35643293E+02 E0= -.35643293E+02  d E =-.640585E-05
damped:  g(F)=  0.000E+00 g(S)=  0.000E+00 dE (1.order)= 0.000E+00
 bond charge predicted
       N       E                     dE             d eps       ncg     rms          rms(c)
DAV:   1    -0.356431881652E+02    0.10277E-03   -0.18745E-01    96   0.390E+00    0.963E-02
DAV:   2    -0.356432632024E+02   -0.75037E-04   -0.23570E-03   112   0.398E-01    0.622E-02
DAV:   3    -0.356432678310E+02   -0.46286E-05   -0.10649E-04    84   0.111E-01    0.214E-02
DAV:   4    -0.356432915374E+02   -0.23706E-04   -0.52680E-05    72   0.629E-02    0.796E-03
DAV:   5    -0.356432961990E+02   -0.46615E-05   -0.10558E-05    64   0.309E-02    0.268E-03
DAV:   6    -0.356432990231E+02   -0.28242E-05   -0.22191E-06    48   0.124E-02
  96 F= -.35643299E+02 E0= -.35643299E+02  d E =-.580201E-05
damped:  g(F)=  0.000E+00 g(S)=  0.000E+00 dE (1.order)= 0.000E+00
 bond charge predicted
       N       E                     dE             d eps       ncg     rms          rms(c)
DAV:   1    -0.356431898908E+02    0.10631E-03   -0.19268E-01    96   0.396E+00    0.988E-02
DAV:   2    -0.356432575463E+02   -0.67656E-04   -0.24103E-03   112   0.404E-01    0.645E-02
DAV:   3    -0.356432606905E+02   -0.31442E-05   -0.12286E-04    96   0.119E-01    0.233E-02
DAV:   4    -0.356432848471E+02   -0.24157E-04   -0.58062E-05    96   0.683E-02    0.843E-03
DAV:   5    -0.356432892276E+02   -0.43806E-05   -0.11165E-05    64   0.319E-02    0.321E-03
DAV:   6    -0.356432928680E+02   -0.36404E-05   -0.25870E-06    48   0.139E-02
  97 F= -.35643293E+02 E0= -.35643293E+02  d E =0.615516E-05
damped:  g(F)=  0.000E+00 g(S)=  0.000E+00 dE (1.order)= 0.000E+00
 bond charge predicted
       N       E                     dE             d eps       ncg     rms          rms(c)
DAV:   1    -0.356433247275E+02   -0.35500E-04   -0.28077E-04    84   0.159E-01    0.817E-03
DAV:   2    -0.356433260531E+02   -0.13256E-05   -0.68242E-06    64   0.250E-02    0.391E-03
DAV:   3    -0.356433279298E+02   -0.18767E-05   -0.17675E-06    48   0.132E-02    0.175E-03
DAV:   4    -0.356433305555E+02   -0.26258E-05   -0.91854E-07    80   0.878E-03    0.642E-04
DAV:   5    -0.356433322931E+02   -0.17376E-05   -0.21023E-07    48   0.420E-03    0.334E-04
DAV:   6    -0.356433337236E+02   -0.14304E-05   -0.86323E-08    48   0.211E-03
  98 F= -.35643334E+02 E0= -.35643334E+02  d E =-.408556E-04
damped:  g(F)=  0.000E+00 g(S)=  0.000E+00 dE (1.order)= 0.000E+00
 bond charge predicted
[...]
DAV:   6    -0.356433627950E+02   -0.14387E-06   -0.26300E-07    48   0.356E-03
 110 F= -.35643363E+02 E0= -.35643363E+02  d E =-.224682E-05
damped:  g(F)=  0.000E+00 g(S)=  0.000E+00 dE (1.order)= 0.000E+00
 bond charge predicted
       N       E                     dE             d eps       ncg     rms          rms(c)
DAV:   1    -0.356433578470E+02    0.48042E-05   -0.10134E-02    96   0.908E-01    0.221E-02
DAV:   2    -0.356433599646E+02   -0.21177E-05   -0.10666E-04    68   0.909E-02    0.139E-02
DAV:   3    -0.356433619508E+02   -0.19861E-05   -0.17016E-05    64   0.382E-02    0.353E-03
DAV:   4    -0.356433627883E+02   -0.83754E-06   -0.44084E-06    48   0.173E-02    0.152E-03
DAV:   5    -0.356433631243E+02   -0.33600E-06   -0.12061E-06    48   0.837E-03    0.560E-04
DAV:   6    -0.356433633582E+02   -0.23387E-06   -0.44201E-07    48   0.467E-03
 111 F= -.35643363E+02 E0= -.35643363E+02  d E =-.563200E-06
damped:  g(F)=  0.000E+00 g(S)=  0.000E+00 dE (1.order)= 0.000E+00
 bond charge predicted
       N       E                     dE             d eps       ncg     rms          rms(c)
DAV:   1    -0.356433527995E+02    0.10325E-04   -0.16509E-02    96   0.116E+00    0.282E-02
DAV:   2    -0.356433591052E+02   -0.63057E-05   -0.20166E-04    96   0.116E-01    0.184E-02
DAV:   3    -0.356433598814E+02   -0.77627E-06   -0.91200E-06    64   0.325E-02    0.538E-03
DAV:   4    -0.356433613144E+02   -0.14330E-05   -0.40424E-06    48   0.167E-02    0.227E-03
DAV:   5    -0.356433617348E+02   -0.42040E-06   -0.69361E-07    48   0.754E-03    0.694E-04
DAV:   6    -0.356433620383E+02   -0.30351E-06   -0.14965E-07    48   0.312E-03
 112 F= -.35643362E+02 E0= -.35643362E+02  d E =0.131984E-05
damped:  g(F)=  0.000E+00 g(S)=  0.000E+00 dE (1.order)= 0.000E+00
 bond charge predicted
       N       E                     dE             d eps       ncg     rms          rms(c)
DAV:   1    -0.356433447305E+02    0.17004E-04   -0.25968E-02    96   0.145E+00    0.352E-02
DAV:   2    -0.356433546984E+02   -0.99680E-05   -0.31472E-04   112   0.145E-01    0.229E-02
DAV:   3    -0.356433565881E+02   -0.18896E-05   -0.13975E-05    80   0.403E-02    0.654E-03
DAV:   4    -0.356433588685E+02   -0.22804E-05   -0.62180E-06    48   0.206E-02    0.281E-03
DAV:   5    -0.356433595812E+02   -0.71267E-06   -0.10597E-06    48   0.930E-03    0.775E-04
DAV:   6    -0.356433600346E+02   -0.45343E-06   -0.22209E-07    48   0.377E-03
 113 F= -.35643360E+02 E0= -.35643360E+02  d E =0.200375E-05
damped:  g(F)=  0.000E+00 g(S)=  0.000E+00 dE (1.order)= 0.000E+00
 bond charge predicted
       N       E                     dE             d eps       ncg     rms          rms(c)
DAV:   1    -0.356433366901E+02    0.22891E-04   -0.39656E-02    96   0.179E+00    0.435E-02
DAV:   2    -0.356433516226E+02   -0.14932E-04   -0.48232E-04   112   0.179E-01    0.283E-02
DAV:   3    -0.356433551097E+02   -0.34871E-05   -0.21269E-05    80   0.499E-02    0.824E-03
DAV:   4    -0.356433586793E+02   -0.35696E-05   -0.96154E-06    48   0.256E-02    0.349E-03
DAV:   5    -0.356433597190E+02   -0.10397E-05   -0.16779E-06    64   0.118E-02    0.949E-04
DAV:   6    -0.356433603805E+02   -0.66146E-06   -0.34604E-07    48   0.473E-03
 114 F= -.35643360E+02 E0= -.35643360E+02  d E =-.345909E-06
damped:  g(F)=  0.000E+00 g(S)=  0.000E+00 dE (1.order)= 0.000E+00
 bond charge predicted
       N       E                     dE             d eps       ncg     rms          rms(c)
DAV:   1    -0.356433193343E+02    0.40385E-04   -0.58641E-02    96   0.218E+00    0.530E-02
DAV:   2    -0.356433410419E+02   -0.21708E-04   -0.71532E-04   112   0.218E-01    0.345E-02
DAV:   3    -0.356433465969E+02   -0.55550E-05   -0.31597E-05    80   0.609E-02    0.102E-02
DAV:   4    -0.356433518893E+02   -0.52923E-05   -0.14419E-05    64   0.315E-02    0.425E-03
DAV:   5    -0.356433533834E+02   -0.14941E-05   -0.25604E-06    48   0.147E-02    0.120E-03
DAV:   6    -0.356433543587E+02   -0.97531E-06   -0.52725E-07    48   0.587E-03
 115 F= -.35643354E+02 E0= -.35643354E+02  d E =0.602181E-05
damped:  g(F)=  0.000E+00 g(S)=  0.000E+00 dE (1.order)= 0.000E+00
 bond charge predicted
       N       E                     dE             d eps       ncg     rms          rms(c)
DAV:   1    -0.356433026566E+02    0.50727E-04   -0.83353E-02    96   0.260E+00    0.631E-02
DAV:   2    -0.356433340080E+02   -0.31351E-04   -0.10108E-03   112   0.259E-01    0.411E-02
DAV:   3    -0.356433424909E+02   -0.84829E-05   -0.44597E-05    80   0.722E-02    0.118E-02
DAV:   4    -0.356433496762E+02   -0.71853E-05   -0.20002E-05    64   0.368E-02    0.503E-03
DAV:   5    -0.356433517720E+02   -0.20958E-05   -0.34376E-06    48   0.167E-02    0.134E-03
DAV:   6    -0.356433530588E+02   -0.12868E-05   -0.69597E-07    48   0.669E-03
 116 F= -.35643353E+02 E0= -.35643353E+02  d E =0.129987E-05
damped:  g(F)=  0.000E+00 g(S)=  0.000E+00 dE (1.order)= 0.000E+00
 bond charge predicted
       N       E                     dE             d eps       ncg     rms          rms(c)
DAV:   1    -0.356432950443E+02    0.56728E-04   -0.11366E-01    96   0.303E+00    0.738E-02
DAV:   2    -0.356433389433E+02   -0.43899E-04   -0.13805E-03   112   0.303E-01    0.481E-02
DAV:   3    -0.356433493983E+02   -0.10455E-04   -0.61385E-05    80   0.847E-02    0.138E-02
DAV:   4    -0.356433593238E+02   -0.99255E-05   -0.27550E-05    64   0.432E-02    0.590E-03
DAV:   5    -0.356433620859E+02   -0.27621E-05   -0.47648E-06    64   0.198E-02    0.161E-03
DAV:   6    -0.356433637499E+02   -0.16640E-05   -0.97861E-07    48   0.796E-03
 117 F= -.35643364E+02 E0= -.35643364E+02  d E =-.106911E-04
damped:  g(F)=  0.000E+00 g(S)=  0.000E+00 dE (1.order)= 0.000E+00
 bond charge predicted
       N       E                     dE             d eps       ncg     rms          rms(c)
DAV:   1    -0.356432862175E+02    0.75868E-04   -0.14662E-01    96   0.344E+00    0.840E-02
DAV:   2    -0.356433457976E+02   -0.59580E-04   -0.17754E-03   112   0.344E-01    0.546E-02
DAV:   3    -0.356433573582E+02   -0.11561E-04   -0.79674E-05    80   0.960E-02    0.154E-02
DAV:   4    -0.356433698441E+02   -0.12486E-04   -0.35187E-05    64   0.485E-02    0.674E-03
DAV:   5    -0.356433734291E+02   -0.35850E-05   -0.60075E-06    64   0.219E-02    0.179E-03
DAV:   6    -0.356433755086E+02   -0.20795E-05   -0.12342E-06    48   0.884E-03
 118 F= -.35643376E+02 E0= -.35643376E+02  d E =-.117587E-04
damped:  g(F)=  0.000E+00 g(S)=  0.000E+00 dE (1.order)= 0.000E+00
 bond charge predicted
       N       E                     dE             d eps       ncg     rms          rms(c)
DAV:   1    -0.356432697411E+02    0.10369E-03   -0.16675E-01    96   0.366E+00    0.912E-02
DAV:   2    -0.356433325726E+02   -0.62832E-04   -0.20266E-03   112   0.369E-01    0.595E-02
DAV:   3    -0.356433423963E+02   -0.98237E-05   -0.10108E-04    80   0.106E-01    0.178E-02
DAV:   4    -0.356433572793E+02   -0.14883E-04   -0.42111E-05    96   0.546E-02    0.754E-03
DAV:   5    -0.356433610138E+02   -0.37346E-05   -0.71999E-06    64   0.240E-02    0.264E-03
DAV:   6    -0.356433639797E+02   -0.29658E-05   -0.16233E-06    48   0.105E-02
 119 F= -.35643364E+02 E0= -.35643364E+02  d E =0.115289E-04
damped:  g(F)=  0.000E+00 g(S)=  0.000E+00 dE (1.order)= 0.000E+00
 bond charge predicted
       N       E                     dE             d eps       ncg     rms          rms(c)
DAV:   1    -0.356433790631E+02   -0.18049E-04   -0.88081E-05    48   0.914E-02    0.390E-03
DAV:   2    -0.356433809421E+02   -0.18789E-05   -0.55439E-06    48   0.229E-02    0.218E-03
DAV:   3    -0.356433823821E+02   -0.14400E-05   -0.67308E-07    48   0.768E-03    0.143E-03
DAV:   4    -0.356433851744E+02   -0.27923E-05   -0.48688E-07    84   0.685E-03    0.441E-04
DAV:   5    -0.356433861048E+02   -0.93043E-06   -0.14677E-07    48   0.333E-03    0.371E-04
DAV:   6    -0.356433871442E+02   -0.10394E-05   -0.61063E-08    48   0.171E-03
 120 F= -.35643387E+02 E0= -.35643387E+02  d E =-.231645E-04
damped:  g(F)=  0.000E+00 g(S)=  0.000E+00 dE (1.order)= 0.000E+00
 bond charge predicted
       N       E                     dE             d eps       ncg     rms          rms(c)
DAV:   1    -0.356434025303E+02   -0.16425E-04   -0.27903E-04   120   0.159E-01    0.769E-03
DAV:   2    -0.356434024661E+02    0.64239E-07   -0.67678E-06    72   0.245E-02    0.377E-03
DAV:   3    -0.356434028197E+02   -0.35360E-06   -0.17654E-06    52   0.131E-02    0.166E-03
DAV:   4    -0.356434034762E+02   -0.65655E-06   -0.79158E-07    88   0.832E-03    0.615E-04
DAV:   5    -0.356434038873E+02   -0.41106E-06   -0.15626E-07    48   0.376E-03    0.325E-04
DAV:   6    -0.356434042166E+02   -0.32932E-06   -0.43098E-08    60   0.174E-03
 121 F= -.35643404E+02 E0= -.35643404E+02  d E =-.170724E-04
damped:  g(F)=  0.000E+00 g(S)=  0.000E+00 dE (1.order)= 0.000E+00
 bond charge predicted
       N       E                     dE             d eps       ncg     rms          rms(c)
DAV:   1    -0.356434059224E+02   -0.20351E-05   -0.36496E-04   104   0.182E-01    0.812E-03
DAV:   2    -0.356434053944E+02    0.52807E-06   -0.86024E-06    80   0.271E-02    0.413E-03
DAV:   3    -0.356434053182E+02    0.76185E-07   -0.20427E-06    84   0.140E-02    0.190E-03
DAV:   4    -0.356434055227E+02   -0.20449E-06   -0.92286E-07    72   0.898E-03    0.702E-04
DAV:   5    -0.356434056364E+02   -0.11371E-06   -0.17526E-07    48   0.407E-03    0.381E-04
DAV:   6    -0.356434057366E+02   -0.10025E-06   -0.51266E-08    68   0.189E-03
 122 F= -.35643406E+02 E0= -.35643406E+02  d E =-.152001E-05
damped:  g(F)=  0.000E+00 g(S)=  0.000E+00 dE (1.order)= 0.000E+00
 bond charge predicted
       N       E                     dE             d eps       ncg     rms          rms(c)
DAV:   1    -0.356433991525E+02    0.64839E-05   -0.26316E-04    96   0.153E-01    0.554E-03
DAV:   2    -0.356433989135E+02    0.23894E-06   -0.52894E-06    64   0.206E-02    0.311E-03
DAV:   3    -0.356433988517E+02    0.61860E-07   -0.10771E-06    48   0.994E-03    0.156E-03
DAV:   4    -0.356433989285E+02   -0.76869E-07   -0.47941E-07    64   0.637E-03    0.567E-04
DAV:   5    -0.356433989804E+02   -0.51846E-07   -0.10476E-07    48   0.292E-03    0.287E-04
DAV:   6    -0.356433990268E+02   -0.46464E-07   -0.41642E-08    48   0.132E-03
 123 F= -.35643399E+02 E0= -.35643399E+02  d E =0.670978E-05
damped:  g(F)=  0.000E+00 g(S)=  0.000E+00 dE (1.order)= 0.000E+00
 bond charge predicted
       N       E                     dE             d eps       ncg     rms          rms(c)
DAV:   1    -0.356433979475E+02    0.10328E-05   -0.18340E-04    96   0.122E-01    0.314E-03
DAV:   2    -0.356433979801E+02   -0.32555E-07   -0.21539E-06    48   0.128E-02    0.194E-03
DAV:   3    -0.356433980553E+02   -0.75231E-07   -0.35531E-07    48   0.529E-03    0.657E-04
DAV:   4    -0.356433981160E+02   -0.60723E-07   -0.11626E-07    48   0.258E-03    0.258E-04
DAV:   5    -0.356433981646E+02   -0.48585E-07   -0.48820E-08    48   0.123E-03    0.951E-05
DAV:   6    -0.356433982041E+02   -0.39455E-07   -0.33461E-08    48   0.655E-04
 124 F= -.35643398E+02 E0= -.35643398E+02  d E =0.822752E-06
damped:  g(F)=  0.000E+00 g(S)=  0.000E+00 dE (1.order)= 0.000E+00
 bond charge predicted
       N       E                     dE             d eps       ncg     rms          rms(c)
DAV:   1    -0.356434064590E+02   -0.82944E-05   -0.25428E-04    96   0.146E-01    0.422E-03
DAV:   2    -0.356434064594E+02   -0.43269E-09   -0.35181E-06    96   0.166E-02    0.257E-03
DAV:   3    -0.356434064847E+02   -0.25283E-07   -0.64650E-07    64   0.755E-03    0.117E-03
DAV:   4    -0.356434065506E+02   -0.65870E-07   -0.26579E-07    48   0.446E-03    0.460E-04
DAV:   5    -0.356434065804E+02   -0.29823E-07   -0.75503E-08    52   0.209E-03    0.172E-04
DAV:   6    -0.356434066014E+02   -0.21054E-07   -0.40213E-08    48   0.955E-04
 125 F= -.35643407E+02 E0= -.35643407E+02  d E =-.839736E-05
damped:  g(F)=  0.000E+00 g(S)=  0.000E+00 dE (1.order)= 0.000E+00
 bond charge predicted
       N       E                     dE             d eps       ncg     rms          rms(c)
DAV:   1    -0.356434159358E+02   -0.93554E-05   -0.51742E-04    96   0.213E-01    0.736E-03
DAV:   2    -0.356434155642E+02    0.37158E-06   -0.94317E-06    72   0.276E-02    0.426E-03
DAV:   3    -0.356434154136E+02    0.15054E-06   -0.19069E-06    96   0.133E-02    0.212E-03
DAV:   4    -0.356434154778E+02   -0.64203E-07   -0.87007E-07    56   0.860E-03    0.796E-04
DAV:   5    -0.356434154941E+02   -0.16282E-07   -0.18392E-07    48   0.398E-03    0.367E-04
DAV:   6    -0.356434155157E+02   -0.21611E-07   -0.64543E-08    48   0.174E-03
 126 F= -.35643416E+02 E0= -.35643416E+02  d E =-.891429E-05
damped:  g(F)=  0.000E+00 g(S)=  0.000E+00 dE (1.order)= 0.000E+00
 bond charge predicted
       N       E                     dE             d eps       ncg     rms          rms(c)
DAV:   1    -0.356434136232E+02    0.18709E-05   -0.71859E-04    96   0.250E-01    0.833E-03
DAV:   2    -0.356434132209E+02    0.40236E-06   -0.12662E-05    64   0.318E-02    0.488E-03
DAV:   3    -0.356434130466E+02    0.17425E-06   -0.24681E-06    48   0.151E-02    0.244E-03
DAV:   4    -0.356434131398E+02   -0.93136E-07   -0.10904E-06    48   0.967E-03    0.917E-04
DAV:   5    -0.356434131638E+02   -0.24068E-07   -0.22548E-07    48   0.446E-03    0.405E-04
DAV:   6    -0.356434131996E+02   -0.35821E-07   -0.71706E-08    48   0.194E-03
 127 F= -.35643413E+02 E0= -.35643413E+02  d E =0.231610E-05
damped:  g(F)=  0.000E+00 g(S)=  0.000E+00 dE (1.order)= 0.000E+00
 bond charge predicted
       N       E                     dE             d eps       ncg     rms          rms(c)
DAV:   1    -0.356434121753E+02    0.98855E-06   -0.59308E-04    96   0.220E-01    0.568E-03
DAV:   2    -0.356434122459E+02   -0.70671E-07   -0.69437E-06    48   0.229E-02    0.355E-03
DAV:   3    -0.356434123706E+02   -0.12471E-06   -0.11378E-06    48   0.987E-03    0.117E-03
DAV:   4    -0.356434124613E+02   -0.90669E-07   -0.33689E-07    48   0.482E-03    0.495E-04
DAV:   5    -0.356434125150E+02   -0.53658E-07   -0.98456E-08    48   0.229E-03    0.178E-04
DAV:   6    -0.356434125699E+02   -0.54882E-07   -0.49901E-08    48   0.122E-03
 128 F= -.35643413E+02 E0= -.35643413E+02  d E =0.629783E-06
damped:  g(F)=  0.000E+00 g(S)=  0.000E+00 dE (1.order)= 0.000E+00
 bond charge predicted
       N       E                     dE             d eps       ncg     rms          rms(c)
DAV:   1    -0.356434231450E+02   -0.10630E-04   -0.74843E-04    96   0.252E-01    0.735E-03
DAV:   2    -0.356434230228E+02    0.12227E-06   -0.10679E-05    72   0.289E-02    0.448E-03
DAV:   3    -0.356434230005E+02    0.22321E-07   -0.18340E-06    80   0.128E-02    0.206E-03
DAV:   4    -0.356434231421E+02   -0.14165E-06   -0.70167E-07    80   0.754E-03    0.761E-04
DAV:   5    -0.356434232016E+02   -0.59471E-07   -0.16327E-07    48   0.345E-03    0.282E-04
DAV:   6    -0.356434232421E+02   -0.40573E-07   -0.61979E-08    56   0.154E-03
 129 F= -.35643423E+02 E0= -.35643423E+02  d E =-.106723E-04
damped:  g(F)=  0.000E+00 g(S)=  0.000E+00 dE (1.order)= 0.000E+00
 bond charge predicted
       N       E                     dE             d eps       ncg     rms          rms(c)
DAV:   1    -0.356434238078E+02   -0.60623E-06   -0.99510E-04    96   0.297E-01    0.106E-02
DAV:   2    -0.356434229211E+02    0.88672E-06   -0.18812E-05    64   0.391E-02    0.606E-03
DAV:   3    -0.356434225454E+02    0.37573E-06   -0.36505E-06    96   0.185E-02    0.303E-03
DAV:   4    -0.356434226439E+02   -0.98534E-07   -0.16620E-06    64   0.120E-02    0.110E-03
DAV:   5    -0.356434226806E+02   -0.36664E-07   -0.32509E-07    48   0.551E-03    0.525E-04
DAV:   6    -0.356434227185E+02   -0.37949E-07   -0.10101E-07    48   0.240E-03
 130 F= -.35643423E+02 E0= -.35643423E+02  d E =0.523641E-06
damped:  g(F)=  0.000E+00 g(S)=  0.000E+00 dE (1.order)= 0.000E+00
 bond charge predicted
       N       E                     dE             d eps       ncg     rms          rms(c)
DAV:   1    -0.356434243852E+02   -0.17046E-05   -0.69476E-06    48   0.257E-02    0.108E-03
DAV:   2    -0.356434244638E+02   -0.78568E-07   -0.45024E-07    48   0.645E-03    0.611E-04
DAV:   3    -0.356434245064E+02   -0.42648E-07   -0.72902E-08    48   0.213E-03    0.393E-04
DAV:   4    -0.356434245935E+02   -0.87054E-07   -0.60567E-08    64   0.193E-03    0.120E-04
DAV:   5    -0.356434246227E+02   -0.29217E-07   -0.35624E-08    48   0.905E-04    0.976E-05
DAV:   6    -0.356434246580E+02   -0.35327E-07   -0.29108E-08    48   0.419E-04
 131 F= -.35643425E+02 E0= -.35643425E+02  d E =-.193951E-05
damped:  g(F)=  0.000E+00 g(S)=  0.000E+00 dE (1.order)= 0.000E+00
 bond charge predicted
       N       E                     dE             d eps       ncg     rms          rms(c)
DAV:   1    -0.356434268069E+02   -0.21842E-05   -0.24083E-05    48   0.479E-02    0.189E-03
DAV:   2    -0.356434269320E+02   -0.12510E-06   -0.14523E-06    64   0.119E-02    0.106E-03
DAV:   3    -0.356434269541E+02   -0.22126E-07   -0.18530E-07    48   0.387E-03    0.689E-04
DAV:   4    -0.356434269947E+02   -0.40653E-07   -0.11995E-07    80   0.330E-03    0.203E-04
DAV:   5    -0.356434270078E+02   -0.13046E-07   -0.50631E-08    48   0.157E-03    0.177E-04
DAV:   6    -0.356434270196E+02   -0.11785E-07   -0.29910E-08    48   0.714E-04
 132 F= -.35643427E+02 E0= -.35643427E+02  d E =-.236155E-05
damped:  g(F)=  0.000E+00 g(S)=  0.000E+00 dE (1.order)= 0.000E+00
 bond charge predicted
       N       E                     dE             d eps       ncg     rms          rms(c)
DAV:   1    -0.356434281856E+02   -0.11778E-05   -0.44379E-05    48   0.648E-02    0.223E-03
DAV:   2    -0.356434283421E+02   -0.15653E-06   -0.25872E-06    68   0.159E-02    0.134E-03
DAV:   3    -0.356434283391E+02    0.30145E-08   -0.31614E-07    48   0.517E-03    0.900E-04
DAV:   4    -0.356434283361E+02    0.29845E-08   -0.16872E-07    84   0.407E-03    0.260E-04
DAV:   5    -0.356434283395E+02   -0.33328E-08   -0.65887E-08    48   0.194E-03    0.232E-04
DAV:   6    -0.356434283434E+02   -0.39306E-08   -0.31706E-08    48   0.924E-04
 133 F= -.35643428E+02 E0= -.35643428E+02  d E =-.132381E-05
damped:  g(F)=  0.000E+00 g(S)=  0.000E+00 dE (1.order)= 0.000E+00
 bond charge predicted
       N       E                     dE             d eps       ncg     rms          rms(c)
DAV:   1    -0.356434280018E+02    0.33760E-06   -0.63511E-05    48   0.765E-02    0.224E-03
DAV:   2    -0.356434282324E+02   -0.23057E-06   -0.35409E-06    52   0.187E-02    0.142E-03
DAV:   3    -0.356434282420E+02   -0.96268E-08   -0.43334E-07    48   0.594E-03    0.997E-04
DAV:   4    -0.356434282399E+02    0.21951E-08   -0.17710E-07    48   0.410E-03    0.295E-04
DAV:   5    -0.356434282450E+02   -0.51416E-08   -0.74557E-08    48   0.200E-03    0.243E-04
DAV:   6    -0.356434282506E+02   -0.56395E-08   -0.32483E-08    48   0.985E-04
 134 F= -.35643428E+02 E0= -.35643428E+02  d E =0.927470E-07
damped:  g(F)=  0.000E+00 g(S)=  0.000E+00 dE (1.order)= 0.000E+00
 bond charge predicted
       N       E                     dE             d eps       ncg     rms          rms(c)
DAV:   1    -0.356434270264E+02    0.12186E-05   -0.90088E-05    48   0.889E-02    0.223E-03
DAV:   2    -0.356434273952E+02   -0.36885E-06   -0.47180E-06    48   0.217E-02    0.142E-03
DAV:   3    -0.356434274422E+02   -0.46949E-07   -0.58545E-07    48   0.669E-03    0.938E-04
DAV:   4    -0.356434274600E+02   -0.17792E-07   -0.18622E-07    48   0.387E-03    0.257E-04
DAV:   5    -0.356434274690E+02   -0.89915E-08   -0.76158E-08    48   0.186E-03    0.221E-04
DAV:   6    -0.356434274752E+02   -0.62469E-08   -0.34172E-08    48   0.957E-04
 135 F= -.35643427E+02 E0= -.35643427E+02  d E =0.775423E-06
damped:  g(F)=  0.000E+00 g(S)=  0.000E+00 dE (1.order)= 0.000E+00
 reached required accuracy - stopping structural energy minimisation
