unknown system                          
           1
    30.000000    0.000000    0.000000
     0.000000   30.000000    0.000000
     0.000000    0.000000   30.000000
   H    C    N 
   3   2   1
Direct configuration=     1
   0.46323340  0.47629572  0.50873137
   0.47400749  0.52070435  0.47026271
   0.48183720  0.52934743  0.52882863
   0.48479977  0.50503460  0.50156618
   0.56661837  0.47802241  0.49321873
   0.52952146  0.49063035  0.49738701
Direct configuration=     2
   0.46322964  0.47629747  0.50872825
   0.47400534  0.52070647  0.47026234
   0.48183642  0.52934591  0.52882752
   0.48479876  0.50503441  0.50156440
   0.56660767  0.47802756  0.49322550
   0.52953985  0.49062303  0.49738662
Direct configuration=     3
   0.46322301  0.47630111  0.50872404
   0.47399984  0.52070976  0.47026259
   0.48183572  0.52934333  0.52882527
   0.48479839  0.50503350  0.50156131
   0.56659380  0.47803536  0.49323533
   0.52956693  0.49061182  0.49738608
Direct configuration=     4
   0.46322271  0.47630151  0.50872442
   0.47399884  0.52070970  0.47026300
   0.48183600  0.52934325  0.52882504
   0.48479899  0.50503320  0.50156121
   0.56659549  0.47803511  0.49323483
   0.52956567  0.49061210  0.49738613
Direct configuration=     5
   0.46322244  0.47630231  0.50872593
   0.47399646  0.52070926  0.47026413
   0.48183679  0.52934330  0.52882463
   0.48480018  0.50503262  0.50156125
   0.56659841  0.47803471  0.49323279
   0.52956341  0.49061266  0.49738589
Direct configuration=     6
   0.46322257  0.47630348  0.50872937
   0.47399233  0.52070806  0.47026631
   0.48183836  0.52934373  0.52882409
   0.48480193  0.50503179  0.50156173
   0.56660186  0.47803436  0.49322813
   0.52956065  0.49061345  0.49738500
Direct configuration=     7
   0.46322345  0.47630498  0.50873550
   0.47398609  0.52070574  0.47026982
   0.48184094  0.52934475  0.52882348
   0.48480416  0.50503075  0.50156292
   0.56660507  0.47803426  0.49321984
   0.52955796  0.49061437  0.49738308
Direct configuration=     8
   0.46322505  0.47630682  0.50874424
   0.47397780  0.52070235  0.47027464
   0.48184452  0.52934634  0.52882279
   0.48480674  0.50502954  0.50156481
   0.56660759  0.47803459  0.49320809
   0.52955596  0.49061520  0.49738007
Direct configuration=     9
   0.46322731  0.47630896  0.50875548
   0.47396752  0.52069794  0.47028068
   0.48184907  0.52934849  0.52882203
   0.48480956  0.50502820  0.50156739
   0.56660904  0.47803546  0.49319309
   0.52955514  0.49061576  0.49737596
Direct configuration=    10
   0.46323052  0.47631166  0.50877076
   0.47395389  0.52069192  0.47028875
   0.48185524  0.52935147  0.52882112
   0.48481283  0.50502663  0.50157104
   0.56660913  0.47803718  0.49317289
   0.52955602  0.49061591  0.49737009
Direct configuration=    11
   0.46323482  0.47631502  0.50879091
   0.47393617  0.52068400  0.47029920
   0.48186341  0.52935548  0.52882004
   0.48481657  0.50502478  0.50157599
   0.56660756  0.47803997  0.49314645
   0.52955907  0.49061550  0.49736206
Direct configuration=    12
   0.46324035  0.47631911  0.50881695
   0.47391350  0.52067379  0.47031247
   0.48187409  0.52936073  0.52881879
   0.48482084  0.50502263  0.50158254
   0.56660459  0.47804388  0.49311254
   0.52956420  0.49061456  0.49735138
Direct configuration=    13
   0.46324726  0.47632398  0.50885005
   0.47388489  0.52066092  0.47032897
   0.48188792  0.52936746  0.52881737
   0.48482577  0.50502010  0.50159100
   0.56660144  0.47804871  0.49306966
   0.52957024  0.49061345  0.49733763
Direct configuration=    14
   0.46325559  0.47632961  0.50889138
   0.47384934  0.52064502  0.47034905
   0.48190566  0.52937595  0.52881588
   0.48483158  0.50501715  0.50160164
   0.56660034  0.47805393  0.49301635
   0.52957497  0.49061287  0.49732040
Direct configuration=    15
   0.46326514  0.47633587  0.50894198
   0.47380585  0.52062585  0.47037286
   0.48192811  0.52938646  0.52881451
   0.48483841  0.50501370  0.50161462
   0.56660348  0.47805924  0.49295158
   0.52957643  0.49061331  0.49729917
Direct configuration=    16
   0.46327540  0.47634253  0.50900291
   0.47375329  0.52060327  0.47040036
   0.48195636  0.52939929  0.52881359
   0.48484564  0.50500979  0.50163007
   0.56661082  0.47806538  0.49287498
   0.52957586  0.49061406  0.49727283
Direct configuration=    17
   0.46328505  0.47634922  0.50907455
   0.47369068  0.52057763  0.47043100
   0.48199154  0.52941462  0.52881380
   0.48485182  0.50500562  0.50164790
   0.56661791  0.47807494  0.49278812
   0.52958027  0.49061214  0.49723939
Direct configuration=    18
   0.46329198  0.47635543  0.50915545
   0.47361844  0.52055007  0.47046315
   0.48203484  0.52943227  0.52881607
   0.48485540  0.50500099  0.50166721
   0.56662211  0.47809030  0.49269578
   0.52959443  0.49060496  0.49719713
Direct configuration=    19
   0.46329321  0.47636080  0.50924123
   0.47353943  0.52052279  0.47049402
   0.48208786  0.52945095  0.52882147
   0.48485768  0.50499425  0.50168536
   0.56663974  0.47810792  0.49260571
   0.52959917  0.49059714  0.49714703
Direct configuration=    20
   0.46329268  0.47636078  0.50924086
   0.47353953  0.52052303  0.47049371
   0.48208834  0.52945075  0.52882160
   0.48485754  0.50499412  0.50168507
   0.56664007  0.47810831  0.49260699
   0.52959894  0.49059686  0.49714660
Direct configuration=    21
   0.46329163  0.47636076  0.50924012
   0.47353974  0.52052351  0.47049310
   0.48208930  0.52945035  0.52882186
   0.48485725  0.50499386  0.50168448
   0.56664070  0.47810910  0.49260953
   0.52959849  0.49059628  0.49714574
Direct configuration=    22
   0.46329010  0.47636073  0.50923911
   0.47354000  0.52052419  0.47049224
   0.48209078  0.52944976  0.52882224
   0.48485679  0.50499348  0.50168363
   0.56664158  0.47811029  0.49261319
   0.52959785  0.49059541  0.49714440
Direct configuration=    23
   0.46328819  0.47636071  0.50923807
   0.47354016  0.52052496  0.47049123
   0.48209289  0.52944903  0.52882274
   0.48485619  0.50499297  0.50168259
   0.56664263  0.47811194  0.49261770
   0.52959703  0.49059425  0.49714248
Direct configuration=    24
   0.46328608  0.47636073  0.50923741
   0.47353997  0.52052564  0.47049029
   0.48209584  0.52944824  0.52882334
   0.48485546  0.50499235  0.50168151
   0.56664373  0.47811409  0.49262254
   0.52959602  0.49059281  0.49713974
Direct configuration=    25
   0.46328404  0.47636079  0.50923763
   0.47353907  0.52052602  0.47048967
   0.48209981  0.52944750  0.52882399
   0.48485466  0.50499163  0.50168055
   0.56664474  0.47811677  0.49262696
   0.52959478  0.49059116  0.49713602
Direct configuration=    26
   0.46328219  0.47636091  0.50923949
   0.47353685  0.52052582  0.47048970
   0.48210556  0.52944686  0.52882473
   0.48485373  0.50499073  0.50167984
   0.56664566  0.47812037  0.49263053
   0.52959310  0.49058917  0.49713053
Direct configuration=    27
   0.46328042  0.47636146  0.50924385
   0.47353296  0.52052489  0.47049056
   0.48211385  0.52944679  0.52882549
   0.48485274  0.50498978  0.50167955
   0.56664635  0.47812439  0.49263256
   0.52959077  0.49058655  0.49712282
Direct configuration=    28
   0.46327926  0.47636226  0.50925158
   0.47352652  0.52052278  0.47049280
   0.48212521  0.52944717  0.52882627
   0.48485169  0.50498864  0.50167992
   0.56664684  0.47812954  0.49263207
   0.52958757  0.49058345  0.49711218
Direct configuration=    29
   0.46327865  0.47636353  0.50926349
   0.47351701  0.52051934  0.47049664
   0.48214042  0.52944824  0.52882703
   0.48485061  0.50498736  0.50168110
   0.56664711  0.47813573  0.49262855
   0.52958327  0.49057963  0.49709802
Direct configuration=    30
   0.46327839  0.47636563  0.50928046
   0.47350384  0.52051444  0.47050223
   0.48216045  0.52945036  0.52882768
   0.48484951  0.50498601  0.50168322
   0.56664710  0.47814272  0.49262154
   0.52957777  0.49057465  0.49707970
Direct configuration=    31
   0.46327825  0.47636882  0.50930335
   0.47348631  0.52050802  0.47050971
   0.48218624  0.52945375  0.52882821
   0.48484838  0.50498460  0.50168633
   0.56664672  0.47815054  0.49261072
   0.52957114  0.49056805  0.49705651
Direct configuration=    32
   0.46327811  0.47637317  0.50933285
   0.47346345  0.52050004  0.47051923
   0.48221861  0.52945842  0.52882868
   0.48484719  0.50498290  0.50169035
   0.56664610  0.47815971  0.49259597
   0.52956356  0.49055947  0.49702777
Direct configuration=    33
   0.46327747  0.47637884  0.50936934
   0.47343431  0.52049075  0.47053071
   0.48225843  0.52946432  0.52882918
   0.48484594  0.50498063  0.50169490
   0.56664595  0.47817058  0.49257775
   0.52955489  0.49054855  0.49699298
Direct configuration=    34
   0.46327537  0.47638597  0.50941235
   0.47339814  0.52048081  0.47054362
   0.48230639  0.52947100  0.52882979
   0.48484448  0.50497745  0.50169932
   0.56664770  0.47818357  0.49255769
   0.52954487  0.49053480  0.49695210
Direct configuration=    35
   0.46326974  0.47639478  0.50945929
   0.47335493  0.52047180  0.47055684
   0.48236244  0.52947698  0.52883033
   0.48484249  0.50497311  0.50170182
   0.56665249  0.47819980  0.49254058
   0.52953481  0.49051707  0.49690601
Direct configuration=    36
   0.46325849  0.47640523  0.50950293
   0.47330864  0.52046604  0.47056844
   0.48242261  0.52947934  0.52882993
   0.48483987  0.50496791  0.50170057
   0.56666220  0.47821947  0.49253427
   0.52952506  0.49049549  0.49685875
Direct configuration=    37
   0.46325795  0.47640540  0.50950190
   0.47330895  0.52046650  0.47056814
   0.48242254  0.52947878  0.52882973
   0.48483966  0.50496779  0.50170012
   0.56666259  0.47821982  0.49253599
   0.52952519  0.49049519  0.49685901
Direct configuration=    38
   0.46325689  0.47640573  0.50949986
   0.47330955  0.52046740  0.47056755
   0.48242239  0.52947768  0.52882934
   0.48483927  0.50496755  0.50169924
   0.56666339  0.47822053  0.49253939
   0.52952539  0.49049459  0.49685952
Direct configuration=    39
   0.46325531  0.47640621  0.50949686
   0.47331041  0.52046874  0.47056669
   0.48242221  0.52947605  0.52882878
   0.48483874  0.50496719  0.50169792
   0.56666463  0.47822157  0.49254440
   0.52952558  0.49049372  0.49686024
Direct configuration=    40
   0.46325321  0.47640682  0.50949300
   0.47331149  0.52047047  0.47056558
   0.48242203  0.52947395  0.52882805
   0.48483817  0.50496671  0.50169619
   0.56666631  0.47822294  0.49255093
   0.52952567  0.49049260  0.49686113
Direct configuration=    41
   0.46325063  0.47640753  0.50948838
   0.47331274  0.52047256  0.47056426
   0.48242191  0.52947143  0.52882718
   0.48483762  0.50496611  0.50169407
   0.56666838  0.47822466  0.49255886
   0.52952562  0.49049121  0.49686213
Direct configuration=    42
   0.46324759  0.47640833  0.50948318
   0.47331402  0.52047495  0.47056277
   0.48242196  0.52946857  0.52882616
   0.48483716  0.50496539  0.50169158
   0.56667071  0.47822678  0.49256811
   0.52952545  0.49048950  0.49686308
Direct configuration=    43
   0.46324377  0.47640929  0.50947700
   0.47331534  0.52047782  0.47056103
   0.48242235  0.52946510  0.52882488
   0.48483687  0.50496440  0.50168839
   0.56667340  0.47822972  0.49257968
   0.52952516  0.49048719  0.49686391
Direct configuration=    44
   0.46323909  0.47641047  0.50947000
   0.47331646  0.52048116  0.47055909
   0.48242342  0.52946106  0.52882329
   0.48483682  0.50496309  0.50168445
   0.56667650  0.47823367  0.49259376
   0.52952462  0.49048408  0.49686429
Direct configuration=    45
   0.46323366  0.47641192  0.50946264
   0.47331696  0.52048476  0.47055714
   0.48242577  0.52945651  0.52882128
   0.48483697  0.50496136  0.50167991
   0.56668003  0.47823903  0.49261026
   0.52952352  0.49047996  0.49686365
Direct configuration=    46
   0.46322769  0.47641376  0.50945587
   0.47331615  0.52048827  0.47055552
   0.48243010  0.52945173  0.52881883
   0.48483751  0.50495916  0.50167502
   0.56668417  0.47824593  0.49262836
   0.52952130  0.49047471  0.49686128
Direct configuration=    47
   0.46322171  0.47641603  0.50945089
   0.47331339  0.52049119  0.47055470
   0.48243714  0.52944715  0.52881597
   0.48483774  0.50495663  0.50167035
   0.56668859  0.47825437  0.49264658
   0.52951835  0.49046818  0.49685638
Direct configuration=    48
   0.46321620  0.47641869  0.50944891
   0.47330817  0.52049302  0.47055504
   0.48244740  0.52944326  0.52881288
   0.48483706  0.50495401  0.50166634
   0.56669313  0.47826415  0.49266327
   0.52951497  0.49046044  0.49684843
Direct configuration=    49
   0.46321148  0.47642147  0.50945119
   0.47329986  0.52049333  0.47055684
   0.48246137  0.52944061  0.52880985
   0.48483541  0.50495138  0.50166327
   0.56669813  0.47827492  0.49267675
   0.52951066  0.49045185  0.49683698
Direct configuration=    50
   0.46320745  0.47642398  0.50945861
   0.47328809  0.52049198  0.47055995
   0.48247934  0.52943972  0.52880727
   0.48483301  0.50494868  0.50166115
   0.56670330  0.47828663  0.49268613
   0.52950572  0.49044256  0.49682176
Direct configuration=    51
   0.46320365  0.47642570  0.50947173
   0.47327252  0.52048904  0.47056386
   0.48250130  0.52944090  0.52880549
   0.48483080  0.50494587  0.50166007
   0.56670780  0.47829932  0.49269102
   0.52950082  0.49043269  0.49680271
Direct configuration=    52
   0.46319950  0.47642655  0.50949016
   0.47325353  0.52048483  0.47056763
   0.48252668  0.52944384  0.52880455
   0.48482993  0.50494266  0.50166002
   0.56671307  0.47831213  0.49269191
   0.52949417  0.49042347  0.49678062
Direct configuration=    53
   0.46319499  0.47642821  0.50950965
   0.47323465  0.52048018  0.47057077
   0.48255290  0.52944634  0.52880356
   0.48482591  0.50493947  0.50165907
   0.56671361  0.47832617  0.49269416
   0.52949481  0.49041308  0.49675769
Direct configuration=    54
   0.46319485  0.47642836  0.50950888
   0.47323528  0.52048034  0.47057045
   0.48255245  0.52944586  0.52880332
   0.48482647  0.50493937  0.50165885
   0.56671754  0.47832477  0.49269470
   0.52949027  0.49041475  0.49675869
Direct configuration=    55
   0.46319428  0.47642865  0.50950663
   0.47323695  0.52048096  0.47056950
   0.48255111  0.52944472  0.52880285
   0.48482684  0.50493938  0.50165827
   0.56672123  0.47832333  0.49269712
   0.52948645  0.49041642  0.49676052
Direct configuration=    56
   0.46319412  0.47642867  0.50950617
   0.47323725  0.52048111  0.47056931
   0.48255082  0.52944456  0.52880282
   0.48482669  0.50493943  0.50165814
   0.56672044  0.47832357  0.49269778
   0.52948754  0.49041612  0.49676067
Direct configuration=    57
   0.46319373  0.47642870  0.50950502
   0.47323800  0.52048151  0.47056882
   0.48255013  0.52944416  0.52880276
   0.48482642  0.50493951  0.50165780
   0.56671916  0.47832398  0.49269935
   0.52948943  0.49041561  0.49676114
Direct configuration=    58
   0.46319300  0.47642870  0.50950289
   0.47323937  0.52048226  0.47056791
   0.48254889  0.52944345  0.52880267
   0.48482609  0.50493961  0.50165718
   0.56671789  0.47832440  0.49270212
   0.52949163  0.49041506  0.49676213
Direct configuration=    59
   0.46319184  0.47642866  0.50949943
   0.47324159  0.52048349  0.47056644
   0.48254692  0.52944233  0.52880254
   0.48482576  0.50493968  0.50165618
   0.56671720  0.47832466  0.49270643
   0.52949356  0.49041466  0.49676387
Direct configuration=    60
   0.46319010  0.47642855  0.50949427
   0.47324490  0.52048533  0.47056424
   0.48254402  0.52944069  0.52880239
   0.48482548  0.50493973  0.50165468
   0.56671754  0.47832468  0.49271270
   0.52949483  0.49041452  0.49676662
Direct configuration=    61
   0.46318763  0.47642833  0.50948688
   0.47324962  0.52048797  0.47056108
   0.48253993  0.52943838  0.52880219
   0.48482523  0.50493973  0.50165255
   0.56671912  0.47832440  0.49272154
   0.52949536  0.49041469  0.49677065
Direct configuration=    62
   0.46318373  0.47642794  0.50947529
   0.47325700  0.52049215  0.47055614
   0.48253358  0.52943483  0.52880191
   0.48482494  0.50493970  0.50164923
   0.56672235  0.47832376  0.49273529
   0.52949530  0.49041514  0.49677702
Direct configuration=    63
   0.46317760  0.47642734  0.50945722
   0.47326853  0.52049870  0.47054843
   0.48252378  0.52942942  0.52880151
   0.48482443  0.50493968  0.50164409
   0.56672732  0.47832273  0.49275670
   0.52949525  0.49041567  0.49678692
Direct configuration=    64
   0.46316806  0.47642645  0.50942927
   0.47328638  0.52050887  0.47053657
   0.48250874  0.52942122  0.52880091
   0.48482344  0.50493975  0.50163621
   0.56673389  0.47832142  0.49278988
   0.52949643  0.49041589  0.49680203
Direct configuration=    65
   0.46315366  0.47642504  0.50938643
   0.47331363  0.52052437  0.47051867
   0.48248573  0.52940866  0.52879998
   0.48482158  0.50493990  0.50162423
   0.56674196  0.47832032  0.49284072
   0.52950043  0.49041539  0.49682484
Direct configuration=    66
   0.46313293  0.47642226  0.50932122
   0.47335445  0.52054745  0.47049237
   0.48245041  0.52938891  0.52879859
   0.48481846  0.50493984  0.50160622
   0.56675242  0.47832088  0.49291747
   0.52950838  0.49041446  0.49685897
Direct configuration=    67
   0.46310468  0.47641635  0.50922299
   0.47341431  0.52058097  0.47045487
   0.48239628  0.52935734  0.52879659
   0.48481380  0.50493871  0.50157942
   0.56676820  0.47832593  0.49303131
   0.52951988  0.49041464  0.49690963
Direct configuration=    68
   0.46306842  0.47640404  0.50907695
   0.47350005  0.52062841  0.47040305
   0.48231385  0.52930676  0.52879381
   0.48480744  0.50493501  0.50154026
   0.56679439  0.47834075  0.49319695
   0.52953314  0.49041920  0.49698374
Direct configuration=    69
   0.46302414  0.47638042  0.50886358
   0.47362037  0.52069407  0.47033332
   0.48219018  0.52922735  0.52879010
   0.48479925  0.50492661  0.50148394
   0.56683530  0.47837421  0.49343388
   0.52954821  0.49043182  0.49708989
Direct configuration=    70
   0.46297226  0.47633875  0.50855781
   0.47378636  0.52078352  0.47024134
   0.48200854  0.52910674  0.52878523
   0.48478799  0.50491093  0.50140452
   0.56689209  0.47843928  0.49376746
   0.52957043  0.49045566  0.49723827
Direct configuration=    71
   0.46291273  0.47627079  0.50812881
   0.47401255  0.52090413  0.47012112
   0.48174884  0.52893126  0.52877879
   0.48477229  0.50488549  0.50129488
   0.56696661  0.47854970  0.49422899
   0.52960495  0.49049402  0.49744196
Direct configuration=    72
   0.46285389  0.47616903  0.50756968
   0.47429901  0.52105398  0.46997726
   0.48140366  0.52869481  0.52877052
   0.48475254  0.50484772  0.50115387
   0.56706508  0.47871654  0.49482036
   0.52964413  0.49055397  0.49770275
Direct configuration=    73
   0.46280497  0.47602921  0.50688388
   0.47464295  0.52122987  0.46981650
   0.48097218  0.52839975  0.52875861
   0.48472853  0.50479686  0.50098696
   0.56718646  0.47894361  0.49553356
   0.52968364  0.49063747  0.49801482
Direct configuration=    74
   0.46281503  0.47582770  0.50611704
   0.47499899  0.52140754  0.46967464
   0.48046174  0.52804746  0.52874259
   0.48469422  0.50472418  0.50082012
   0.56729554  0.47927946  0.49630057
   0.52975354  0.49075111  0.49833929
Direct configuration=    75
   0.46281194  0.47583210  0.50612394
   0.47500023  0.52140804  0.46967455
   0.48046762  0.52805689  0.52874124
   0.48469700  0.50472631  0.50082168
   0.56730660  0.47926327  0.49629519
   0.52973569  0.49075086  0.49833765
Direct configuration=    76
   0.46280605  0.47584066  0.50613720
   0.47500255  0.52140906  0.46967446
   0.48047872  0.52807525  0.52873848
   0.48470062  0.50473089  0.50082481
   0.56731762  0.47923503  0.49628542
   0.52971353  0.49074658  0.49833388
Direct configuration=    77
   0.46279824  0.47585254  0.50615523
   0.47500564  0.52141062  0.46967454
   0.48049349  0.52810056  0.52873437
   0.48470239  0.50473796  0.50082944
   0.56731388  0.47920194  0.49627312
   0.52970547  0.49073389  0.49832753
Direct configuration=    78
   0.46279003  0.47586620  0.50617556
   0.47500918  0.52141255  0.46967497
   0.48050974  0.52812967  0.52872910
   0.48470170  0.50474657  0.50083518
   0.56729335  0.47916888  0.49626005
   0.52971513  0.49071365  0.49831936
Direct configuration=    79
   0.46278397  0.47587977  0.50619595
   0.47501307  0.52141468  0.46967643
   0.48052510  0.52815997  0.52872242
   0.48470009  0.50475506  0.50084191
   0.56726573  0.47913678  0.49624669
   0.52973119  0.49069129  0.49831081
Direct configuration=    80
   0.46278422  0.47587969  0.50619535
   0.47501353  0.52141489  0.46967638
   0.48052466  0.52815991  0.52872217
   0.48470048  0.50475490  0.50084186
   0.56726778  0.47913602  0.49624716
   0.52972849  0.49069215  0.49831130
Direct configuration=    81
   0.46278438  0.47587946  0.50619302
   0.47501514  0.52141571  0.46967586
   0.48052316  0.52815949  0.52872163
   0.48470113  0.50475460  0.50084145
   0.56727160  0.47913464  0.49624944
   0.52972374  0.49069365  0.49831281
Direct configuration=    82
   0.46278404  0.47587903  0.50618769
   0.47501869  0.52141758  0.46967439
   0.48051992  0.52815832  0.52872078
   0.48470183  0.50475423  0.50084034
   0.56727651  0.47913294  0.49625508
   0.52971816  0.49069546  0.49831593
Direct configuration=    83
   0.46278282  0.47587832  0.50617798
   0.47502503  0.52142096  0.46967147
   0.48051416  0.52815598  0.52871957
   0.48470236  0.50475384  0.50083815
   0.56728168  0.47913133  0.49626573
   0.52971312  0.49069715  0.49832130
Direct configuration=    84
   0.46278035  0.47587725  0.50616245
   0.47503502  0.52142628  0.46966662
   0.48050507  0.52815202  0.52871794
   0.48470251  0.50475345  0.50083448
   0.56728639  0.47913021  0.49628311
   0.52970984  0.49069840  0.49832960
Direct configuration=    85
   0.46277667  0.47587583  0.50614125
   0.47504857  0.52143348  0.46965990
   0.48049273  0.52814648  0.52871589
   0.48470216  0.50475312  0.50082936
   0.56728989  0.47912980  0.49630711
   0.52970918  0.49069893  0.49834068
Direct configuration=    86
   0.46277125  0.47587386  0.50611128
   0.47506765  0.52144360  0.46965038
   0.48047532  0.52813853  0.52871312
   0.48470114  0.50475287  0.50082200
   0.56729191  0.47913029  0.49634130
   0.52971195  0.49069853  0.49835611
Direct configuration=    87
   0.46276372  0.47587126  0.50607047
   0.47509359  0.52145730  0.46963747
   0.48045166  0.52812759  0.52870941
   0.48469935  0.50475266  0.50081184
   0.56729235  0.47913184  0.49638802
   0.52971859  0.49069711  0.49837696
Direct configuration=    88
   0.46275376  0.47586792  0.50601642
   0.47512796  0.52147531  0.46962055
   0.48042035  0.52811298  0.52870451
   0.48469692  0.50475243  0.50079821
   0.56729241  0.47913416  0.49644993
   0.52972790  0.49069504  0.49840454
Direct configuration=    89
   0.46274112  0.47586378  0.50594646
   0.47517255  0.52149840  0.46959902
   0.48037990  0.52809390  0.52869805
   0.48469432  0.50475203  0.50078031
   0.56729496  0.47913648  0.49652988
   0.52973654  0.49069337  0.49844042
Direct configuration=    90
   0.46272569  0.47585881  0.50585794
   0.47522915  0.52152728  0.46957243
   0.48032880  0.52806950  0.52868957
   0.48469207  0.50475125  0.50075725
   0.56730357  0.47913786  0.49663071
   0.52974019  0.49069340  0.49848621
Direct configuration=    91
   0.46270757  0.47585311  0.50574798
   0.47529966  0.52156269  0.46954039
   0.48026536  0.52803882  0.52867840
   0.48469042  0.50475003  0.50072837
   0.56731881  0.47913824  0.49675553
   0.52973776  0.49069540  0.49854341
Direct configuration=    92
   0.46268716  0.47584692  0.50561358
   0.47538607  0.52160538  0.46950275
   0.48018776  0.52800080  0.52866359
   0.48468849  0.50474869  0.50069310
   0.56733397  0.47913962  0.49690780
   0.52973627  0.49069709  0.49861321
Direct configuration=    93
   0.46266555  0.47584059  0.50545316
   0.47548932  0.52165555  0.46945995
   0.48009482  0.52795474  0.52864402
   0.48468523  0.50474788  0.50065167
   0.56733899  0.47914494  0.49708932
   0.52974596  0.49069507  0.49869585
Direct configuration=    94
   0.46264527  0.47583455  0.50526515
   0.47561058  0.52171340  0.46941295
   0.47998544  0.52790014  0.52861815
   0.48468297  0.50474702  0.50060441
   0.56733890  0.47915185  0.49730088
   0.52975689  0.49069211  0.49879238
Direct configuration=    95
   0.46263101  0.47582851  0.50505563
   0.47574637  0.52177681  0.46936473
   0.47986281  0.52783939  0.52858567
   0.48468694  0.50474492  0.50055365
   0.56735627  0.47915191  0.49753327
   0.52973686  0.49069787  0.49890090
Direct configuration=    96
   0.46262525  0.47582113  0.50484268
   0.47588434  0.52184109  0.46931982
   0.47973560  0.52777999  0.52855039
   0.48468654  0.50474523  0.50050351
   0.56733101  0.47916171  0.49776744
   0.52975771  0.49069058  0.49900995
Direct configuration=    97
   0.46262621  0.47582076  0.50484441
   0.47588328  0.52184062  0.46932043
   0.47973639  0.52778087  0.52855063
   0.48468730  0.50474514  0.50050386
   0.56733551  0.47915987  0.49776512
   0.52975177  0.49069248  0.49900933
Direct configuration=    98
   0.46262791  0.47581995  0.50484706
   0.47588164  0.52183998  0.46932136
   0.47973747  0.52778241  0.52855106
   0.48468848  0.50474503  0.50050437
   0.56734279  0.47915676  0.49776149
   0.52974216  0.49069559  0.49900846
Direct configuration=    99
   0.46263055  0.47581809  0.50484913
   0.47588024  0.52183984  0.46932202
   0.47973769  0.52778465  0.52855174
   0.48468925  0.50474529  0.50050470
   0.56734926  0.47915319  0.49775816
   0.52973347  0.49069868  0.49900805
Direct configuration=   100
   0.46263057  0.47581797  0.50484877
   0.47588044  0.52183999  0.46932188
   0.47973743  0.52778462  0.52855173
   0.48468910  0.50474535  0.50050462
   0.56734862  0.47915333  0.49775856
   0.52973429  0.49069846  0.49900822
Direct configuration=   101
   0.46263050  0.47581771  0.50484766
   0.47588109  0.52184042  0.46932147
   0.47973668  0.52778445  0.52855171
   0.48468880  0.50474547  0.50050436
   0.56734750  0.47915362  0.49775981
   0.52973587  0.49069806  0.49900878
Direct configuration=   102
   0.46263025  0.47581727  0.50484530
   0.47588249  0.52184129  0.46932063
   0.47973517  0.52778399  0.52855164
   0.48468838  0.50474562  0.50050378
   0.56734613  0.47915403  0.49776247
   0.52973803  0.49069753  0.49900998
Direct configuration=   103
   0.46262975  0.47581655  0.50484113
   0.47588494  0.52184274  0.46931918
   0.47973256  0.52778297  0.52855151
   0.48468782  0.50474575  0.50050275
   0.56734481  0.47915471  0.49776713
   0.52974057  0.49069702  0.49901209
Direct configuration=   104
   0.46262895  0.47581543  0.50483456
   0.47588873  0.52184491  0.46931698
   0.47972845  0.52778114  0.52855129
   0.48468716  0.50474580  0.50050112
   0.56734389  0.47915578  0.49777443
   0.52974329  0.49069669  0.49901540
Direct configuration=   105
   0.46262814  0.47581345  0.50482496
   0.47589390  0.52184780  0.46931402
   0.47972228  0.52777791  0.52855105
   0.48468638  0.50474557  0.50049879
   0.56734375  0.47915804  0.49778483
   0.52974601  0.49069699  0.49902014
Direct configuration=   106
   0.46262689  0.47581052  0.50481045
   0.47590169  0.52185205  0.46930959
   0.47971298  0.52777287  0.52855064
   0.48468543  0.50474508  0.50049525
   0.56734469  0.47916138  0.49780054
   0.52974880  0.49069789  0.49902731
Direct configuration=   107
   0.46262514  0.47580636  0.50478980
   0.47591275  0.52185798  0.46930339
   0.47969973  0.52776551  0.52855002
   0.48468428  0.50474423  0.50049020
   0.56734722  0.47916605  0.49782285
   0.52975137  0.49069967  0.49903753
Direct configuration=   108
   0.46262282  0.47580070  0.50476152
   0.47592784  0.52186597  0.46929503
   0.47968158  0.52775526  0.52854911
   0.48468296  0.50474292  0.50048328
   0.56735188  0.47917239  0.49785332
   0.52975343  0.49070261  0.49905152
Direct configuration=   109
   0.46261973  0.47579337  0.50472390
   0.47594800  0.52187652  0.46928403
   0.47965749  0.52774157  0.52854777
   0.48468145  0.50474109  0.50047402
   0.56735900  0.47918049  0.49789387
   0.52975488  0.49070685  0.49907018
Direct configuration=   110
   0.46261581  0.47578406  0.50467492
   0.47597430  0.52189011  0.46926994
   0.47962615  0.52772365  0.52854583
   0.48467963  0.50473866  0.50046192
   0.56736858  0.47919095  0.49794667
   0.52975610  0.49071252  0.49909447
Direct configuration=   111
   0.46261103  0.47577249  0.50461227
   0.47600803  0.52190733  0.46925233
   0.47958612  0.52770060  0.52854304
   0.48467732  0.50473555  0.50044642
   0.56737994  0.47920455  0.49801420
   0.52975819  0.49071952  0.49912548
Direct configuration=   112
   0.46260536  0.47575850  0.50453349
   0.47605060  0.52192873  0.46923076
   0.47953587  0.52767149  0.52853898
   0.48467430  0.50473173  0.50042690
   0.56739178  0.47922217  0.49809924
   0.52976278  0.49072751  0.49916436
Direct configuration=   113
   0.46259897  0.47574204  0.50443600
   0.47610353  0.52195488  0.46920498
   0.47947377  0.52763532  0.52853310
   0.48467045  0.50472716  0.50040275
   0.56740301  0.47924459  0.49820455
   0.52977103  0.49073628  0.49921231
Direct configuration=   114
   0.46259243  0.47572307  0.50431718
   0.47616832  0.52198620  0.46917506
   0.47939818  0.52759087  0.52852469
   0.48466601  0.50472170  0.50037340
   0.56741406  0.47927224  0.49833274
   0.52978187  0.49074634  0.49927058
Direct configuration=   115
   0.46258641  0.47570220  0.50417490
   0.47624672  0.52202311  0.46914135
   0.47930794  0.52753745  0.52851262
   0.48466185  0.50471515  0.50033838
   0.56742760  0.47930386  0.49848603
   0.52979045  0.49075883  0.49934034
Direct configuration=   116
   0.46258268  0.47568013  0.50400811
   0.47633948  0.52206555  0.46910505
   0.47920241  0.52747452  0.52849540
   0.48465912  0.50470717  0.50029766
   0.56744542  0.47933847  0.49866560
   0.52979200  0.49077499  0.49942177
Direct configuration=   117
   0.46258548  0.47565686  0.50381702
   0.47644569  0.52211285  0.46906925