  22  22   0   0
  0.1227273E+04  0.3000000E-08  0.3000000E-08  0.3000000E-08  0.0000000E+00
  1.000000000000000E-004
  CAR 
 unknown system                          
      2.19924230    -28.20276198  301     -4.48840692      1.00000000
    -28.203  0.0000E+00  0.0000E+00
    -28.101  0.0000E+00  0.0000E+00
    -28.000  0.0000E+00  0.0000E+00
    -27.899  0.0000E+00  0.0000E+00
    -27.797  0.0000E+00  0.0000E+00
    -27.696  0.0000E+00  0.0000E+00
    -27.595  0.0000E+00  0.0000E+00
    -27.493  0.0000E+00  0.0000E+00
    -27.392  0.0000E+00  0.0000E+00
    -27.291  0.4747E-15  0.4811E-16
    -27.189  0.9919E-13  0.1010E-13
    -27.088  0.1258E-10  0.1285E-11
    -26.987  0.9644E-09  0.9902E-10
    -26.885  0.4471E-07  0.4630E-08
    -26.784  0.1256E-05  0.1319E-06
    -26.683  0.2140E-04  0.2301E-05
    -26.581  0.2218E-03  0.2477E-04
    -26.480  0.1399E-02  0.1666E-03
    -26.379  0.5383E-02  0.7121E-03
    -26.277  0.1265E-01  0.1994E-02
    -26.176  0.1816E-01  0.3834E-02
    -26.075  0.1595E-01  0.5451E-02
    -25.973  0.8590E-02  0.6321E-02
    -25.872  0.3102E-02  0.6635E-02
    -25.771  0.2297E-02  0.6868E-02
    -25.669  0.6306E-02  0.7507E-02
    -25.568  0.1370E-01  0.8895E-02
    -25.467  0.1837E-01  0.1076E-01
    -25.365  0.1507E-01  0.1228E-01
    -25.264  0.7557E-02  0.1305E-01
    -25.163  0.2315E-02  0.1328E-01
    -25.061  0.4327E-03  0.1333E-01
    -24.960  0.4928E-04  0.1333E-01
    -24.859  0.3413E-05  0.1333E-01
    -24.757  0.1435E-06  0.1333E-01
    -24.656  0.3659E-08  0.1333E-01
    -24.555  0.5646E-10  0.1333E-01
    -24.453  0.5568E-12  0.1333E-01
    -24.352  0.4326E-11  0.1333E-01
    -24.251  0.3720E-09  0.1333E-01
    -24.149  0.1935E-07  0.1333E-01
    -24.048  0.6098E-06  0.1333E-01
    -23.946  0.1166E-04  0.1333E-01
    -23.845  0.1354E-03  0.1335E-01
    -23.744  0.9572E-03  0.1345E-01
    -23.642  0.4126E-02  0.1386E-01
    -23.541  0.1086E-01  0.1496E-01
    -23.440  0.1746E-01  0.1673E-01
    -23.338  0.1716E-01  0.1847E-01
    -23.237  0.1032E-01  0.1952E-01
    -23.136  0.3814E-02  0.1990E-01
    -23.034  0.1101E-02  0.2002E-01
    -22.933  0.1657E-02  0.2018E-01
    -22.832  0.5763E-02  0.2077E-01
    -22.730  0.1312E-01  0.2210E-01
    -22.629  0.1827E-01  0.2395E-01
    -22.528  0.1557E-01  0.2553E-01
    -22.426  0.8109E-02  0.2635E-01
    -22.325  0.2580E-02  0.2661E-01
    -22.224  0.5009E-03  0.2666E-01
    -22.122  0.5926E-04  0.2667E-01
    -22.021  0.4265E-05  0.2667E-01
    -21.920  0.1864E-06  0.2667E-01
    -21.818  0.4938E-08  0.2667E-01
    -21.717  0.7919E-10  0.2667E-01
    -21.616  0.7675E-12  0.2667E-01
    -21.514  0.4492E-14  0.2667E-01
    -21.413  0.1461E-16  0.2667E-01
    -21.312  0.0000E+00  0.2667E-01
    -21.210  0.0000E+00  0.2667E-01
    -21.109  0.0000E+00  0.2667E-01
    -21.008  0.0000E+00  0.2667E-01
    -20.906  0.0000E+00  0.2667E-01
    -20.805  0.0000E+00  0.2667E-01
    -20.704  0.1607E-15  0.2667E-01
    -20.602  0.3715E-13  0.2667E-01
    -20.501  0.5190E-11  0.2667E-01
    -20.400  0.4379E-09  0.2667E-01
    -20.298  0.2234E-07  0.2667E-01
    -20.197  0.6904E-06  0.2667E-01
    -20.096  0.1294E-04  0.2667E-01
    -19.994  0.1475E-03  0.2668E-01
    -19.893  0.1023E-02  0.2679E-01
    -19.792  0.4324E-02  0.2722E-01
    -19.690  0.1116E-01  0.2836E-01
    -19.589  0.1761E-01  0.3014E-01
    -19.488  0.1698E-01  0.3186E-01
    -19.386  0.1001E-01  0.3288E-01
    -19.285  0.3608E-02  0.3324E-01
    -19.184  0.7935E-03  0.3332E-01
    -19.082  0.1064E-03  0.3333E-01
    -18.981  0.8696E-05  0.3333E-01
    -18.879  0.9730E-06  0.3333E-01
    -18.778  0.1058E-04  0.3333E-01
    -18.677  0.1249E-03  0.3335E-01
    -18.575  0.8994E-03  0.3344E-01
    -18.474  0.3947E-02  0.3384E-01
    -18.373  0.1057E-01  0.3491E-01
    -18.271  0.1731E-01  0.3666E-01
    -18.170  0.1732E-01  0.3842E-01
    -18.069  0.1060E-01  0.3949E-01
    -17.967  0.3964E-02  0.3989E-01
    -17.866  0.9123E-03  0.3999E-01
    -17.765  0.2216E-03  0.4001E-01
    -17.663  0.7415E-03  0.4008E-01
    -17.562  0.3401E-02  0.4043E-01
    -17.461  0.9655E-02  0.4141E-01
    -17.359  0.1675E-01  0.4311E-01
    -17.258  0.1777E-01  0.4491E-01
    -17.157  0.1152E-01  0.4607E-01
    -17.055  0.4568E-02  0.4654E-01
    -16.954  0.1105E-02  0.4665E-01
    -16.853  0.1631E-03  0.4667E-01
    -16.751  0.1549E-04  0.4667E-01
    -16.650  0.1613E-04  0.4667E-01
    -16.549  0.1692E-03  0.4669E-01
    -16.447  0.1137E-02  0.4680E-01
    -16.346  0.4659E-02  0.4727E-01
    -16.245  0.1166E-01  0.4845E-01
    -16.143  0.1782E-01  0.5026E-01
    -16.042  0.1666E-01  0.5195E-01
    -15.941  0.9524E-02  0.5291E-01
    -15.839  0.3326E-02  0.5325E-01
    -15.738  0.7089E-03  0.5332E-01
    -15.637  0.9210E-04  0.5333E-01
    -15.535  0.7281E-05  0.5333E-01
    -15.434  0.3708E-06  0.5333E-01
    -15.333  0.6699E-06  0.5333E-01
    -15.231  0.1246E-04  0.5333E-01
    -15.130  0.1429E-03  0.5335E-01
    -15.029  0.9981E-03  0.5345E-01
    -14.927  0.4250E-02  0.5388E-01
    -14.826  0.1105E-01  0.5500E-01
    -14.725  0.1755E-01  0.5678E-01
    -14.623  0.1705E-01  0.5851E-01
    -14.522  0.1013E-01  0.5953E-01
    -14.421  0.3705E-02  0.5991E-01
    -14.319  0.1112E-02  0.6002E-01
    -14.218  0.1861E-02  0.6021E-01
    -14.116  0.6285E-02  0.6085E-01
    -14.015  0.1374E-01  0.6224E-01
    -13.914  0.1837E-01  0.6410E-01
    -13.812  0.1503E-01  0.6562E-01
    -13.711  0.7579E-02  0.6639E-01
    -13.610  0.2833E-02  0.6668E-01
    -13.508  0.3147E-02  0.6700E-01
    -13.407  0.8435E-02  0.6785E-01
    -13.306  0.1581E-01  0.6946E-01
    -13.204  0.1821E-01  0.7130E-01
    -13.103  0.1283E-01  0.7260E-01
    -13.002  0.5555E-02  0.7316E-01
    -12.900  0.1767E-02  0.7334E-01
    -12.799  0.2058E-02  0.7355E-01
    -12.698  0.6477E-02  0.7421E-01
    -12.596  0.1394E-01  0.7562E-01
    -12.495  0.1839E-01  0.7748E-01
    -12.394  0.1484E-01  0.7899E-01
    -12.292  0.7322E-02  0.7973E-01
    -12.191  0.2207E-02  0.7995E-01
    -12.090  0.4117E-03  0.8000E-01
    -11.988  0.1248E-03  0.8001E-01
    -11.887  0.6364E-03  0.8007E-01
    -11.786  0.3103E-02  0.8039E-01
    -11.684  0.9475E-02  0.8135E-01
    -11.583  0.1869E-01  0.8324E-01
    -11.482  0.2572E-01  0.8585E-01
    -11.380  0.2739E-01  0.8862E-01
    -11.279  0.2353E-01  0.9101E-01
    -11.178  0.1598E-01  0.9263E-01
    -11.076  0.1165E-01  0.9381E-01
    -10.975  0.1711E-01  0.9554E-01
    -10.874  0.2888E-01  0.9847E-01
    -10.772  0.3457E-01  0.1020E+00
    -10.671  0.2779E-01  0.1048E+00
    -10.570  0.1723E-01  0.1065E+00
    -10.468  0.1457E-01  0.1080E+00
    -10.367  0.2007E-01  0.1100E+00
    -10.266  0.2682E-01  0.1128E+00
    -10.164  0.3373E-01  0.1162E+00
    -10.063  0.4288E-01  0.1205E+00
     -9.962  0.4826E-01  0.1254E+00
     -9.860  0.4125E-01  0.1296E+00
     -9.759  0.2476E-01  0.1321E+00
     -9.658  0.1133E-01  0.1333E+00
     -9.556  0.8722E-02  0.1341E+00
     -9.455  0.1469E-01  0.1356E+00
     -9.354  0.2164E-01  0.1378E+00
     -9.252  0.2571E-01  0.1404E+00
     -9.151  0.3027E-01  0.1435E+00
     -9.049  0.3484E-01  0.1470E+00
     -8.948  0.3332E-01  0.1504E+00
     -8.847  0.2719E-01  0.1532E+00
     -8.745  0.2477E-01  0.1557E+00
     -8.644  0.2726E-01  0.1584E+00
     -8.543  0.2879E-01  0.1613E+00
     -8.441  0.2533E-01  0.1639E+00
     -8.340  0.1683E-01  0.1656E+00
     -8.239  0.7652E-02  0.1664E+00
     -8.137  0.2232E-02  0.1666E+00
     -8.036  0.4049E-03  0.1667E+00
     -7.935  0.4507E-04  0.1667E+00
     -7.833  0.3059E-05  0.1667E+00
     -7.732  0.1262E-06  0.1667E+00
     -7.631  0.3275E-08  0.1667E+00
     -7.529  0.7067E-08  0.1667E+00
     -7.428  0.2531E-06  0.1667E+00
     -7.327  0.5534E-05  0.1667E+00
     -7.225  0.7348E-04  0.1667E+00
     -7.124  0.5937E-03  0.1667E+00
     -7.023  0.2923E-02  0.1670E+00
     -6.921  0.8783E-02  0.1679E+00
     -6.820  0.1612E-01  0.1696E+00
     -6.719  0.1811E-01  0.1714E+00
     -6.617  0.1257E-01  0.1727E+00
     -6.516  0.6267E-02  0.1733E+00
     -6.415  0.5769E-02  0.1739E+00
     -6.313  0.1156E-01  0.1751E+00
     -6.212  0.1792E-01  0.1769E+00
     -6.111  0.1826E-01  0.1787E+00
     -6.009  0.1520E-01  0.1803E+00
     -5.908  0.1613E-01  0.1819E+00
     -5.807  0.1907E-01  0.1838E+00
     -5.705  0.1713E-01  0.1856E+00
     -5.604  0.1301E-01  0.1869E+00
     -5.503  0.1410E-01  0.1883E+00
     -5.401  0.1822E-01  0.1902E+00
     -5.300  0.1698E-01  0.1919E+00
     -5.199  0.9912E-02  0.1929E+00
     -5.097  0.3546E-02  0.1932E+00
     -4.996  0.7745E-03  0.1933E+00
     -4.895  0.1031E-03  0.1933E+00
     -4.793  0.8356E-05  0.1933E+00
     -4.692  0.4113E-06  0.1933E+00
     -4.591  0.1228E-07  0.1933E+00
     -4.489  0.2220E-09  0.1933E+00
     -4.388  0.2427E-11  0.1933E+00
     -4.287  0.1602E-13  0.1933E+00
     -4.185  0.6391E-16  0.1933E+00
     -4.084  0.0000E+00  0.1933E+00
     -3.982  0.0000E+00  0.1933E+00
     -3.881  0.0000E+00  0.1933E+00
     -3.780  0.0000E+00  0.1933E+00
     -3.678  0.0000E+00  0.1933E+00
     -3.577  0.0000E+00  0.1933E+00
     -3.476  0.0000E+00  0.1933E+00
     -3.374  0.0000E+00  0.1933E+00
     -3.273  0.0000E+00  0.1933E+00
     -3.172  0.0000E+00  0.1933E+00
     -3.070  0.0000E+00  0.1933E+00
     -2.969  0.0000E+00  0.1933E+00
     -2.868  0.0000E+00  0.1933E+00
     -2.766  0.0000E+00  0.1933E+00
     -2.665  0.0000E+00  0.1933E+00
     -2.564  0.0000E+00  0.1933E+00
     -2.462  0.0000E+00  0.1933E+00
     -2.361  0.0000E+00  0.1933E+00
     -2.260  0.1680E-15  0.1933E+00
     -2.158  0.3873E-13  0.1933E+00
     -2.057  0.5390E-11  0.1933E+00
     -1.956  0.4531E-09  0.1933E+00
     -1.854  0.2304E-07  0.1933E+00
     -1.753  0.7102E-06  0.1933E+00
     -1.652  0.1331E-04  0.1933E+00
     -1.550  0.1522E-03  0.1934E+00
     -1.449  0.1070E-02  0.1935E+00
     -1.348  0.4681E-02  0.1939E+00
     -1.246  0.1305E-01  0.1953E+00
     -1.145  0.2409E-01  0.1977E+00
     -1.044  0.3088E-01  0.2008E+00
     -0.942  0.2836E-01  0.2037E+00
     -0.841  0.1857E-01  0.2056E+00
     -0.740  0.9232E-02  0.2065E+00
     -0.638  0.7288E-02  0.2073E+00
     -0.537  0.1469E-01  0.2087E+00
     -0.436  0.2835E-01  0.2116E+00
     -0.334  0.4222E-01  0.2159E+00
     -0.233  0.5184E-01  0.2212E+00
     -0.132  0.5955E-01  0.2272E+00
     -0.030  0.7542E-01  0.2348E+00
      0.071  0.1014E+00  0.2451E+00
      0.172  0.1146E+00  0.2567E+00
      0.274  0.9258E-01  0.2661E+00
      0.375  0.4979E-01  0.2711E+00
      0.476  0.1727E-01  0.2729E+00
      0.578  0.3803E-02  0.2733E+00
      0.679  0.5256E-03  0.2733E+00
      0.780  0.4527E-04  0.2733E+00
      0.882  0.2414E-05  0.2733E+00
      0.983  0.7930E-07  0.2733E+00
      1.085  0.1597E-08  0.2733E+00
      1.186  0.1963E-10  0.2733E+00
      1.287  0.1469E-12  0.2733E+00
      1.389  0.6665E-15  0.2733E+00
      1.490  0.0000E+00  0.2733E+00
      1.591  0.0000E+00  0.2733E+00
      1.693  0.0000E+00  0.2733E+00
      1.794  0.0000E+00  0.2733E+00
      1.895  0.0000E+00  0.2733E+00
      1.997  0.0000E+00  0.2733E+00
      2.098  0.0000E+00  0.2733E+00
      2.199  0.0000E+00  0.2733E+00
