   22   22  300    1
  0.1227273E+04  0.3000000E-08  0.3000000E-08  0.3000000E-08  0.0000000E+00
  1.000000000000000E-004
  CAR 
 unknown system                          
     58      4     41
 
  0.2500000E+00  0.2500000E+00  0.2500000E+00  0.2500000E+00
    1      -26.202761   1.000000
    2      -25.507371   1.000000
    3      -23.443287   1.000000
    4      -22.662066   1.000000
    5      -19.596310   1.000000
    6      -18.271268   1.000000
    7      -17.347229   1.000000
    8      -16.157176   1.000000
    9      -14.730539   1.000000
   10      -13.955219   1.000000
   11      -13.276616   1.000000
   12      -12.539234   1.000000
   13      -11.562474   1.000000
   14      -11.341603   1.000000
   15      -10.881916   1.000000
   16      -10.777003   1.000000
   17      -10.354659   1.000000
   18      -10.117583   1.000000
   19       -9.986561   1.000000
   20       -9.918394   1.000000
   21       -9.394231   1.000000
   22       -9.126706   1.000000
   23       -8.994026   1.000000
   24       -8.694611   1.000000
   25       -8.486063   1.000000
   26       -6.796251   1.000000
   27       -6.221573   1.000000
   28       -5.832814   1.000000
   29       -5.410118   1.000000
   30       -1.153234   0.000000
   31       -0.986514   0.000000
   32       -0.446221   0.000000
   33       -0.291018   0.000000
   34       -0.210647   0.000000
   35       -0.050892   0.000000
   36        0.049093   0.000000
   37        0.114145   0.000000
   38        0.129777   0.000000
   39        0.137414   0.000000
   40        0.187960   0.000000
   41        0.199242   0.000000
 
 -0.2500000E+00  0.2500000E+00  0.2500000E+00  0.2500000E+00
    1      -26.202759   1.000000
    2      -25.507373   1.000000
    3      -23.443287   1.000000
    4      -22.662065   1.000000
    5      -19.596312   1.000000
    6      -18.271267   1.000000
    7      -17.347228   1.000000
    8      -16.157175   1.000000
    9      -14.730539   1.000000
   10      -13.955229   1.000000
   11      -13.276613   1.000000
   12      -12.539231   1.000000
   13      -11.562482   1.000000
   14      -11.341605   1.000000
   15      -10.881914   1.000000
   16      -10.777004   1.000000
   17      -10.354656   1.000000
   18      -10.117581   1.000000
   19       -9.986568   1.000000
   20       -9.918398   1.000000
   21       -9.394235   1.000000
   22       -9.126695   1.000000
   23       -8.994023   1.000000
   24       -8.694622   1.000000
   25       -8.486065   1.000000
   26       -6.796252   1.000000
   27       -6.221577   1.000000
   28       -5.832812   1.000000
   29       -5.410098   1.000000
   30       -1.153236   0.000000
   31       -0.986514   0.000000
   32       -0.446247   0.000000
   33       -0.291024   0.000000
   34       -0.210630   0.000000
   35       -0.050796   0.000000
   36        0.048138   0.000000
   37        0.110642   0.000000
   38        0.132500   0.000000
   39        0.145912   0.000000
   40        0.180941   0.000000
   41        0.197753   0.000000
 
  0.2500000E+00 -0.2500000E+00  0.2500000E+00  0.2500000E+00
    1      -26.202762   1.000000
    2      -25.507370   1.000000
    3      -23.443290   1.000000
    4      -22.662064   1.000000
    5      -19.596311   1.000000
    6      -18.271269   1.000000
    7      -17.347225   1.000000
    8      -16.157178   1.000000
    9      -14.730543   1.000000
   10      -13.955219   1.000000
   11      -13.276621   1.000000
   12      -12.539236   1.000000
   13      -11.562484   1.000000
   14      -11.341605   1.000000
   15      -10.881926   1.000000
   16      -10.777008   1.000000
   17      -10.354656   1.000000
   18      -10.117585   1.000000
   19       -9.986558   1.000000
   20       -9.918395   1.000000
   21       -9.394237   1.000000
   22       -9.126713   1.000000
   23       -8.994008   1.000000
   24       -8.694619   1.000000
   25       -8.486046   1.000000
   26       -6.796251   1.000000
   27       -6.221568   1.000000
   28       -5.832810   1.000000
   29       -5.410101   1.000000
   30       -1.153243   0.000000
   31       -0.986515   0.000000
   32       -0.446225   0.000000
   33       -0.291016   0.000000
   34       -0.210643   0.000000
   35       -0.050725   0.000000
   36        0.046392   0.000000
   37        0.116252   0.000000
   38        0.126973   0.000000
   39        0.147780   0.000000
   40        0.184562   0.000000
   41        0.197885   0.000000
 
 -0.2500000E+00 -0.2500000E+00  0.2500000E+00  0.2500000E+00
    1      -26.202761   1.000000
    2      -25.507375   1.000000
    3      -23.443287   1.000000
    4      -22.662068   1.000000
    5      -19.596309   1.000000
    6      -18.271269   1.000000
    7      -17.347229   1.000000
    8      -16.157175   1.000000
    9      -14.730538   1.000000
   10      -13.955219   1.000000
   11      -13.276619   1.000000
   12      -12.539240   1.000000
   13      -11.562486   1.000000
   14      -11.341602   1.000000
   15      -10.881936   1.000000
   16      -10.777014   1.000000
   17      -10.354654   1.000000
   18      -10.117580   1.000000
   19       -9.986558   1.000000
   20       -9.918400   1.000000
   21       -9.394243   1.000000
   22       -9.126700   1.000000
   23       -8.994011   1.000000
   24       -8.694623   1.000000
   25       -8.486071   1.000000
   26       -6.796252   1.000000
   27       -6.221571   1.000000
   28       -5.832807   1.000000
   29       -5.410095   1.000000
   30       -1.153253   0.000000
   31       -0.986514   0.000000
   32       -0.446229   0.000000
   33       -0.291015   0.000000
   34       -0.210647   0.000000
   35       -0.050751   0.000000
   36        0.046670   0.000000
   37        0.119418   0.000000
   38        0.130537   0.000000
   39        0.138221   0.000000
   40        0.183115   0.000000
   41        0.194970   0.000000
