 vasp.5.4.1 24Jun15 (build Jan 13 2020 12:58:22) complex                        
  
 executed on           IFC91_ompi date 2020.02.03  09:59:13
 running on   15 total cores
 each image running on    1 cores
 distrk:  each k-point on    1 cores,    1 groups
 distr:  one band on NCORES_PER_BAND=   1 cores,    1 groups


--------------------------------------------------------------------------------------------------------


 INCAR:
 POTCAR:    PAW_PBE H 15Jun2001                   
 POTCAR:    PAW_PBE C 08Apr2002                   
 POTCAR:    PAW_PBE N 08Apr2002                   
 POTCAR:    PAW_PBE O 08Apr2002                   
 POTCAR:    PAW_PBE H 15Jun2001                   
   VRHFIN =H: ultrasoft test                                                    
   LEXCH  = PE                                                                  
   EATOM  =    12.4884 eV,    0.9179 Ry                                         
                                                                                
   TITEL  = PAW_PBE H 15Jun2001                                                 
   LULTRA =        F    use ultrasoft PP ?                                      
   IUNSCR =        0    unscreen: 0-lin 1-nonlin 2-no                           
   RPACOR =    0.000    partial core radius                                     
   POMASS =    1.000; ZVAL   =    1.000    mass and valenz                      
   RCORE  =    1.100    outmost cutoff radius                                   
   RWIGS  =    0.700; RWIGS  =    0.370    wigner-seitz radius (au A)           
   ENMAX  =  250.000; ENMIN  =  200.000 eV                                      
   RCLOC  =    0.701    cutoff for local pot                                    
   LCOR   =        T    correct aug charges                                     
   LPAW   =        T    paw PP                                                  
   EAUG   =  400.000                                                            
   RMAX   =    1.123    core radius for proj-oper                               
   RAUG   =    1.200    factor for augmentation sphere                          
   RDEP   =    1.112    radius for radial grids                                 
   RDEPT  =    0.926    core radius for aug-charge                              
                                                                                
   Atomic configuration                                                         
    2 entries                                                                   
     n  l   j            E        occ.                                          
     1  0  0.50        -6.4927   1.0000                                         
     2  1  0.50        -3.4015   0.0000                                         
   Description                                                                  
     l       E           TYP  RCUT    TYP  RCUT                                 
     0     -6.4927494     23  1.100                                             
     0      6.8029130     23  1.100                                             
     1     -4.0817478     23  1.100                                             
  local pseudopotential read in
  atomic valenz-charges read in
  non local Contribution for L=           0  read in
    real space projection operators read in
  non local Contribution for L=           0  read in
    real space projection operators read in
  non local Contribution for L=           1  read in
    real space projection operators read in
    PAW grid and wavefunctions read in
 
   number of l-projection  operators is LMAX  =           3
   number of lm-projection operators is LMMAX =           5
 
 POTCAR:    PAW_PBE C 08Apr2002                   
   VRHFIN =C: s2p2                                                              
   LEXCH  = PE                                                                  
   EATOM  =   147.1560 eV,   10.8157 Ry                                         
                                                                                
   TITEL  = PAW_PBE C 08Apr2002                                                 
   LULTRA =        F    use ultrasoft PP ?                                      
   IUNSCR =        1    unscreen: 0-lin 1-nonlin 2-no                           
   RPACOR =    1.200    partial core radius                                     
   POMASS =   12.011; ZVAL   =    4.000    mass and valenz                      
   RCORE  =    1.500    outmost cutoff radius                                   
   RWIGS  =    1.630; RWIGS  =    0.863    wigner-seitz radius (au A)           
   ENMAX  =  400.000; ENMIN  =  300.000 eV                                      
   ICORE  =        2    local potential                                         
   LCOR   =        T    correct aug charges                                     
   LPAW   =        T    paw PP                                                  
   EAUG   =  644.873                                                            
   DEXC   =    0.000                                                            
   RMAX   =    1.529    core radius for proj-oper                               
   RAUG   =    1.300    factor for augmentation sphere                          
   RDEP   =    1.501    radius for radial grids                                 
   RDEPT  =    1.300    core radius for aug-charge                              
                                                                                
   Atomic configuration                                                         
    4 entries                                                                   
     n  l   j            E        occ.                                          
     1  0  0.50      -273.3789   2.0000                                         
     2  0  0.50       -13.7508   2.0000                                         
     2  1  0.50        -5.2854   2.0000                                         
     3  2  1.50        -5.4423   0.0000                                         
   Description                                                                  
     l       E           TYP  RCUT    TYP  RCUT                                 
     0    -13.7508458     23  1.200                                             
     0     -8.2022199     23  1.200                                             
     1     -5.2854383     23  1.500                                             
     1     34.0145650     23  1.500                                             
     2     -5.4423304      7  1.500                                             
  local pseudopotential read in
  partial core-charges read in
  partial kinetic energy density read in
  atomic valenz-charges read in
  non local Contribution for L=           0  read in
    real space projection operators read in
  non local Contribution for L=           0  read in
    real space projection operators read in
  non local Contribution for L=           1  read in
    real space projection operators read in
  non local Contribution for L=           1  read in
    real space projection operators read in
    PAW grid and wavefunctions read in
 
   number of l-projection  operators is LMAX  =           4
   number of lm-projection operators is LMMAX =           8
 
 POTCAR:    PAW_PBE N 08Apr2002                   
   VRHFIN =N: s2p3                                                              
   LEXCH  = PE                                                                  
   EATOM  =   264.5486 eV,   19.4438 Ry                                         
                                                                                
   TITEL  = PAW_PBE N 08Apr2002                                                 
   LULTRA =        F    use ultrasoft PP ?                                      
   IUNSCR =        1    unscreen: 0-lin 1-nonlin 2-no                           
   RPACOR =    1.200    partial core radius                                     
   POMASS =   14.001; ZVAL   =    5.000    mass and valenz                      
   RCORE  =    1.500    outmost cutoff radius                                   
   RWIGS  =    1.400; RWIGS  =    0.741    wigner-seitz radius (au A)           
   ENMAX  =  400.000; ENMIN  =  300.000 eV                                      
   ICORE  =        2    local potential                                         
   LCOR   =        T    correct aug charges                                     
   LPAW   =        T    paw PP                                                  
   EAUG   =  627.112                                                            
   DEXC   =    0.000                                                            
   RMAX   =    1.529    core radius for proj-oper                               
   RAUG   =    1.300    factor for augmentation sphere                          
   RDEP   =    1.514    radius for radial grids                                 
   RDEPT  =    1.338    core radius for aug-charge                              
                                                                                
   Atomic configuration                                                         
    4 entries                                                                   
     n  l   j            E        occ.                                          
     1  0  0.50      -384.7179   2.0000                                         
     2  0  0.50       -18.5828   2.0000                                         
     2  1  0.50        -7.0898   3.0000                                         
     3  2  1.50        -6.8029   0.0000                                         
   Description                                                                  
     l       E           TYP  RCUT    TYP  RCUT                                 
     0    -18.5828119     23  1.200                                             
     0    -13.5018863     23  1.200                                             
     1     -7.0897853     23  1.500                                             
     1      9.5240782     23  1.500                                             
     2     -6.8029130      7  1.500                                             
  local pseudopotential read in
  partial core-charges read in
  partial kinetic energy density read in
  atomic valenz-charges read in
  non local Contribution for L=           0  read in
    real space projection operators read in
  non local Contribution for L=           0  read in
    real space projection operators read in
  non local Contribution for L=           1  read in
    real space projection operators read in
  non local Contribution for L=           1  read in
    real space projection operators read in
    PAW grid and wavefunctions read in
 
   number of l-projection  operators is LMAX  =           4
   number of lm-projection operators is LMMAX =           8
 
 POTCAR:    PAW_PBE O 08Apr2002                   
   VRHFIN =O: s2p4                                                              
   LEXCH  = PE                                                                  
   EATOM  =   432.3788 eV,   31.7789 Ry                                         
                                                                                
   TITEL  = PAW_PBE O 08Apr2002                                                 
   LULTRA =        F    use ultrasoft PP ?                                      
   IUNSCR =        1    unscreen: 0-lin 1-nonlin 2-no                           
   RPACOR =    1.200    partial core radius                                     
   POMASS =   16.000; ZVAL   =    6.000    mass and valenz                      
   RCORE  =    1.520    outmost cutoff radius                                   
   RWIGS  =    1.550; RWIGS  =    0.820    wigner-seitz radius (au A)           
   ENMAX  =  400.000; ENMIN  =  300.000 eV                                      
   ICORE  =        2    local potential                                         
   LCOR   =        T    correct aug charges                                     
   LPAW   =        T    paw PP                                                  
   EAUG   =  605.392                                                            
   DEXC   =    0.000                                                            
   RMAX   =    1.553    core radius for proj-oper                               
   RAUG   =    1.300    factor for augmentation sphere                          
   RDEP   =    1.550    radius for radial grids                                 
   RDEPT  =    1.329    core radius for aug-charge                              
                                                                                
   Atomic configuration                                                         
    4 entries                                                                   
     n  l   j            E        occ.                                          
     1  0  0.50      -514.6923   2.0000                                         
     2  0  0.50       -23.9615   2.0000                                         
     2  1  0.50        -9.0305   4.0000                                         
     3  2  1.50        -9.5241   0.0000                                         
   Description                                                                  
     l       E           TYP  RCUT    TYP  RCUT                                 
     0    -23.9615318     23  1.200                                             
     0     -9.5240782     23  1.200                                             
     1     -9.0304911     23  1.520                                             
     1      8.1634956     23  1.520                                             
     2     -9.5240782      7  1.500                                             
  local pseudopotential read in
  partial core-charges read in
  partial kinetic energy density read in
  kinetic energy density of atom read in
  atomic valenz-charges read in
  non local Contribution for L=           0  read in
    real space projection operators read in
  non local Contribution for L=           0  read in
    real space projection operators read in
  non local Contribution for L=           1  read in
    real space projection operators read in
  non local Contribution for L=           1  read in
    real space projection operators read in
    PAW grid and wavefunctions read in
 
   number of l-projection  operators is LMAX  =           4
   number of lm-projection operators is LMMAX =           8
 
 Optimization of the real space projectors (new method)

 maximal supplied QI-value         = 34.20
 optimisation between [QCUT,QGAM] = [  9.92, 20.18] = [ 27.55,114.04] Ry 
 Optimized for a Real-space Cutoff    1.26 Angstroem

   l    n(q)    QCUT    max X(q) W(low)/X(q) W(high)/X(q)  e(spline) 
   0      8     9.919    19.460    0.50E-03    0.23E-03    0.29E-06
   0      8     9.919    12.209    0.48E-03    0.23E-03    0.28E-06
   1      7     9.919     4.655    0.17E-03    0.75E-03    0.30E-06
 Optimization of the real space projectors (new method)

 maximal supplied QI-value         = 25.13
 optimisation between [QCUT,QGAM] = [ 10.05, 20.36] = [ 28.30,116.06] Ry 
 Optimized for a Real-space Cutoff    1.30 Angstroem

   l    n(q)    QCUT    max X(q) W(low)/X(q) W(high)/X(q)  e(spline) 
   0      8    10.053   115.676    0.49E-03    0.72E-03    0.18E-06
   0      8    10.053    87.132    0.49E-03    0.71E-03    0.18E-06
   1      7    10.053     4.429    0.32E-03    0.31E-03    0.18E-06
   1      7    10.053     2.733    0.23E-03    0.19E-03    0.20E-06
 Optimization of the real space projectors (new method)

 maximal supplied QI-value         = 25.13
 optimisation between [QCUT,QGAM] = [ 10.05, 20.36] = [ 28.30,116.06] Ry 
 Optimized for a Real-space Cutoff    1.65 Angstroem

   l    n(q)    QCUT    max X(q) W(low)/X(q) W(high)/X(q)  e(spline) 
   0     10    10.053    79.467    0.76E-04    0.72E-04    0.56E-06
   0     10    10.053    66.151    0.76E-04    0.72E-04    0.55E-06
   1     10    10.053     8.350    0.25E-03    0.92E-03    0.41E-05
   1     10    10.053     5.531    0.27E-03    0.10E-02    0.45E-05
 Optimization of the real space projectors (new method)

 maximal supplied QI-value         = 24.76
 optimisation between [QCUT,QGAM] = [ 10.15, 20.30] = [ 28.85,115.39] Ry 
 Optimized for a Real-space Cutoff    1.38 Angstroem

   l    n(q)    QCUT    max X(q) W(low)/X(q) W(high)/X(q)  e(spline) 
   0      8    10.150    20.381    0.22E-03    0.32E-03    0.29E-06
   0      8    10.150    15.268    0.23E-03    0.35E-03    0.30E-06
   1      8    10.150     5.964    0.46E-03    0.53E-03    0.21E-06
   1      8    10.150     5.382    0.38E-03    0.45E-03    0.19E-06
  PAW_PBE H 15Jun2001                   :
 energy of atom  1       EATOM=  -12.4884
 kinetic energy error for atom=    0.0098 (will be added to EATOM!!)
  PAW_PBE C 08Apr2002                   :
 energy of atom  2       EATOM= -147.1560
 kinetic energy error for atom=    0.0288 (will be added to EATOM!!)
  PAW_PBE N 08Apr2002                   :
 energy of atom  3       EATOM= -264.5486
 kinetic energy error for atom=    0.0736 (will be added to EATOM!!)
  PAW_PBE O 08Apr2002                   :
 energy of atom  4       EATOM= -432.3788
 kinetic energy error for atom=    0.1156 (will be added to EATOM!!)
 
 
 POSCAR: H12 C6 N2 O2                            
  positions in direct lattice
  velocities in cartesian coordinates
 exchange correlation table for  LEXCH =        8
   RHO(1)=    0.500       N(1)  =     2000
   RHO(2)=  100.500       N(2)  =     4000

 VTST: version 3.2, (02/03/18)

 CHAIN: initializing optimizer
 
 OPT: Using FIRE optimizer
 OPT: FIRE, Init
 OPT: FIRE, MAXMOVE       0.20000
 OPT: FIRE, TIMESTEP      0.10000
 OPT: FIRE, FTIMEMAX      1.00000
 OPT: FIRE, FTIMEINC      1.10000
 OPT: FIRE, FTIMEDEC      0.50000
 OPT: FIRE, FALPHADEC     0.99000
 OPT: FIRE, FALPHA        0.10000
 OPT: FIRE, FNMIN         5
 
 CHAIN: Read ICHAIN            0
 CHAIN: Running the NEB
 NEB:          SPRING     -5.000000
 NEB:          LCLIMB      T
 NEB:     LTANGENTOLD      F
 NEB:           LDNEB      F
 NEB:        LDNEBORG      F
 NEB:        LNEBCELL      F
 NEB:          EFIRST      0.000000
 NEB:           ELAST      0.000000
 
 POSCAR: H12 C6 N2 O2                            
  positions in direct lattice
  No initial velocities read in
 
 POSCAR: H12 C6 N2 O2                            
  positions in direct lattice
  No initial velocities read in
 


--------------------------------------------------------------------------------------------------------


 ion  position               nearest neighbor table
   1  0.378  0.532  0.494-  13 1.09
   2  0.380  0.485  0.458-  13 1.10
   3  0.383  0.477  0.516-  13 1.10
   4  0.448  0.439  0.497-  19 1.02
   5  0.521  0.426  0.500-  15 1.10
   6  0.573  0.467  0.447-  16 1.10
   7  0.528  0.504  0.433-  16 1.10
   8  0.525  0.446  0.420-  16 1.10
   9  0.513  0.546  0.507-  20 1.03
  10  0.570  0.541  0.588-  18 1.10
  11  0.600  0.557  0.541-  18 1.11
  12  0.554  0.592  0.560-  18 1.10
  13  0.393  0.500  0.489-   1 1.09   2 1.10   3 1.10  14 1.51
  14  0.443  0.505  0.486-  21 1.24  19 1.36  13 1.51
  15  0.516  0.461  0.491-   5 1.10  19 1.48  16 1.53  17 1.54
  16  0.536  0.470  0.445-   7 1.10   6 1.10   8 1.10  15 1.53
  17  0.541  0.487  0.527-  22 1.24  20 1.35  15 1.54
  18  0.566  0.557  0.556-  12 1.10  10 1.10  11 1.11  20 1.45
  19  0.467  0.467  0.492-   4 1.02  14 1.36  15 1.48
  20  0.535  0.532  0.529-   9 1.03  17 1.35  18 1.45
  21  0.461  0.542  0.478-  14 1.24
  22  0.569  0.467  0.550-  17 1.24
 
  LATTYP: Found a simple cubic cell.
 ALAT       =    30.0000000000
  
  Lattice vectors:
  
 A1 = (  30.0000000000,   0.0000000000,   0.0000000000)
 A2 = (   0.0000000000,  30.0000000000,   0.0000000000)
 A3 = (   0.0000000000,   0.0000000000,  30.0000000000)


Analysis of symmetry for initial positions (statically):
=====================================================================
 Subroutine PRICEL returns:
 Original cell was already a primitive cell.
 

 Routine SETGRP: Setting up the symmetry group for a 
 simple cubic supercell.


 Subroutine GETGRP returns: Found  1 space group operations
 (whereof  1 operations were pure point group operations)
 out of a pool of 48 trial point group operations.


The static configuration has the point symmetry C_1 .


Analysis of symmetry for dynamics (positions and initial velocities):
=====================================================================
 Subroutine PRICEL returns:
 Original cell was already a primitive cell.
 

 Routine SETGRP: Setting up the symmetry group for a 
 simple cubic supercell.


 Subroutine GETGRP returns: Found  1 space group operations
 (whereof  1 operations were pure point group operations)
 out of a pool of 48 trial point group operations.


The dynamic configuration has the point symmetry C_1 .
 
 
 KPOINTS: Mo2C                                    

Automatic generation of k-mesh.
Space group operators:
 irot       det(A)        alpha          n_x          n_y          n_z        tau_x        tau_y        tau_z
    1     1.000000     0.000000     1.000000     0.000000     0.000000     0.000000     0.000000     0.000000
 
 Subroutine IBZKPT returns following result:
 ===========================================
 
 Found      4 irreducible k-points:
 
 Following reciprocal coordinates:
            Coordinates               Weight
  0.250000  0.250000  0.250000      2.000000
 -0.250000  0.250000  0.250000      2.000000
  0.250000 -0.250000  0.250000      2.000000
 -0.250000 -0.250000  0.250000      2.000000
 
 Following cartesian coordinates:
            Coordinates               Weight
  0.008333  0.008333  0.008333      2.000000
 -0.008333  0.008333  0.008333      2.000000
  0.008333 -0.008333  0.008333      2.000000
 -0.008333 -0.008333  0.008333      2.000000
 


--------------------------------------------------------------------------------------------------------




 Dimension of arrays:
   k-points           NKPTS =      4   k-points in BZ     NKDIM =      4   number of bands    NBANDS=     41
   number of dos      NEDOS =    301   number of ions     NIONS =     22
   non local maximal  LDIM  =      4   non local SUM 2l+1 LMDIM =      8
   total plane-waves  NPLWV = ******
   max r-space proj   IRMAX =   2395   max aug-charges    IRDMAX=   1821
   dimension x,y,z NGX =   150 NGY =  150 NGZ =  150
   dimension x,y,z NGXF=   300 NGYF=  300 NGZF=  300
   support grid    NGXF=   300 NGYF=  300 NGZF=  300
   ions per type =              12   6   2   2
 NGX,Y,Z   is equivalent  to a cutoff of   8.31,  8.31,  8.31 a.u.
 NGXF,Y,Z  is equivalent  to a cutoff of  16.62, 16.62, 16.62 a.u.


 I would recommend the setting:
   dimension x,y,z NGX =   147 NGY =  147 NGZ =  147
 SYSTEM =  unknown system                          
 POSCAR =  H12 C6 N2 O2                            

 Startparameter for this run:
   NWRITE =      2    write-flag & timer
   PREC   = normal    normal or accurate (medium, high low for compatibility)
   ISTART =      0    job   : 0-new  1-cont  2-samecut
   ICHARG =      2    charge: 1-file 2-atom 10-const
   ISPIN  =      1    spin polarized calculation?
   LNONCOLLINEAR =      F non collinear calculations
   LSORBIT =      F    spin-orbit coupling
   INIWAV =      1    electr: 0-lowe 1-rand  2-diag
   LASPH  =      F    aspherical Exc in radial PAW
   METAGGA=      F    non-selfconsistent MetaGGA calc.

 Electronic Relaxation 1
   ENCUT  =  400.0 eV  29.40 Ry    5.42 a.u.  48.92 48.92 48.92*2*pi/ulx,y,z
   ENINI  =  400.0     initial cutoff
   ENAUG  =  644.9 eV  augmentation charge cutoff
   NELM   =    500;   NELMIN=  6; NELMDL= -5     # of ELM steps 
   EDIFF  = 0.1E-03   stopping-criterion for ELM
   LREAL  =      T    real-space projection
   NLSPLINE    = F    spline interpolate recip. space projectors
   LCOMPAT=      F    compatible to vasp.4.4
   GGA_COMPAT  = T    GGA compatible to vasp.4.4-vasp.4.6
   LMAXPAW     = -100 max onsite density
   LMAXMIX     =    2 max onsite mixed and CHGCAR
   VOSKOWN=      0    Vosko Wilk Nusair interpolation
   ROPT   =   -0.00050  -0.00050  -0.00050  -0.00050
 Ionic relaxation
   EDIFFG = -.1E+00   stopping-criterion for IOM
   NSW    =    300    number of steps for IOM
   NBLOCK =      1;   KBLOCK =    300    inner block; outer block 
   IBRION =      3    ionic relax: 0-MD 1-quasi-New 2-CG
   NFREE  =      0    steps in history (QN), initial steepest desc. (CG)
   ISIF   =      2    stress and relaxation
   IWAVPR =     11    prediction:  0-non 1-charg 2-wave 3-comb
   ISYM   =      2    0-nonsym 1-usesym 2-fastsym
   LCORR  =      T    Harris-Foulkes like correction to forces

   POTIM  = 0.0000    time-step for ionic-motion
   TEIN   =    0.0    initial temperature
   TEBEG  =    0.0;   TEEND  =   0.0 temperature during run
   SMASS  =   2.00    Nose mass-parameter (am)
   estimated Nose-frequenzy (Omega)   =  0.24E+10 period in steps =  0.00 mass=   0.137E-25a.u.
   SCALEE = 1.0000    scale energy and forces
   NPACO  =    256;   APACO  = 16.0  distance and # of slots for P.C.
   PSTRESS=    0.0 pullay stress

  Mass of Ions in am
   POMASS =   1.00 12.01 14.00 16.00
  Ionic Valenz
   ZVAL   =   1.00  4.00  5.00  6.00
  Atomic Wigner-Seitz radii
   RWIGS  =  -1.00 -1.00 -1.00 -1.00
  virtual crystal weights 
   VCA    =   1.00  1.00  1.00  1.00
   NELECT =      58.0000    total number of electrons
   NUPDOWN=      -1.0000    fix difference up-down

 DOS related values:
   EMIN   =  10.00;   EMAX   =-10.00  energy-range for DOS
   EFERMI =   0.00
   ISMEAR =     0;   SIGMA  =   0.20  broadening in eV -4-tet -1-fermi 0-gaus

 Electronic relaxation 2 (details)
   IALGO  =     38    algorithm
   LDIAG  =      T    sub-space diagonalisation (order eigenvalues)
   LSUBROT=      F    optimize rotation matrix (better conditioning)
   TURBO    =      0    0=normal 1=particle mesh
   IRESTART =      0    0=no restart 2=restart with 2 vectors
   NREBOOT  =      0    no. of reboots
   NMIN     =      0    reboot dimension
   EREF     =   0.00    reference energy to select bands
   IMIX   =      4    mixing-type and parameters
     AMIX     =   0.40;   BMIX     =  1.00
     AMIX_MAG =   1.60;   BMIX_MAG =  1.00
     AMIN     =   0.10
     WC   =   100.;   INIMIX=   1;  MIXPRE=   1;  MAXMIX= -45

 Intra band minimization:
   WEIMIN = 0.0010     energy-eigenvalue tresh-hold
   EBREAK =  0.61E-06  absolut break condition
   DEPER  =   0.30     relativ break condition  

   TIME   =   0.40     timestep for ELM

  volume/ion in A,a.u.               =    1227.27      8282.05
  Fermi-wavevector in a.u.,A,eV,Ry     =   0.211234  0.399174  0.607087  0.044620
  Thomas-Fermi vector in A             =   0.980021
 
 Write flags
   LWAVE  =      F    write WAVECAR
   LCHARG =      F    write CHGCAR
   LVTOT  =      F    write LOCPOT, total local potential
   LVHAR  =      F    write LOCPOT, Hartree potential only
   LELF   =      F    write electronic localiz. function (ELF)
   LORBIT =      0    0 simple, 1 ext, 2 COOP (PROOUT)


 Dipole corrections
   LMONO  =      F    monopole corrections only (constant potential shift)
   LDIPOL =      F    correct potential (dipole corrections)
   IDIPOL =      0    1-x, 2-y, 3-z, 4-all directions 
   EPSILON=  1.0000000 bulk dielectric constant

 Exchange correlation treatment:
   GGA     =    PE    GGA type
   LEXCH   =     8    internal setting for exchange type
   VOSKOWN=      0    Vosko Wilk Nusair interpolation
   LHFCALC =     F    Hartree Fock is set to
   LHFONE  =     F    Hartree Fock one center treatment
   AEXX    =    0.0000 exact exchange contribution

 Linear response parameters
   LEPSILON=     F    determine dielectric tensor
   LRPA    =     F    only Hartree local field effects (RPA)
   LNABLA  =     F    use nabla operator in PAW spheres
   LVEL    =     F    velocity operator in full k-point grid
   LINTERFAST=   F  fast interpolation
   KINTER  =     0    interpolate to denser k-point grid
   CSHIFT  =0.1000    complex shift for real part using Kramers Kronig
   OMEGAMAX=  -1.0    maximum frequency
   DEG_THRESHOLD= 0.2000000E-02 threshold for treating states as degnerate
   RTIME   =    0.100 relaxation time in fs

 Orbital magnetization related:
   ORBITALMAG=     F  switch on orbital magnetization
   LCHIMAG   =     F  perturbation theory with respect to B field
   DQ        =  0.001000  dq finite difference perturbation B field



--------------------------------------------------------------------------------------------------------


 quickmin algorithm: (dynamic with friction)
 charge density and potential will be updated during run
 non-spin polarized calculation
 Variant of blocked Davidson
 Davidson routine will perform the subspace rotation
 perform sub-space diagonalisation
    after iterative eigenvector-optimisation
 modified Broyden-mixing scheme, WC =      100.0
 initial mixing is a Kerker type mixing with AMIX =  0.4000 and BMIX =      1.0000
 Hartree-type preconditioning will be used
 using additional bands           12
 real space projection scheme for non local part
 use partial core corrections
 calculate Harris-corrections to forces 
   (improved forces if not selfconsistent)
 use gradient corrections 
 use of overlap-Matrix (Vanderbilt PP)
 Gauss-broadening in eV      SIGMA  =   0.20


--------------------------------------------------------------------------------------------------------


  energy-cutoff  :      400.00
  volume of cell :    27000.00
      direct lattice vectors                 reciprocal lattice vectors
    30.000000000  0.000000000  0.000000000     0.033333333  0.000000000  0.000000000
     0.000000000 30.000000000  0.000000000     0.000000000  0.033333333  0.000000000
     0.000000000  0.000000000 30.000000000     0.000000000  0.000000000  0.033333333

  length of vectors
    30.000000000 30.000000000 30.000000000     0.033333333  0.033333333  0.033333333


 
 k-points in units of 2pi/SCALE and weight: Mo2C                                    
   0.00833333  0.00833333  0.00833333       0.250
  -0.00833333  0.00833333  0.00833333       0.250
   0.00833333 -0.00833333  0.00833333       0.250
  -0.00833333 -0.00833333  0.00833333       0.250
 
 k-points in reciprocal lattice and weights: Mo2C                                    
   0.25000000  0.25000000  0.25000000       0.250
  -0.25000000  0.25000000  0.25000000       0.250
   0.25000000 -0.25000000  0.25000000       0.250
  -0.25000000 -0.25000000  0.25000000       0.250
 
 position of ions in fractional coordinates (direct lattice) 
   0.37807480  0.53240553  0.49365795
   0.38009043  0.48538823  0.45754540
   0.38288392  0.47745576  0.51622045
   0.44839239  0.43877236  0.49659318
   0.52140555  0.42647314  0.50005394
   0.57256626  0.46726082  0.44723492
   0.52806588  0.50374998  0.43255529
   0.52476059  0.44570407  0.41981797
   0.51294139  0.54599684  0.50694931
   0.57003989  0.54052731  0.58849452
   0.59974535  0.55739298  0.54055765
   0.55444215  0.59169945  0.56031819
   0.39292352  0.49959526  0.48879155
   0.44285722  0.50505971  0.48556842
   0.51554468  0.46133797  0.49055599
   0.53614348  0.47019852  0.44459261
   0.54146818  0.48717313  0.52668325
   0.56624406  0.55720900  0.55601363
   0.46661313  0.46692644  0.49164392
   0.53536401  0.53170290  0.52881105
   0.46051859  0.54179385  0.47781301
   0.56923833  0.46726863  0.55003920
 
 position of ions in cartesian coordinates  (Angst):
  11.34224395 15.97216597 14.80973844
  11.40271283 14.56164698 13.72636209
  11.48651767 14.32367280 15.48661361
  13.45177165 13.16317090 14.89779535
  15.64216646 12.79419407 15.00161829
  17.17698788 14.01782466 13.41704752
  15.84197652 15.11249942 12.97665859
  15.74281779 13.37112223 12.59453900
  15.38824166 16.37990521 15.20847935
  17.10119680 16.21581926 17.65483553
  17.99236037 16.72178942 16.21672946
  16.63326444 17.75098348 16.80954571
  11.78770573 14.98785767 14.66374636
  13.28571669 15.15179128 14.56705273
  15.46634041 13.84013907 14.71667964
  16.08430444 14.10595559 13.33777839
  16.24404526 14.61519380 15.80049744
  16.98732177 16.71626998 16.68040887
  13.99839382 14.00779326 14.74931762
  16.06092018 15.95108692 15.86433141
  13.81555761 16.25381546 14.33439036
  17.07714996 14.01805879 16.50117597
 


--------------------------------------------------------------------------------------------------------


 k-point  1 :   0.2500 0.2500 0.2500  plane waves:  490454
 k-point  2 :  -0.2500 0.2500 0.2500  plane waves:  490454
 k-point  3 :   0.2500-0.2500 0.2500  plane waves:  490454
 k-point  4 :  -0.2500-0.2500 0.2500  plane waves:  490454

 maximum and minimum number of plane-waves per node :    490454   490454

 maximum number of plane-waves:    490454
 maximum index in each direction: 
   IXMAX=   49   IYMAX=   49   IZMAX=   48
   IXMIN=  -49   IYMIN=  -49   IZMIN=  -49

 WARNING: aliasing errors must be expected set NGX to 198 to avoid them
 WARNING: aliasing errors must be expected set NGY to 198 to avoid them
 WARNING: aliasing errors must be expected set NGZ to 196 to avoid them
 aliasing errors are usually negligible using standard VASP settings
 and one can safely disregard these warnings

 serial   3D FFT for wavefunctions
 parallel 3D FFT for charge:
    minimum data exchange during FFTs selected (reduces bandwidth)


 total amount of memory used by VASP on root node  4333707. kBytes
========================================================================

   base      :      30000. kBytes
   nonlr-proj:       2402. kBytes
   fftplans  :     924480. kBytes
   grid      :    2089440. kBytes
   one-center:         67. kBytes
   wavefun   :    1287318. kBytes
 
     INWAV:  cpu time    0.0000: real time    0.0004
 Broyden mixing: mesh for mixing (old mesh)
   NGX = 97   NGY = 97   NGZ = 97
  (NGX  =300   NGY  =300   NGZ  =300)
  gives a total of 912673 points

 initial charge density was supplied:
 charge density of overlapping atoms calculated
 number of electron      58.0000000 magnetization 
 keeping initial charge density in first step


--------------------------------------------------------------------------------------------------------


 Maximum index for non-local projection operator         2279
 Maximum index for augmentation-charges         1575 (set IRDMAX)


--------------------------------------------------------------------------------------------------------


 First call to EWALD:  gamma=   0.059
 Maximum number of real-space cells 3x 3x 3
 Maximum number of reciprocal cells 3x 3x 3

 FEWALD executed in parallel
    FEWALD:  cpu time    0.0050: real time    0.0047


----------------------------------------- Iteration    1(   1)  ---------------------------------------


    POTLOK:  cpu time   19.6690: real time   19.6530
    SETDIJ:  cpu time    0.0280: real time    0.0282
     EDDAV:  cpu time  259.4166: real time  259.2021
       DOS:  cpu time    0.0000: real time    0.0009
    --------------------------------------------
      LOOP:  cpu time  279.1176: real time  278.8883

 eigenvalue-minimisations  :   408
 total energy-change (2. order) : 0.5805690E+03  (-0.8272944E+03)
 number of electron      58.0000000 magnetization 
 augmentation part       58.0000000 magnetization 

 Free energy of the ion-electron system (eV)
  ---------------------------------------------------
  alpha Z        PSCENC =         0.51957394
  Ewald energy   TEWEN  =      6145.96641582
  -Hartree energ DENC   =     -7888.37736348
  -exchange      EXHF   =         0.00000000
  -V(xc)+E(xc)   XCENC  =       202.10210131
  PAW double counting   =      1779.70502452    -1789.20730229
  entropy T*S    EENTRO =        -0.78515889
  eigenvalues    EBANDS =      -295.33761418
  atomic energy  EATOM  =      2425.98333211
  Solvation  Ediel_sol  =         0.00000000
  ---------------------------------------------------
  free energy    TOTEN  =       580.56900886 eV

  energy without entropy =      581.35416775  energy(sigma->0) =      580.96158831


--------------------------------------------------------------------------------------------------------




----------------------------------------- Iteration    1(   2)  ---------------------------------------


     EDDAV:  cpu time  342.4609: real time  342.1769
       DOS:  cpu time    0.0000: real time    0.0008
    --------------------------------------------
      LOOP:  cpu time  342.4629: real time  342.1806

 eigenvalue-minimisations  :   573
 total energy-change (2. order) :-0.3294676E+03  (-0.3191865E+03)
 number of electron      58.0000000 magnetization 
 augmentation part       58.0000000 magnetization 

 Free energy of the ion-electron system (eV)
  ---------------------------------------------------
  alpha Z        PSCENC =         0.51957394
  Ewald energy   TEWEN  =      6145.96641582
  -Hartree energ DENC   =     -7888.37736348
  -exchange      EXHF   =         0.00000000
  -V(xc)+E(xc)   XCENC  =       202.10210131
  PAW double counting   =      1779.70502452    -1789.20730229
  entropy T*S    EENTRO =        -0.44548034
  eigenvalues    EBANDS =      -625.14486974
  atomic energy  EATOM  =      2425.98333211
  Solvation  Ediel_sol  =         0.00000000
  ---------------------------------------------------
  free energy    TOTEN  =       251.10143186 eV

  energy without entropy =      251.54691220  energy(sigma->0) =      251.32417203


--------------------------------------------------------------------------------------------------------




----------------------------------------- Iteration    1(   3)  ---------------------------------------


     EDDAV:  cpu time  303.2089: real time  302.9594
       DOS:  cpu time    0.0000: real time    0.0005
    --------------------------------------------
      LOOP:  cpu time  303.2109: real time  302.9630

 eigenvalue-minimisations  :   496
 total energy-change (2. order) :-0.3005345E+03  (-0.2907934E+03)
 number of electron      58.0000000 magnetization 
 augmentation part       58.0000000 magnetization 

 Free energy of the ion-electron system (eV)
  ---------------------------------------------------
  alpha Z        PSCENC =         0.51957394
  Ewald energy   TEWEN  =      6145.96641582
  -Hartree energ DENC   =     -7888.37736348
  -exchange      EXHF   =         0.00000000
  -V(xc)+E(xc)   XCENC  =       202.10210131
  PAW double counting   =      1779.70502452    -1789.20730229
  entropy T*S    EENTRO =         0.00000000
  eigenvalues    EBANDS =      -926.12480085
  atomic energy  EATOM  =      2425.98333211
  Solvation  Ediel_sol  =         0.00000000
  ---------------------------------------------------
  free energy    TOTEN  =       -49.43301892 eV

  energy without entropy =      -49.43301892  energy(sigma->0) =      -49.43301892


--------------------------------------------------------------------------------------------------------




----------------------------------------- Iteration    1(   4)  ---------------------------------------


     EDDAV:  cpu time  251.8027: real time  251.5940
       DOS:  cpu time    0.0010: real time    0.0005
    --------------------------------------------
      LOOP:  cpu time  251.8047: real time  251.5974

 eigenvalue-minimisations  :   395
 total energy-change (2. order) :-0.8784973E+02  (-0.8774336E+02)
 number of electron      58.0000000 magnetization 
 augmentation part       58.0000000 magnetization 

 Free energy of the ion-electron system (eV)
  ---------------------------------------------------
  alpha Z        PSCENC =         0.51957394
  Ewald energy   TEWEN  =      6145.96641582
  -Hartree energ DENC   =     -7888.37736348
  -exchange      EXHF   =         0.00000000
  -V(xc)+E(xc)   XCENC  =       202.10210131
  PAW double counting   =      1779.70502452    -1789.20730229
  entropy T*S    EENTRO =         0.00000000
  eigenvalues    EBANDS =     -1013.97452691
  atomic energy  EATOM  =      2425.98333211
  Solvation  Ediel_sol  =         0.00000000
  ---------------------------------------------------
  free energy    TOTEN  =      -137.28274497 eV

  energy without entropy =     -137.28274497  energy(sigma->0) =     -137.28274497


--------------------------------------------------------------------------------------------------------




----------------------------------------- Iteration    1(   5)  ---------------------------------------


     EDDAV:  cpu time  287.2773: real time  287.0389
       DOS:  cpu time    0.0000: real time    0.0005
    CHARGE:  cpu time   16.5485: real time   16.5344
    MIXING:  cpu time    0.5929: real time    0.5928
    --------------------------------------------
      LOOP:  cpu time  304.4187: real time  304.1695

 eigenvalue-minimisations  :   464
 total energy-change (2. order) :-0.4520847E+01  (-0.4510538E+01)
 number of electron      58.0000027 magnetization 
 augmentation part        2.9702648 magnetization 

 Broyden mixing:
  rms(total) = 0.19548E+01    rms(broyden)= 0.19527E+01
  rms(prec ) = 0.20301E+01
  weight for this iteration     100.00

 Free energy of the ion-electron system (eV)
  ---------------------------------------------------
  alpha Z        PSCENC =         0.51957394
  Ewald energy   TEWEN  =      6145.96641582
  -Hartree energ DENC   =     -7888.37736348
  -exchange      EXHF   =         0.00000000
  -V(xc)+E(xc)   XCENC  =       202.10210131
  PAW double counting   =      1779.70502452    -1789.20730229
  entropy T*S    EENTRO =         0.00000000
  eigenvalues    EBANDS =     -1018.49537399
  atomic energy  EATOM  =      2425.98333211
  Solvation  Ediel_sol  =         0.00000000
  ---------------------------------------------------
  free energy    TOTEN  =      -141.80359205 eV

  energy without entropy =     -141.80359205  energy(sigma->0) =     -141.80359205


--------------------------------------------------------------------------------------------------------




----------------------------------------- Iteration    1(   6)  ---------------------------------------


    POTLOK:  cpu time   18.2562: real time   18.2408
    SETDIJ:  cpu time    0.0280: real time    0.0284
     EDDAV:  cpu time  267.5303: real time  267.3067
       DOS:  cpu time    0.0000: real time    0.0005
    CHARGE:  cpu time   16.6085: real time   16.5944
    MIXING:  cpu time    0.6159: real time    0.6154
    --------------------------------------------
      LOOP:  cpu time  303.0399: real time  303.6776

 eigenvalue-minimisations  :   423
 total energy-change (2. order) : 0.1014404E+02  (-0.2371661E+01)
 number of electron      58.0000027 magnetization 
 augmentation part        2.6311146 magnetization 

 Broyden mixing:
  rms(total) = 0.99745E+00    rms(broyden)= 0.99701E+00
  rms(prec ) = 0.10257E+01
  weight for this iteration     100.00

 eigenvalues of (default mixing * dielectric matrix)
  average eigenvalue GAMMA=   1.2810
  1.2810

 Free energy of the ion-electron system (eV)
  ---------------------------------------------------
  alpha Z        PSCENC =         0.51957394
  Ewald energy   TEWEN  =      6145.96641582
  -Hartree energ DENC   =     -8003.48087097
  -exchange      EXHF   =         0.00000000
  -V(xc)+E(xc)   XCENC  =       208.17499413
  PAW double counting   =      2776.16909623    -2787.02857386
  entropy T*S    EENTRO =         0.00000000
  eigenvalues    EBANDS =      -897.96352117
  atomic energy  EATOM  =      2425.98333211
  Solvation  Ediel_sol  =         0.00000000
  ---------------------------------------------------
  free energy    TOTEN  =      -131.65955376 eV

  energy without entropy =     -131.65955376  energy(sigma->0) =     -131.65955376


--------------------------------------------------------------------------------------------------------




----------------------------------------- Iteration    1(   7)  ---------------------------------------


    POTLOK:  cpu time   18.2142: real time   18.1999
    SETDIJ:  cpu time    0.0290: real time    0.0283
     EDDAV:  cpu time  268.1902: real time  267.9672
       DOS:  cpu time    0.0000: real time    0.0005
    CHARGE:  cpu time   16.5205: real time   16.5060
    MIXING:  cpu time    0.6649: real time    0.6651
    --------------------------------------------
      LOOP:  cpu time  303.6198: real time  303.3705

 eigenvalue-minimisations  :   424
 total energy-change (2. order) : 0.1760403E+01  (-0.4568715E+00)
 number of electron      58.0000029 magnetization 
 augmentation part        2.6188261 magnetization 

 Broyden mixing:
  rms(total) = 0.51482E+00    rms(broyden)= 0.51471E+00
  rms(prec ) = 0.52747E+00
  weight for this iteration     100.00

 eigenvalues of (default mixing * dielectric matrix)
  average eigenvalue GAMMA=   1.5707
  1.1055  2.0358

 Free energy of the ion-electron system (eV)
  ---------------------------------------------------
  alpha Z        PSCENC =         0.51957394
  Ewald energy   TEWEN  =      6145.96641582
  -Hartree energ DENC   =     -8065.92891756
  -exchange      EXHF   =         0.00000000
  -V(xc)+E(xc)   XCENC  =       211.21684308
  PAW double counting   =      3748.90710065    -3760.04132111
  entropy T*S    EENTRO =         0.00000000
  eigenvalues    EBANDS =      -836.52217788
  atomic energy  EATOM  =      2425.98333211
  Solvation  Ediel_sol  =         0.00000000
  ---------------------------------------------------
  free energy    TOTEN  =      -129.89915094 eV

  energy without entropy =     -129.89915094  energy(sigma->0) =     -129.89915094


--------------------------------------------------------------------------------------------------------




----------------------------------------- Iteration    1(   8)  ---------------------------------------


    POTLOK:  cpu time   18.4132: real time   18.3980
    SETDIJ:  cpu time    0.0280: real time    0.0284
     EDDAV:  cpu time  272.1296: real time  271.9023
       DOS:  cpu time    0.0010: real time    0.0005
    CHARGE:  cpu time   16.5595: real time   16.5463
    MIXING:  cpu time    0.6909: real time    0.6901
    --------------------------------------------
      LOOP:  cpu time  307.8232: real time  307.5690

 eigenvalue-minimisations  :   432
 total energy-change (2. order) : 0.4892271E+00  (-0.8448337E-01)
 number of electron      58.0000028 magnetization 
 augmentation part        2.5904360 magnetization 

 Broyden mixing:
  rms(total) = 0.15273E+00    rms(broyden)= 0.15267E+00
  rms(prec ) = 0.16046E+00
  weight for this iteration     100.00

 eigenvalues of (default mixing * dielectric matrix)
  average eigenvalue GAMMA=   1.5439
  2.3880  0.9443  1.2993

 Free energy of the ion-electron system (eV)
  ---------------------------------------------------
  alpha Z        PSCENC =         0.51957394
  Ewald energy   TEWEN  =      6145.96641582
  -Hartree energ DENC   =     -8106.50225923
  -exchange      EXHF   =         0.00000000
  -V(xc)+E(xc)   XCENC  =       213.33482471
  PAW double counting   =      4571.22028271    -4582.53742932
  entropy T*S    EENTRO =         0.00000000
  eigenvalues    EBANDS =      -797.39466457
  atomic energy  EATOM  =      2425.98333211
  Solvation  Ediel_sol  =         0.00000000
  ---------------------------------------------------
  free energy    TOTEN  =      -129.40992383 eV

  energy without entropy =     -129.40992383  energy(sigma->0) =     -129.40992383


--------------------------------------------------------------------------------------------------------




----------------------------------------- Iteration    1(   9)  ---------------------------------------


    POTLOK:  cpu time   18.3052: real time   18.2910
    SETDIJ:  cpu time    0.0280: real time    0.0283
     EDDAV:  cpu time  284.7947: real time  284.5567
       DOS:  cpu time    0.0000: real time    0.0005
    CHARGE:  cpu time   16.5885: real time   16.5739
    MIXING:  cpu time    0.7219: real time    0.7219
    --------------------------------------------
      LOOP:  cpu time  320.4393: real time  320.1759

 eigenvalue-minimisations  :   456
 total energy-change (2. order) : 0.6824278E-01  (-0.1016445E-01)
 number of electron      58.0000028 magnetization 
 augmentation part        2.5828187 magnetization 

 Broyden mixing:
  rms(total) = 0.56435E-01    rms(broyden)= 0.56406E-01
  rms(prec ) = 0.65141E-01
  weight for this iteration     100.00

 eigenvalues of (default mixing * dielectric matrix)
  average eigenvalue GAMMA=   1.5171
  2.1974  1.0494  1.0494  1.7720

 Free energy of the ion-electron system (eV)
  ---------------------------------------------------
  alpha Z        PSCENC =         0.51957394
  Ewald energy   TEWEN  =      6145.96641582
  -Hartree energ DENC   =     -8120.14739752
  -exchange      EXHF   =         0.00000000
  -V(xc)+E(xc)   XCENC  =       213.88455340
  PAW double counting   =      4804.69149004    -4815.97927312
  entropy T*S    EENTRO =         0.00000000
  eigenvalues    EBANDS =      -784.26037571
  atomic energy  EATOM  =      2425.98333211
  Solvation  Ediel_sol  =         0.00000000
  ---------------------------------------------------
  free energy    TOTEN  =      -129.34168105 eV

  energy without entropy =     -129.34168105  energy(sigma->0) =     -129.34168105


--------------------------------------------------------------------------------------------------------




----------------------------------------- Iteration    1(  10)  ---------------------------------------


    POTLOK:  cpu time   18.2782: real time   18.2628
    SETDIJ:  cpu time    0.0280: real time    0.0284
     EDDAV:  cpu time  284.9227: real time  284.6857
       DOS:  cpu time    0.0000: real time    0.0005
    CHARGE:  cpu time   16.5695: real time   16.5565
    MIXING:  cpu time    0.8029: real time    0.8011
    --------------------------------------------
      LOOP:  cpu time  320.6033: real time  320.3386

 eigenvalue-minimisations  :   456
 total energy-change (2. order) : 0.1140309E-01  (-0.2431578E-02)
 number of electron      58.0000028 magnetization 
 augmentation part        2.5889059 magnetization 

 Broyden mixing:
  rms(total) = 0.25853E-01    rms(broyden)= 0.25832E-01
  rms(prec ) = 0.35990E-01
  weight for this iteration     100.00

 eigenvalues of (default mixing * dielectric matrix)
  average eigenvalue GAMMA=   1.4868
  2.1690  2.1690  0.9684  0.9684  1.1593

 Free energy of the ion-electron system (eV)
  ---------------------------------------------------
  alpha Z        PSCENC =         0.51957394
  Ewald energy   TEWEN  =      6145.96641582
  -Hartree energ DENC   =     -8125.21588071
  -exchange      EXHF   =         0.00000000
  -V(xc)+E(xc)   XCENC  =       213.89654914
  PAW double counting   =      4796.49867535    -4807.73834124
  entropy T*S    EENTRO =         0.00000000
  eigenvalues    EBANDS =      -779.24060236
  atomic energy  EATOM  =      2425.98333211
  Solvation  Ediel_sol  =         0.00000000
  ---------------------------------------------------
  free energy    TOTEN  =      -129.33027795 eV

  energy without entropy =     -129.33027795  energy(sigma->0) =     -129.33027795


--------------------------------------------------------------------------------------------------------




----------------------------------------- Iteration    1(  11)  ---------------------------------------


    POTLOK:  cpu time   18.3522: real time   18.3382
    SETDIJ:  cpu time    0.0280: real time    0.0283
     EDDAV:  cpu time  280.4814: real time  280.2474
       DOS:  cpu time    0.0000: real time    0.0005
    CHARGE:  cpu time   16.4415: real time   16.4285
    MIXING:  cpu time    0.8089: real time    0.8080
    --------------------------------------------
      LOOP:  cpu time  316.1139: real time  315.8548

 eigenvalue-minimisations  :   448
 total energy-change (2. order) : 0.5532449E-02  (-0.7941451E-03)
 number of electron      58.0000028 magnetization 
 augmentation part        2.5848058 magnetization 

 Broyden mixing:
  rms(total) = 0.16235E-01    rms(broyden)= 0.16228E-01
  rms(prec ) = 0.25109E-01
  weight for this iteration     100.00

 eigenvalues of (default mixing * dielectric matrix)
  average eigenvalue GAMMA=   1.5456
  2.4756  2.4756  0.9484  0.9484  1.2127  1.2127

 Free energy of the ion-electron system (eV)
  ---------------------------------------------------
  alpha Z        PSCENC =         0.51957394
  Ewald energy   TEWEN  =      6145.96641582
  -Hartree energ DENC   =     -8131.09676485
  -exchange      EXHF   =         0.00000000
  -V(xc)+E(xc)   XCENC  =       214.00115987
  PAW double counting   =      4799.81925592    -4811.05780619
  entropy T*S    EENTRO =         0.00000000
  eigenvalues    EBANDS =      -773.45991213
  atomic energy  EATOM  =      2425.98333211
  Solvation  Ediel_sol  =         0.00000000
  ---------------------------------------------------
  free energy    TOTEN  =      -129.32474550 eV

  energy without entropy =     -129.32474550  energy(sigma->0) =     -129.32474550


--------------------------------------------------------------------------------------------------------




----------------------------------------- Iteration    1(  12)  ---------------------------------------


    POTLOK:  cpu time   18.3642: real time   18.3501
    SETDIJ:  cpu time    0.0290: real time    0.0284
     EDDAV:  cpu time  252.5616: real time  252.3525
       DOS:  cpu time    0.0000: real time    0.0005
    CHARGE:  cpu time   16.4955: real time   16.4819
    MIXING:  cpu time    0.8519: real time    0.8508
    --------------------------------------------
      LOOP:  cpu time  288.3052: real time  288.0679

 eigenvalue-minimisations  :   392
 total energy-change (2. order) :-0.4685606E-03  (-0.5674358E-03)
 number of electron      58.0000028 magnetization 
 augmentation part        2.5844185 magnetization 

 Broyden mixing:
  rms(total) = 0.98815E-02    rms(broyden)= 0.98771E-02
  rms(prec ) = 0.16109E-01
  weight for this iteration     100.00

 eigenvalues of (default mixing * dielectric matrix)
  average eigenvalue GAMMA=   1.5951
  2.7135  2.7135  1.3792  1.2147  1.2147  0.9650  0.9650

 Free energy of the ion-electron system (eV)
  ---------------------------------------------------
  alpha Z        PSCENC =         0.51957394
  Ewald energy   TEWEN  =      6145.96641582
  -Hartree energ DENC   =     -8137.84671712
  -exchange      EXHF   =         0.00000000
  -V(xc)+E(xc)   XCENC  =       214.08648561
  PAW double counting   =      4795.19537225    -4806.42378966
  entropy T*S    EENTRO =         0.00000000
  eigenvalues    EBANDS =      -766.80588703
  atomic energy  EATOM  =      2425.98333211
  Solvation  Ediel_sol  =         0.00000000
  ---------------------------------------------------
  free energy    TOTEN  =      -129.32521407 eV

  energy without entropy =     -129.32521407  energy(sigma->0) =     -129.32521407


--------------------------------------------------------------------------------------------------------




----------------------------------------- Iteration    1(  13)  ---------------------------------------


    POTLOK:  cpu time   18.4002: real time   18.3858
    SETDIJ:  cpu time    0.0290: real time    0.0282
     EDDAV:  cpu time  272.9275: real time  272.7008
       DOS:  cpu time    0.0000: real time    0.0005
    CHARGE:  cpu time   16.4835: real time   16.4703
    MIXING:  cpu time    0.9049: real time    0.9031
    --------------------------------------------
      LOOP:  cpu time  308.7461: real time  308.4924

 eigenvalue-minimisations  :   432
 total energy-change (2. order) :-0.6240747E-02  (-0.4664365E-03)
 number of electron      58.0000028 magnetization 
 augmentation part        2.5827533 magnetization 

 Broyden mixing:
  rms(total) = 0.59768E-02    rms(broyden)= 0.59711E-02
  rms(prec ) = 0.97084E-02
  weight for this iteration     100.00

 eigenvalues of (default mixing * dielectric matrix)
  average eigenvalue GAMMA=   1.7005
  4.0920  2.4910  1.6549  1.4011  0.9984  0.9984  0.9012  1.0671

 Free energy of the ion-electron system (eV)
  ---------------------------------------------------
  alpha Z        PSCENC =         0.51957394
  Ewald energy   TEWEN  =      6145.96641582
  -Hartree energ DENC   =     -8143.54220143
  -exchange      EXHF   =         0.00000000
  -V(xc)+E(xc)   XCENC  =       214.15467922
  PAW double counting   =      4789.82494998    -4801.05377543
  entropy T*S    EENTRO =         0.00000000
  eigenvalues    EBANDS =      -761.18442904
  atomic energy  EATOM  =      2425.98333211
  Solvation  Ediel_sol  =         0.00000000
  ---------------------------------------------------
  free energy    TOTEN  =      -129.33145481 eV

  energy without entropy =     -129.33145481  energy(sigma->0) =     -129.33145481


--------------------------------------------------------------------------------------------------------




----------------------------------------- Iteration    1(  14)  ---------------------------------------


    POTLOK:  cpu time   18.4212: real time   18.4071
    SETDIJ:  cpu time    0.0290: real time    0.0284
     EDDAV:  cpu time  252.5676: real time  252.3581
       DOS:  cpu time    0.0000: real time    0.0005
    CHARGE:  cpu time   16.5135: real time   16.4996
    MIXING:  cpu time    0.9629: real time    0.9620
    --------------------------------------------
      LOOP:  cpu time  288.4961: real time  288.2601

 eigenvalue-minimisations  :   392
 total energy-change (2. order) :-0.6379389E-02  (-0.1790696E-03)
 number of electron      58.0000028 magnetization 
 augmentation part        2.5823779 magnetization 

 Broyden mixing:
  rms(total) = 0.39286E-02    rms(broyden)= 0.39252E-02
  rms(prec ) = 0.60104E-02
  weight for this iteration     100.00

 eigenvalues of (default mixing * dielectric matrix)
  average eigenvalue GAMMA=   1.8129
  5.0292  2.4173  2.1929  1.2930  1.2930  1.0622  1.0622  0.9832  0.9832

 Free energy of the ion-electron system (eV)
  ---------------------------------------------------
  alpha Z        PSCENC =         0.51957394
  Ewald energy   TEWEN  =      6145.96641582
  -Hartree energ DENC   =     -8147.07869183
  -exchange      EXHF   =         0.00000000
  -V(xc)+E(xc)   XCENC  =       214.17844594
  PAW double counting   =      4784.04596832    -4795.27160981
  entropy T*S    EENTRO =         0.00000000
  eigenvalues    EBANDS =      -757.68126870
  atomic energy  EATOM  =      2425.98333211
  Solvation  Ediel_sol  =         0.00000000
  ---------------------------------------------------
  free energy    TOTEN  =      -129.33783420 eV

  energy without entropy =     -129.33783420  energy(sigma->0) =     -129.33783420


--------------------------------------------------------------------------------------------------------




----------------------------------------- Iteration    1(  15)  ---------------------------------------


    POTLOK:  cpu time   18.5212: real time   18.5072
    SETDIJ:  cpu time    0.0290: real time    0.0283
     EDDAV:  cpu time  271.1018: real time  270.8763
       DOS:  cpu time    0.0000: real time    0.0005
    CHARGE:  cpu time   16.5125: real time   16.4988
    MIXING:  cpu time    1.0028: real time    1.0022
    --------------------------------------------
      LOOP:  cpu time  307.1693: real time  306.9164

 eigenvalue-minimisations  :   428
 total energy-change (2. order) :-0.7976585E-02  (-0.9122331E-04)
 number of electron      58.0000028 magnetization 
 augmentation part        2.5819638 magnetization 

 Broyden mixing:
  rms(total) = 0.24734E-02    rms(broyden)= 0.24719E-02
  rms(prec ) = 0.36498E-02
  weight for this iteration     100.00

 eigenvalues of (default mixing * dielectric matrix)
  average eigenvalue GAMMA=   1.8954
  5.6405  2.7498  2.3471  1.7899  1.2326  1.2326  1.0223  1.0223  0.9585  0.9585

 Free energy of the ion-electron system (eV)
  ---------------------------------------------------
  alpha Z        PSCENC =         0.51957394
  Ewald energy   TEWEN  =      6145.96641582
  -Hartree energ DENC   =     -8148.86986545
  -exchange      EXHF   =         0.00000000
  -V(xc)+E(xc)   XCENC  =       214.17962231
  PAW double counting   =      4783.14987218    -4794.37444883
  entropy T*S    EENTRO =         0.00000000
  eigenvalues    EBANDS =      -755.90031287
  atomic energy  EATOM  =      2425.98333211
  Solvation  Ediel_sol  =         0.00000000
  ---------------------------------------------------
  free energy    TOTEN  =      -129.34581079 eV

  energy without entropy =     -129.34581079  energy(sigma->0) =     -129.34581079


--------------------------------------------------------------------------------------------------------




----------------------------------------- Iteration    1(  16)  ---------------------------------------


    POTLOK:  cpu time   18.5022: real time   18.4876
    SETDIJ:  cpu time    0.0290: real time    0.0283
     EDDAV:  cpu time  244.9048: real time  244.7026
       DOS:  cpu time    0.0000: real time    0.0005
    CHARGE:  cpu time   16.5015: real time   16.4878
    MIXING:  cpu time    1.0748: real time    1.0737
    --------------------------------------------
      LOOP:  cpu time  281.0143: real time  280.7836

 eigenvalue-minimisations  :   376
 total energy-change (2. order) :-0.6171918E-02  (-0.4934158E-04)
 number of electron      58.0000028 magnetization 
 augmentation part        2.5822334 magnetization 

 Broyden mixing:
  rms(total) = 0.13924E-02    rms(broyden)= 0.13915E-02
  rms(prec ) = 0.20754E-02
  weight for this iteration     100.00

 eigenvalues of (default mixing * dielectric matrix)
  average eigenvalue GAMMA=   1.9312
  6.2205  3.1924  2.3570  1.8853  1.2760  1.2279  1.2279  0.9979  0.9979  0.9301
  0.9301

 Free energy of the ion-electron system (eV)
  ---------------------------------------------------
  alpha Z        PSCENC =         0.51957394
  Ewald energy   TEWEN  =      6145.96641582
  -Hartree energ DENC   =     -8149.49066669
  -exchange      EXHF   =         0.00000000
  -V(xc)+E(xc)   XCENC  =       214.16753429
  PAW double counting   =      4783.14696985    -4794.37002746
  entropy T*S    EENTRO =         0.00000000
  eigenvalues    EBANDS =      -755.27511457
  atomic energy  EATOM  =      2425.98333211
  Solvation  Ediel_sol  =         0.00000000
  ---------------------------------------------------
  free energy    TOTEN  =      -129.35198270 eV

  energy without entropy =     -129.35198270  energy(sigma->0) =     -129.35198270


--------------------------------------------------------------------------------------------------------




----------------------------------------- Iteration    1(  17)  ---------------------------------------


    POTLOK:  cpu time   18.5012: real time   18.4858
    SETDIJ:  cpu time    0.0280: real time    0.0283
     EDDAV:  cpu time  225.1338: real time  224.9468
       DOS:  cpu time    0.0010: real time    0.0005
    CHARGE:  cpu time   16.5275: real time   16.5146
    MIXING:  cpu time    1.1738: real time    1.1724
    --------------------------------------------
      LOOP:  cpu time  261.3663: real time  261.1518

 eigenvalue-minimisations  :   336
 total energy-change (2. order) :-0.2620385E-02  (-0.1287258E-04)
 number of electron      58.0000028 magnetization 
 augmentation part        2.5820998 magnetization 

 Broyden mixing:
  rms(total) = 0.95317E-03    rms(broyden)= 0.95279E-03
  rms(prec ) = 0.13879E-02
  weight for this iteration     100.00

 eigenvalues of (default mixing * dielectric matrix)
  average eigenvalue GAMMA=   2.0102
  7.0426  3.5571  2.2679  2.2679  1.5069  1.5069  1.0319  1.0319  1.0519  1.0519
  0.9027  0.9027

 Free energy of the ion-electron system (eV)
  ---------------------------------------------------
  alpha Z        PSCENC =         0.51957394
  Ewald energy   TEWEN  =      6145.96641582
  -Hartree energ DENC   =     -8149.82346858
  -exchange      EXHF   =         0.00000000
  -V(xc)+E(xc)   XCENC  =       214.16478970
  PAW double counting   =      4783.35525599    -4794.57858523
  entropy T*S    EENTRO =         0.00000000
  eigenvalues    EBANDS =      -754.94191684
  atomic energy  EATOM  =      2425.98333211
  Solvation  Ediel_sol  =         0.00000000
  ---------------------------------------------------
  free energy    TOTEN  =      -129.35460309 eV

  energy without entropy =     -129.35460309  energy(sigma->0) =     -129.35460309


--------------------------------------------------------------------------------------------------------




----------------------------------------- Iteration    1(  18)  ---------------------------------------


    POTLOK:  cpu time   18.3912: real time   18.3761
    SETDIJ:  cpu time    0.0280: real time    0.0283
     EDDAV:  cpu time  182.2063: real time  182.0552
       DOS:  cpu time    0.0010: real time    0.0005
    CHARGE:  cpu time   16.6595: real time   16.6462
    MIXING:  cpu time    1.1978: real time    1.1968
    --------------------------------------------
      LOOP:  cpu time  218.4848: real time  218.3063

 eigenvalue-minimisations  :   253
 total energy-change (2. order) :-0.1909591E-02  (-0.1217425E-04)
 number of electron      58.0000028 magnetization 
 augmentation part        2.5820327 magnetization 

 Broyden mixing:
  rms(total) = 0.55260E-03    rms(broyden)= 0.55230E-03
  rms(prec ) = 0.80808E-03
  weight for this iteration     100.00

 eigenvalues of (default mixing * dielectric matrix)
  average eigenvalue GAMMA=   2.0697
  7.5178  4.1975  2.5139  2.2560  1.7072  1.3527  1.3527  1.0321  1.0321  0.9351
  0.9351  1.0368  1.0368

 Free energy of the ion-electron system (eV)
  ---------------------------------------------------
  alpha Z        PSCENC =         0.51957394
  Ewald energy   TEWEN  =      6145.96641582
  -Hartree energ DENC   =     -8150.02287720
  -exchange      EXHF   =         0.00000000
  -V(xc)+E(xc)   XCENC  =       214.16175300
  PAW double counting   =      4783.42326264    -4794.64649225
  entropy T*S    EENTRO =         0.00000000
  eigenvalues    EBANDS =      -754.74148074
  atomic energy  EATOM  =      2425.98333211
  Solvation  Ediel_sol  =         0.00000000
  ---------------------------------------------------
  free energy    TOTEN  =      -129.35651268 eV

  energy without entropy =     -129.35651268  energy(sigma->0) =     -129.35651268


--------------------------------------------------------------------------------------------------------




----------------------------------------- Iteration    1(  19)  ---------------------------------------


    POTLOK:  cpu time   18.3712: real time   18.3568
    SETDIJ:  cpu time    0.0290: real time    0.0283
     EDDAV:  cpu time  229.1772: real time  228.9875
       DOS:  cpu time    0.0000: real time    0.0005
    CHARGE:  cpu time   16.5615: real time   16.5473
    MIXING:  cpu time    1.2118: real time    1.2104
    --------------------------------------------
      LOOP:  cpu time  265.3517: real time  265.1339

 eigenvalue-minimisations  :   344
 total energy-change (2. order) :-0.1044769E-02  (-0.6552790E-05)
 number of electron      58.0000028 magnetization 
 augmentation part        2.5819862 magnetization 

 Broyden mixing:
  rms(total) = 0.35268E-03    rms(broyden)= 0.35245E-03
  rms(prec ) = 0.48891E-03
  weight for this iteration     100.00

 eigenvalues of (default mixing * dielectric matrix)
  average eigenvalue GAMMA=   2.1180
  8.0697  4.6575  2.5808  2.5808  1.6492  1.5518  1.5518  1.0412  1.0412  1.0418
  1.0418  0.9104  0.9669  0.9669

 Free energy of the ion-electron system (eV)
  ---------------------------------------------------
  alpha Z        PSCENC =         0.51957394
  Ewald energy   TEWEN  =      6145.96641582
  -Hartree energ DENC   =     -8150.11237073
  -exchange      EXHF   =         0.00000000
  -V(xc)+E(xc)   XCENC  =       214.16108276
  PAW double counting   =      4783.87924094    -4795.10256020
  entropy T*S    EENTRO =         0.00000000
  eigenvalues    EBANDS =      -754.65227209
  atomic energy  EATOM  =      2425.98333211
  Solvation  Ediel_sol  =         0.00000000
  ---------------------------------------------------
  free energy    TOTEN  =      -129.35755745 eV

  energy without entropy =     -129.35755745  energy(sigma->0) =     -129.35755745


--------------------------------------------------------------------------------------------------------




----------------------------------------- Iteration    1(  20)  ---------------------------------------


    POTLOK:  cpu time   18.4362: real time   18.4217
    SETDIJ:  cpu time    0.0280: real time    0.0283
     EDDAV:  cpu time  212.0118: real time  211.8359
       DOS:  cpu time    0.0010: real time    0.0005
    CHARGE:  cpu time   16.4515: real time   16.4378
    MIXING:  cpu time    1.3458: real time    1.3443
    --------------------------------------------
      LOOP:  cpu time  248.2753: real time  248.0711

 eigenvalue-minimisations  :   310
 total energy-change (2. order) :-0.4454544E-03  (-0.1855752E-05)
 number of electron      58.0000028 magnetization 
 augmentation part        2.5820011 magnetization 

 Broyden mixing:
  rms(total) = 0.19346E-03    rms(broyden)= 0.19339E-03
  rms(prec ) = 0.28300E-03
  weight for this iteration     100.00

 eigenvalues of (default mixing * dielectric matrix)
  average eigenvalue GAMMA=   2.1424
  8.2844  5.2057  2.8301  2.5030  1.8232  1.8232  1.2851  1.2851  1.0357  1.0357
  1.0627  1.0627  0.9622  0.9685  0.9685

 Free energy of the ion-electron system (eV)
  ---------------------------------------------------
  alpha Z        PSCENC =         0.51957394
  Ewald energy   TEWEN  =      6145.96641582
  -Hartree energ DENC   =     -8150.13017487
  -exchange      EXHF   =         0.00000000
  -V(xc)+E(xc)   XCENC  =       214.15960240
  PAW double counting   =      4783.48122118    -4794.70448558
  entropy T*S    EENTRO =         0.00000000
  eigenvalues    EBANDS =      -754.63348790
  atomic energy  EATOM  =      2425.98333211
  Solvation  Ediel_sol  =         0.00000000
  ---------------------------------------------------
  free energy    TOTEN  =      -129.35800290 eV

  energy without entropy =     -129.35800290  energy(sigma->0) =     -129.35800290


--------------------------------------------------------------------------------------------------------




----------------------------------------- Iteration    1(  21)  ---------------------------------------


    POTLOK:  cpu time   18.5672: real time   18.5514
    SETDIJ:  cpu time    0.0280: real time    0.0283
     EDDAV:  cpu time  209.0992: real time  208.9248
       DOS:  cpu time    0.0000: real time    0.0005
    CHARGE:  cpu time   16.5835: real time   16.5705
    MIXING:  cpu time    1.4058: real time    1.4032
    --------------------------------------------
      LOOP:  cpu time  245.6836: real time  245.4817

 eigenvalue-minimisations  :   304
 total energy-change (2. order) :-0.2416406E-03  (-0.9496351E-06)
 number of electron      58.0000028 magnetization 
 augmentation part        2.5819908 magnetization 

 Broyden mixing:
  rms(total) = 0.12564E-03    rms(broyden)= 0.12557E-03
  rms(prec ) = 0.17690E-03
  weight for this iteration     100.00

 eigenvalues of (default mixing * dielectric matrix)
  average eigenvalue GAMMA=   2.2188
  8.4980  5.7701  3.3924  2.6217  2.3643  1.6474  1.6474  1.4761  1.0815  1.0815
  1.0339  1.0339  0.9687  0.9687  1.0020  0.9132

 Free energy of the ion-electron system (eV)
  ---------------------------------------------------
  alpha Z        PSCENC =         0.51957394
  Ewald energy   TEWEN  =      6145.96641582
  -Hartree energ DENC   =     -8150.13904330
  -exchange      EXHF   =         0.00000000
  -V(xc)+E(xc)   XCENC  =       214.15928574
  PAW double counting   =      4783.54837191    -4794.77165377
  entropy T*S    EENTRO =         0.00000000
  eigenvalues    EBANDS =      -754.62452700
  atomic energy  EATOM  =      2425.98333211
  Solvation  Ediel_sol  =         0.00000000
  ---------------------------------------------------
  free energy    TOTEN  =      -129.35824454 eV

  energy without entropy =     -129.35824454  energy(sigma->0) =     -129.35824454


--------------------------------------------------------------------------------------------------------




----------------------------------------- Iteration    1(  22)  ---------------------------------------


    POTLOK:  cpu time   18.3642: real time   18.3493
    SETDIJ:  cpu time    0.0290: real time    0.0283
     EDDAV:  cpu time  194.5444: real time  194.3842
       DOS:  cpu time    0.0000: real time    0.0005
    CHARGE:  cpu time   16.5245: real time   16.5094
    MIXING:  cpu time    1.4998: real time    1.4988
    --------------------------------------------
      LOOP:  cpu time  230.9619: real time  230.7732

 eigenvalue-minimisations  :   276
 total energy-change (2. order) :-0.1542592E-03  (-0.4254194E-06)
 number of electron      58.0000028 magnetization 
 augmentation part        2.5819895 magnetization 

 Broyden mixing:
  rms(total) = 0.80741E-04    rms(broyden)= 0.80701E-04
  rms(prec ) = 0.10232E-03
  weight for this iteration     100.00

 eigenvalues of (default mixing * dielectric matrix)
  average eigenvalue GAMMA=   2.2041
  8.5894  6.1347  3.6401  2.4817  2.4817  1.7080  1.7080  1.3353  1.3353  1.0381
  1.0381  1.0710  1.0710  0.9377  0.9377  0.9807  0.9807

 Free energy of the ion-electron system (eV)
  ---------------------------------------------------
  alpha Z        PSCENC =         0.51957394
  Ewald energy   TEWEN  =      6145.96641582
  -Hartree energ DENC   =     -8150.15505638
  -exchange      EXHF   =         0.00000000
  -V(xc)+E(xc)   XCENC  =       214.15905014
  PAW double counting   =      4783.45870269    -4794.68200359
  entropy T*S    EENTRO =         0.00000000
  eigenvalues    EBANDS =      -754.60841354
  atomic energy  EATOM  =      2425.98333211
  Solvation  Ediel_sol  =         0.00000000
  ---------------------------------------------------
  free energy    TOTEN  =      -129.35839880 eV

  energy without entropy =     -129.35839880  energy(sigma->0) =     -129.35839880


--------------------------------------------------------------------------------------------------------




----------------------------------------- Iteration    1(  23)  ---------------------------------------


    POTLOK:  cpu time   18.4182: real time   18.4034
    SETDIJ:  cpu time    0.0280: real time    0.0283
     EDDAV:  cpu time  241.6983: real time  241.4973
       DOS:  cpu time    0.0010: real time    0.0005
    --------------------------------------------
      LOOP:  cpu time  260.1465: real time  259.9322

 eigenvalue-minimisations  :   368
 total energy-change (2. order) :-0.3692321E-04  (-0.1040901E-06)
 number of electron      58.0000028 magnetization 
 augmentation part        2.5819895 magnetization 

 Free energy of the ion-electron system (eV)
  ---------------------------------------------------
  alpha Z        PSCENC =         0.51957394
  Ewald energy   TEWEN  =      6145.96641582
  -Hartree energ DENC   =     -8150.16078092
  -exchange      EXHF   =         0.00000000
  -V(xc)+E(xc)   XCENC  =       214.15901068
  PAW double counting   =      4783.49064041    -4794.71392702
  entropy T*S    EENTRO =         0.00000000
  eigenvalues    EBANDS =      -754.60270076
  atomic energy  EATOM  =      2425.98333211
  Solvation  Ediel_sol  =         0.00000000
  ---------------------------------------------------
  free energy    TOTEN  =      -129.35843573 eV

  energy without entropy =     -129.35843573  energy(sigma->0) =     -129.35843573


--------------------------------------------------------------------------------------------------------




 average (electrostatic) potential at core
  the test charge radii are     0.5201  0.6991  0.7089  0.7215
  (the norm of the test charge is              1.0000)
       1 -42.3765       2 -42.5889       3 -42.5871       4 -44.7799       5 -42.3842
       6 -41.9410       7 -41.8604       8 -41.9630       9 -43.3153      10 -41.6006
      11 -41.6311      12 -41.9267      13 -59.0886      14 -61.4926      15 -60.0144
      16 -58.6409      17 -60.7216      18 -59.0504      19 -74.7693      20 -73.8639
      21 -79.9943      22 -79.2282
 
 
 
 E-fermi :  -4.4070     XC(G=0):  -0.1534     alpha+bet : -0.0465


 k-point     1 :       0.2500    0.2500    0.2500
  band No.  band energies     occupation 
      1     -26.2237      2.00000
      2     -25.5127      2.00000
      3     -23.4327      2.00000
      4     -22.5873      2.00000
      5     -19.6363      2.00000
      6     -18.3098      2.00000
      7     -17.2405      2.00000
      8     -16.1494      2.00000
      9     -14.7637      2.00000
     10     -13.9139      2.00000
     11     -13.2689      2.00000
     12     -12.5138      2.00000
     13     -11.5664      2.00000
     14     -11.3775      2.00000
     15     -10.8773      2.00000
     16     -10.7614      2.00000
     17     -10.3562      2.00000
     18     -10.0998      2.00000
     19     -10.0097      2.00000
     20      -9.9384      2.00000
     21      -9.3725      2.00000
     22      -9.1210      2.00000
     23      -8.9607      2.00000
     24      -8.6877      2.00000
     25      -8.4135      2.00000
     26      -6.7679      2.00000
     27      -6.2431      2.00000
     28      -5.8003      2.00000
     29      -5.3952      2.00000
     30      -1.1504      0.00000
     31      -0.9913      0.00000
     32      -0.4620      0.00000
     33      -0.2692      0.00000
     34      -0.2099      0.00000
     35      -0.0480      0.00000
     36       0.0238      0.00000
     37       0.0886      0.00000
     38       0.1053      0.00000
     39       0.1123      0.00000
     40       0.1636      0.00000
     41       0.1742      0.00000

 k-point     2 :      -0.2500    0.2500    0.2500
  band No.  band energies     occupation 
      1     -26.2237      2.00000
      2     -25.5127      2.00000
      3     -23.4327      2.00000
      4     -22.5873      2.00000
      5     -19.6363      2.00000
      6     -18.3098      2.00000
      7     -17.2405      2.00000
      8     -16.1494      2.00000
      9     -14.7637      2.00000
     10     -13.9139      2.00000
     11     -13.2689      2.00000
     12     -12.5138      2.00000
     13     -11.5664      2.00000
     14     -11.3775      2.00000
     15     -10.8773      2.00000
     16     -10.7614      2.00000
     17     -10.3562      2.00000
     18     -10.0998      2.00000
     19     -10.0097      2.00000
     20      -9.9384      2.00000
     21      -9.3726      2.00000
     22      -9.1210      2.00000
     23      -8.9607      2.00000
     24      -8.6877      2.00000
     25      -8.4135      2.00000
     26      -6.7679      2.00000
     27      -6.2431      2.00000
     28      -5.8003      2.00000
     29      -5.3951      2.00000
     30      -1.1504      0.00000
     31      -0.9913      0.00000
     32      -0.4620      0.00000
     33      -0.2692      0.00000
     34      -0.2098      0.00000
     35      -0.0476      0.00000
     36       0.0225      0.00000
     37       0.0838      0.00000
     38       0.1101      0.00000
     39       0.1197      0.00000
     40       0.1563      0.00000
     41       0.1733      0.00000

 k-point     3 :       0.2500   -0.2500    0.2500
  band No.  band energies     occupation 
      1     -26.2237      2.00000
      2     -25.5127      2.00000
      3     -23.4327      2.00000
      4     -22.5873      2.00000
      5     -19.6363      2.00000
      6     -18.3098      2.00000
      7     -17.2405      2.00000
      8     -16.1494      2.00000
      9     -14.7637      2.00000
[...]
 augmentation part        2.5815988 magnetization 

 Free energy of the ion-electron system (eV)
  ---------------------------------------------------
  alpha Z        PSCENC =         0.51957394
  Ewald energy   TEWEN  =      6119.50437786
  -Hartree energ DENC   =     -8123.13335827
  -exchange      EXHF   =         0.00000000
  -V(xc)+E(xc)   XCENC  =       214.09009394
  PAW double counting   =      4777.28344766    -4788.50291694
  entropy T*S    EENTRO =         0.00000000
  eigenvalues    EBANDS =      -755.17133986
  atomic energy  EATOM  =      2425.98333211
  Solvation  Ediel_sol  =         0.00000000
  ---------------------------------------------------
  free energy    TOTEN  =      -129.42678956 eV

  energy without entropy =     -129.42678956  energy(sigma->0) =     -129.42678956


--------------------------------------------------------------------------------------------------------




 average (electrostatic) potential at core
  the test charge radii are     0.5201  0.6991  0.7089  0.7215
  (the norm of the test charge is              1.0000)
       1 -42.3302       2 -42.5525       3 -42.5765       4 -44.7927       5 -42.3758
       6 -41.9135       7 -41.8008       8 -41.9357       9 -43.4101      10 -41.7336
      11 -41.7418      12 -42.0357      13 -59.0943      14 -61.4937      15 -59.9947
      16 -58.6079      17 -60.7550      18 -59.1311      19 -74.7782      20 -73.9353
      21 -79.9781      22 -79.2571
 
 
 
 E-fermi :  -4.4884     XC(G=0):  -0.1305     alpha+bet : -0.0465


 k-point     1 :       0.2500    0.2500    0.2500
  band No.  band energies     occupation 
      1     -26.2028      2.00000
      2     -25.5074      2.00000
      3     -23.4433      2.00000
      4     -22.6621      2.00000
      5     -19.5963      2.00000
      6     -18.2713      2.00000
      7     -17.3472      2.00000
      8     -16.1572      2.00000
      9     -14.7305      2.00000
     10     -13.9552      2.00000
     11     -13.2766      2.00000
     12     -12.5392      2.00000
     13     -11.5625      2.00000
     14     -11.3416      2.00000
     15     -10.8819      2.00000
     16     -10.7770      2.00000
     17     -10.3547      2.00000
     18     -10.1176      2.00000
     19      -9.9866      2.00000
     20      -9.9184      2.00000
     21      -9.3942      2.00000
     22      -9.1267      2.00000
     23      -8.9940      2.00000
     24      -8.6946      2.00000
     25      -8.4861      2.00000
     26      -6.7963      2.00000
     27      -6.2216      2.00000
     28      -5.8328      2.00000
     29      -5.4101      2.00000
     30      -1.1532      0.00000
     31      -0.9865      0.00000
     32      -0.4462      0.00000
     33      -0.2910      0.00000
     34      -0.2106      0.00000
     35      -0.0509      0.00000
     36       0.0491      0.00000
     37       0.1141      0.00000
     38       0.1298      0.00000
     39       0.1374      0.00000
     40       0.1880      0.00000
     41       0.1992      0.00000

 k-point     2 :      -0.2500    0.2500    0.2500
  band No.  band energies     occupation 
      1     -26.2028      2.00000
      2     -25.5074      2.00000
      3     -23.4433      2.00000
      4     -22.6621      2.00000
      5     -19.5963      2.00000
      6     -18.2713      2.00000
      7     -17.3472      2.00000
      8     -16.1572      2.00000
      9     -14.7305      2.00000
     10     -13.9552      2.00000
     11     -13.2766      2.00000
     12     -12.5392      2.00000
     13     -11.5625      2.00000
     14     -11.3416      2.00000
     15     -10.8819      2.00000
     16     -10.7770      2.00000
     17     -10.3547      2.00000
     18     -10.1176      2.00000
     19      -9.9866      2.00000
     20      -9.9184      2.00000
     21      -9.3942      2.00000
     22      -9.1267      2.00000
     23      -8.9940      2.00000
     24      -8.6946      2.00000
     25      -8.4861      2.00000
     26      -6.7963      2.00000
     27      -6.2216      2.00000
     28      -5.8328      2.00000
     29      -5.4101      2.00000
     30      -1.1532      0.00000
     31      -0.9865      0.00000
     32      -0.4462      0.00000
     33      -0.2910      0.00000
     34      -0.2106      0.00000
     35      -0.0508      0.00000
     36       0.0481      0.00000
     37       0.1106      0.00000
     38       0.1325      0.00000
     39       0.1459      0.00000
     40       0.1809      0.00000
     41       0.1978      0.00000

 k-point     3 :       0.2500   -0.2500    0.2500
  band No.  band energies     occupation 
      1     -26.2028      2.00000
      2     -25.5074      2.00000
      3     -23.4433      2.00000
      4     -22.6621      2.00000
      5     -19.5963      2.00000
      6     -18.2713      2.00000
      7     -17.3472      2.00000
      8     -16.1572      2.00000
      9     -14.7305      2.00000
     10     -13.9552      2.00000
     11     -13.2766      2.00000
     12     -12.5392      2.00000
     13     -11.5625      2.00000
     14     -11.3416      2.00000
     15     -10.8819      2.00000
     16     -10.7770      2.00000
     17     -10.3547      2.00000
     18     -10.1176      2.00000
     19      -9.9866      2.00000
     20      -9.9184      2.00000
     21      -9.3942      2.00000
     22      -9.1267      2.00000
     23      -8.9940      2.00000
     24      -8.6946      2.00000
     25      -8.4860      2.00000
     26      -6.7963      2.00000
     27      -6.2216      2.00000
     28      -5.8328      2.00000
     29      -5.4101      2.00000
     30      -1.1532      0.00000
     31      -0.9865      0.00000
     32      -0.4462      0.00000
     33      -0.2910      0.00000
     34      -0.2106      0.00000
     35      -0.0507      0.00000
     36       0.0464      0.00000
     37       0.1163      0.00000
     38       0.1270      0.00000
     39       0.1478      0.00000
     40       0.1846      0.00000
     41       0.1979      0.00000

 k-point     4 :      -0.2500   -0.2500    0.2500
  band No.  band energies     occupation 
      1     -26.2028      2.00000
      2     -25.5074      2.00000
      3     -23.4433      2.00000
      4     -22.6621      2.00000
      5     -19.5963      2.00000
      6     -18.2713      2.00000
      7     -17.3472      2.00000
      8     -16.1572      2.00000
      9     -14.7305      2.00000
     10     -13.9552      2.00000
     11     -13.2766      2.00000
     12     -12.5392      2.00000
     13     -11.5625      2.00000
     14     -11.3416      2.00000
     15     -10.8819      2.00000
     16     -10.7770      2.00000
     17     -10.3547      2.00000
     18     -10.1176      2.00000
     19      -9.9866      2.00000
     20      -9.9184      2.00000
     21      -9.3942      2.00000
     22      -9.1267      2.00000
     23      -8.9940      2.00000
     24      -8.6946      2.00000
     25      -8.4861      2.00000
     26      -6.7963      2.00000
     27      -6.2216      2.00000
     28      -5.8328      2.00000
     29      -5.4101      2.00000
     30      -1.1533      0.00000
     31      -0.9865      0.00000
     32      -0.4462      0.00000
     33      -0.2910      0.00000
     34      -0.2106      0.00000
     35      -0.0508      0.00000
     36       0.0467      0.00000
     37       0.1194      0.00000
     38       0.1305      0.00000
     39       0.1382      0.00000
     40       0.1831      0.00000
     41       0.1950      0.00000


--------------------------------------------------------------------------------------------------------


 soft charge-density along one line, spin component           1
         0         1         2         3         4         5         6         7         8         9
 total charge-density along one line
 
 pseudopotential strength for first ion, spin component:           1
 -2.352  -4.056   0.002   0.000  -0.001
 -4.056  -6.906   0.005   0.001  -0.002
  0.002   0.005  -0.332   0.001  -0.002
  0.000   0.001   0.001  -0.336   0.000
 -0.001  -0.002  -0.002   0.000  -0.335
 total augmentation occupancy for first ion, spin component:           1
  3.528  -0.635  -0.399  -0.063   0.180
 -0.635   0.129   0.073   0.012  -0.033
 -0.399   0.073   0.047   0.006  -0.018
 -0.063   0.012   0.006   0.010  -0.002
  0.180  -0.033  -0.018  -0.002   0.016


------------------------ aborting loop because EDIFF is reached ----------------------------------------


    CHARGE:  cpu time   16.2355: real time   16.2227
    FORLOC:  cpu time    5.6371: real time    5.6327
    FORNL :  cpu time   59.9889: real time   59.9377
    STRESS:  cpu time  182.3163: real time  182.1637
    FORCOR:  cpu time   22.4506: real time   22.4323
    FORHAR:  cpu time    9.9425: real time    9.9342
    MIXING:  cpu time    0.7459: real time    0.7444
    OFIELD:  cpu time    0.0000: real time    0.0000

  FORCE on cell =-STRESS in cart. coord.  units (eV):
  Direction    XX          YY          ZZ          XY          YZ          ZX
  --------------------------------------------------------------------------------------
  Alpha Z     0.51957     0.51957     0.51957
  Ewald    2883.19749  2060.48149  1175.82404   -89.01749   186.20048   841.09778
  Hartree  3435.72606  2579.56869  2107.83726   -75.46963   218.89883   666.25354
  E(xc)    -230.01265  -229.45529  -231.63830    -0.16086    -0.41603     0.84133
  Local   -6926.42054 -5218.86383 -3920.67044   161.10079  -424.30950 -1490.61328
  n-local  -132.44637  -135.51229  -131.84867     0.75365     1.49185    -1.10803
  augment    14.67947    14.09031    14.65857    -0.11941     0.80400    -0.19522
  Kinetic   950.84294   925.75860   981.57944     2.85282    17.24883   -16.11599
  Fock        0.00000     0.00000     0.00000     0.00000     0.00000     0.00000
  -------------------------------------------------------------------------------------
  Total      -3.91402    -3.41274    -3.73852    -0.06013    -0.08154     0.16013
  in kB      -0.23226    -0.20251    -0.22184    -0.00357    -0.00484     0.00950
  external pressure =       -0.22 kB  Pullay stress =        0.00 kB


 VOLUME and BASIS-vectors are now :
 -----------------------------------------------------------------------------
  energy-cutoff  :      400.00
  volume of cell :    27000.00
      direct lattice vectors                 reciprocal lattice vectors
    30.000000000  0.000000000  0.000000000     0.033333333  0.000000000  0.000000000
     0.000000000 30.000000000  0.000000000     0.000000000  0.033333333  0.000000000
     0.000000000  0.000000000 30.000000000     0.000000000  0.000000000  0.033333333

  length of vectors
    30.000000000 30.000000000 30.000000000     0.033333333  0.033333333  0.033333333


 FORCES acting on ions
    electron-ion (+dipol)            ewald-force                    non-local-force                 convergence-correction
 -----------------------------------------------------------------------------------------------
   0.638E+02 -.576E+02 -.987E+01   -.661E+02 0.627E+02 0.107E+02   0.231E+01 -.510E+01 -.798E+00   0.385E-04 -.773E-06 0.440E-04
   0.580E+02 0.243E+02 0.590E+02   -.600E+02 -.263E+02 -.637E+02   0.195E+01 0.197E+01 0.473E+01   0.571E-05 0.455E-04 0.928E-04
   0.572E+02 0.393E+02 -.486E+02   -.589E+02 -.426E+02 0.526E+02   0.167E+01 0.332E+01 -.404E+01   0.121E-04 0.578E-04 0.196E-04
   0.595E+02 0.975E+02 -.249E+02   -.634E+02 -.104E+03 0.268E+02   0.391E+01 0.607E+01 -.185E+01   -.972E-04 0.696E-04 0.555E-04
   -.133E+02 0.102E+03 -.930E+01   0.144E+02 -.107E+03 0.107E+02   -.107E+01 0.551E+01 -.137E+01   -.125E-03 0.345E-04 0.944E-05
   -.807E+02 0.184E+02 0.371E+02   0.862E+02 -.191E+02 -.370E+02   -.550E+01 0.645E+00 -.507E-01   -.490E-04 0.163E-04 -.467E-04
   -.116E+02 -.515E+02 0.668E+02   0.104E+02 0.568E+02 -.685E+02   0.114E+01 -.524E+01 0.172E+01   -.871E-04 0.251E-04 -.100E-04
   0.804E+01 0.525E+02 0.752E+02   -.101E+02 -.560E+02 -.789E+02   0.205E+01 0.350E+01 0.370E+01   -.499E-04 0.407E-04 0.624E-05
   0.280E+02 -.721E+02 0.283E+02   -.330E+02 0.750E+02 -.325E+02   0.503E+01 -.290E+01 0.426E+01   -.200E-03 0.785E-04 -.965E-05
   -.236E+02 -.334E+01 -.846E+02   0.241E+02 0.975E+00 0.897E+02   -.559E+00 0.237E+01 -.511E+01   -.990E-04 0.909E-04 0.753E-04
   -.808E+02 -.339E+02 0.797E+01   0.859E+02 0.344E+02 -.100E+02   -.512E+01 -.471E+00 0.206E+01   -.246E-04 0.115E-03 0.860E-05
   0.811E+01 -.834E+02 -.246E+02   -.104E+02 0.886E+02 0.251E+02   0.223E+01 -.516E+01 -.533E+00   -.930E-04 0.964E-04 0.420E-04
   0.228E+03 0.693E+01 0.916E+00   -.229E+03 -.606E+01 -.662E+00   0.813E+00 -.867E+00 -.259E+00   -.183E-04 0.163E-03 0.199E-03
   0.186E+03 0.158E+02 0.120E+02   -.191E+03 -.157E+02 -.118E+02   0.500E+01 -.680E-01 -.240E+00   -.455E-03 0.302E-03 0.242E-03
   -.424E+02 0.163E+03 0.380E+02   0.480E+02 -.164E+03 -.380E+02   -.557E+01 0.103E+01 0.537E-01   -.481E-03 0.124E-03 0.125E-03
   -.997E+02 0.529E+02 0.213E+03   0.999E+02 -.524E+02 -.214E+03   -.214E+00 -.528E+00 0.999E+00   -.462E-03 0.175E-04 -.128E-03
   -.228E+02 0.437E+02 -.207E+02   0.204E+02 -.458E+02 0.182E+02   0.247E+01 0.213E+01 0.251E+01   -.659E-03 0.206E-03 -.301E-04
   -.121E+03 -.173E+03 -.127E+03   0.125E+03 0.175E+03 0.130E+03   -.334E+01 -.250E+01 -.335E+01   -.348E-03 0.486E-03 0.230E-03
   0.126E+03 0.210E+03 -.266E+02   -.123E+03 -.209E+03 0.268E+02   -.280E+01 -.119E+00 -.217E+00   -.576E-03 0.308E-03 0.642E-03
   -.244E+02 -.198E+03 -.451E+02   0.221E+02 0.201E+03 0.448E+02   0.237E+01 -.312E+01 0.350E+00   -.437E-03 0.326E-04 0.941E-05
   0.489E+02 -.378E+03 0.147E+03   -.306E+02 0.424E+03 -.160E+03   -.183E+02 -.464E+02 0.127E+02   -.556E-03 0.130E-03 0.134E-03
   -.304E+03 0.244E+03 -.251E+03   0.339E+03 -.271E+03 0.280E+03   -.352E+02 0.273E+02 -.287E+02   -.493E-03 0.222E-03 0.999E-04
 -----------------------------------------------------------------------------------------------
   0.467E+02 0.186E+02 0.135E+02   0.568E-13 -.568E-13 0.000E+00   -.467E+02 -.186E+02 -.135E+02   -.525E-02 0.266E-02 0.181E-02
 
 
 POSITION                                       TOTAL-FORCE (eV/Angst)
 -----------------------------------------------------------------------------------
     11.34481     15.97996     14.79533         0.010375      0.000574      0.003858
     11.41438     14.59050     13.68552         0.004472      0.009756     -0.007256
     11.48142     14.31512     15.44304         0.004261     -0.005462     -0.009401
     13.47895     13.19025     15.06273         0.004499      0.004913      0.031909
     15.64018     12.77179     14.97473         0.006211     -0.001064      0.002037
     17.12598     13.96268     13.34077        -0.012572     -0.014919     -0.021940
     15.81223     15.11738     12.99012        -0.005504      0.001170      0.002307
     15.61543     13.38701     12.59029        -0.032026      0.003724     -0.001753
     15.42885     16.33687     15.24006        -0.000510     -0.003217      0.003981
     17.08172     16.28854     17.69480        -0.011469      0.002414      0.005340
     18.00097     16.84021     16.27934        -0.001264      0.011684      0.016472
     16.53925     17.73900     16.78895        -0.013812     -0.000725      0.002269
     11.79521     14.99388     14.63645         0.006835      0.001976     -0.005092
     13.30283     15.14926     14.56201         0.003987     -0.006827     -0.002168
     15.47353     13.82781     14.72310         0.003186     -0.001236      0.000710
     16.03447     14.09468     13.31992        -0.010245     -0.003327     -0.005635
     16.31535     14.57883     15.78475         0.030605     -0.017015      0.012202
     16.98558     16.74118     16.69805        -0.002792      0.003005      0.008230
     14.01474     14.01563     14.81177         0.003879     -0.000225      0.011399
     16.14474     15.91820     15.84953         0.002858      0.003821     -0.006199
     13.83412     16.23903     14.28129         0.010682     -0.003954     -0.020440
     17.14513     13.95450     16.46231        -0.001656      0.014932     -0.020830
 -----------------------------------------------------------------------------------
    total drift:                               -0.005311      0.004945      0.002575


--------------------------------------------------------------------------------------------------------



  FREE ENERGIE OF THE ION-ELECTRON SYSTEM (eV)
  ---------------------------------------------------
  free  energy   TOTEN  =      -129.42678956 eV

  energy  without entropy=     -129.42678956  energy(sigma->0) =     -129.42678956
 
 d Force = 0.2377019E-03[ 0.222E-03, 0.253E-03]  d Energy = 0.2372681E-03 0.434E-06
 d Force = 0.8393042E-01[ 0.843E-01, 0.835E-01]  d Ewald  = 0.8393042E-01 0.953E-09


--------------------------------------------------------------------------------------------------------


    POTLOK:  cpu time   19.2851: real time   19.2694


--------------------------------------------------------------------------------------------------------


 NEB: the previous image is higher in energy: T
 NEB: the next image is higher in energy    : F
 NEB: only prev energy greater

 NEB: Tangent
 ----------------------------------------------
      0.01255     -0.03476     -0.03219
      0.01706     -0.02614     -0.04435
      0.03860     -0.03893     -0.04769
      0.04883     -0.02861     -0.11881
      0.05803      0.00432     -0.17470
      0.06400      0.16615     -0.06495
      0.04029      0.15919     -0.00754
      0.09206      0.17730     -0.13305
      0.01130      0.00355      0.03568
     -0.45814      0.00699      0.37627
      0.11566     -0.32524      0.44927
     -0.02608      0.03392     -0.09308
      0.02224     -0.02824     -0.04558
      0.02018     -0.01059     -0.05549
      0.03898      0.02247     -0.10009
      0.06067      0.13969     -0.07392
     -0.01903     -0.02958     -0.00931
     -0.09999     -0.08575      0.20315
      0.03332     -0.01625     -0.11172
     -0.01987     -0.03187      0.04753
      0.00959      0.00609     -0.01548
     -0.06408     -0.05323      0.02677

 NEB: forces: par spring, perp REAL, dneb     0.010429    0.086252    0.000000
 NEB: distance to prev, next image, angle between     1.131630    1.133716  159.892167
 NEB: projections on to tangent (spring, REAL)     0.010429    0.003253

 stress matrix after NEB project (eV)
     -3.91402     -0.06013      0.16013
     -0.06013     -3.41274     -0.08154
      0.16013     -0.08154     -3.73852
  FORCES: max atom, RMS     0.037045    0.018523
  FORCE total and by dimension    0.086880    0.031366
  Stress total and by dimension    6.404272    3.914025
 OPT: skip step - force has converged


--------------------------------------------------------------------------------------------------------


  
 reached required accuracy - stopping structural energy minimisation
     LOOP+:  cpu time 1818.0156: real time 1816.5517
    4ORBIT:  cpu time    0.0000: real time    0.0000

 total amount of memory used by VASP on root node  4333707. kBytes
========================================================================

   base      :      30000. kBytes
   nonlr-proj:       2402. kBytes
   fftplans  :     924480. kBytes
   grid      :    2089440. kBytes
   one-center:         67. kBytes
   wavefun   :    1287318. kBytes
 
  
  
 General timing and accounting informations for this job:
 ========================================================
  
                  Total CPU time used (sec):   123696.039
                            User time (sec):   122927.107
                          System time (sec):      768.929
                         Elapsed time (sec):   123693.243
  
                   Maximum memory used (kb):     5901340.
                   Average memory used (kb):           0.
  
                          Minor page faults:    182374707
                          Major page faults:            8
                 Voluntary context switches:         7950
