 vasp.5.4.1 24Jun15 (build Jan 13 2020 12:58:22) complex                        
  
 POSCAR found type information on POSCAR  H  C  N  O 
 14/POSCAR found :  4 types and      22 ions
 scaLAPACK will be used
 LDA part: xc-table for Pade appr. of Perdew
 POSCAR found type information on POSCAR  H  C  N  O 
 00/POSCAR found :  4 types and      22 ions
 POSCAR found type information on POSCAR  H  C  N  O 
 16/POSCAR found :  4 types and      22 ions
 Jacobian:    50.2178792621697     
 POSCAR, INCAR and KPOINTS ok, starting setup
 WARNING: small aliasing (wrap around) errors must be expected
 FFT: planning ...
 WAVECAR not read
 entering main loop
       N       E                     dE             d eps       ncg     rms          rms(c)
DAV:   1     0.580569008861E+03    0.58057E+03   -0.82729E+03   408   0.485E+02
DAV:   2     0.251101431855E+03   -0.32947E+03   -0.31919E+03   573   0.985E+01
DAV:   3    -0.494330189177E+02   -0.30053E+03   -0.29079E+03   496   0.106E+02
DAV:   4    -0.137282744970E+03   -0.87850E+02   -0.87743E+02   395   0.789E+01
DAV:   5    -0.141803592053E+03   -0.45208E+01   -0.45105E+01   464   0.215E+01    0.195E+01
DAV:   6    -0.131659553760E+03    0.10144E+02   -0.23717E+01   423   0.198E+01    0.997E+00
DAV:   7    -0.129899150939E+03    0.17604E+01   -0.45687E+00   424   0.829E+00    0.515E+00
DAV:   8    -0.129409923828E+03    0.48923E+00   -0.84483E-01   432   0.404E+00    0.153E+00
DAV:   9    -0.129341681048E+03    0.68243E-01   -0.10164E-01   456   0.154E+00    0.564E-01
DAV:  10    -0.129330277954E+03    0.11403E-01   -0.24316E-02   456   0.814E-01    0.259E-01
DAV:  11    -0.129324745505E+03    0.55324E-02   -0.79415E-03   448   0.444E-01    0.162E-01
DAV:  12    -0.129325214066E+03   -0.46856E-03   -0.56744E-03   392   0.355E-01    0.988E-02
DAV:  13    -0.129331454812E+03   -0.62407E-02   -0.46644E-03   432   0.321E-01    0.598E-02
DAV:  14    -0.129337834201E+03   -0.63794E-02   -0.17907E-03   392   0.204E-01    0.393E-02
DAV:  15    -0.129345810786E+03   -0.79766E-02   -0.91223E-04   428   0.110E-01    0.247E-02
DAV:  16    -0.129351982704E+03   -0.61719E-02   -0.49342E-04   376   0.734E-02    0.139E-02
DAV:  17    -0.129354603088E+03   -0.26204E-02   -0.12873E-04   336   0.372E-02    0.953E-03
DAV:  18    -0.129356512680E+03   -0.19096E-02   -0.12174E-04   253   0.314E-02    0.553E-03
DAV:  19    -0.129357557449E+03   -0.10448E-02   -0.65528E-05   344   0.215E-02    0.353E-03
DAV:  20    -0.129358002903E+03   -0.44545E-03   -0.18558E-05   310   0.140E-02    0.193E-03
DAV:  21    -0.129358244544E+03   -0.24164E-03   -0.94964E-06   304   0.856E-03    0.126E-03
DAV:  22    -0.129358398803E+03   -0.15426E-03   -0.42542E-06   276   0.673E-03    0.807E-04
DAV:  23    -0.129358435726E+03   -0.36923E-04   -0.10409E-06   368   0.314E-03
   1 F= -.12935844E+03 E0= -.12935844E+03  d E =-.129358E+03
damped:  g(F)=  0.000E+00 g(S)=  0.000E+00 dE (1.order)= 0.000E+00
 bond charge predicted
       N       E                     dE             d eps       ncg     rms          rms(c)
DAV:   1    -0.129362003203E+03   -0.36044E-02   -0.91264E-02   332   0.162E+00    0.658E-02
DAV:   2    -0.129362161634E+03   -0.15843E-03   -0.21439E-03   464   0.224E-01    0.451E-02
DAV:   3    -0.129362141039E+03    0.20595E-04   -0.78588E-05   368   0.496E-02    0.255E-02
DAV:   4    -0.129362152318E+03   -0.11280E-04   -0.76516E-05   248   0.448E-02    0.775E-03
DAV:   5    -0.129362155997E+03   -0.36789E-05   -0.15762E-05   366   0.217E-02    0.477E-03
DAV:   6    -0.129362158574E+03   -0.25772E-05   -0.25086E-06   206   0.932E-03
   2 F= -.12936216E+03 E0= -.12936216E+03  d E =-.372285E-02
damped:  g(F)=  0.000E+00 g(S)=  0.000E+00 dE (1.order)= 0.000E+00
 bond charge predicted
       N       E                     dE             d eps       ncg     rms          rms(c)
DAV:   1    -0.129365799027E+03   -0.36430E-02   -0.26757E-01   334   0.274E+00    0.109E-01
DAV:   2    -0.129366242687E+03   -0.44366E-03   -0.60195E-03   434   0.372E-01    0.716E-02
DAV:   3    -0.129366184852E+03    0.57835E-04   -0.20021E-04   368   0.797E-02    0.402E-02
DAV:   4    -0.129366204321E+03   -0.19470E-04   -0.20006E-04   288   0.718E-02    0.124E-02
DAV:   5    -0.129366207803E+03   -0.34819E-05   -0.39470E-05   280   0.346E-02    0.742E-03
DAV:   6    -0.129366210064E+03   -0.22605E-05   -0.79044E-06   232   0.156E-02
   3 F= -.12936621E+03 E0= -.12936621E+03  d E =-.405149E-02
damped:  g(F)=  0.000E+00 g(S)=  0.000E+00 dE (1.order)= 0.000E+00
 bond charge predicted
       N       E                     dE             d eps       ncg     rms          rms(c)
DAV:   1    -0.129369011325E+03   -0.28035E-02   -0.40243E-01   335   0.325E+00    0.128E-01
DAV:   2    -0.129369683996E+03   -0.67267E-03   -0.87697E-03   396   0.428E-01    0.778E-02
DAV:   3    -0.129369638708E+03    0.45288E-04   -0.21957E-04   306   0.837E-02    0.440E-02
DAV:   4    -0.129369672336E+03   -0.33628E-04   -0.22464E-04   332   0.770E-02    0.123E-02
DAV:   5    -0.129369677415E+03   -0.50793E-05   -0.44781E-05   304   0.371E-02    0.694E-03
DAV:   6    -0.129369681481E+03   -0.40660E-05   -0.68916E-06   232   0.144E-02
   4 F= -.12936968E+03 E0= -.12936968E+03  d E =-.347142E-02
damped:  g(F)=  0.000E+00 g(S)=  0.000E+00 dE (1.order)= 0.000E+00
 bond charge predicted
       N       E                     dE             d eps       ncg     rms          rms(c)
DAV:   1    -0.129373156504E+03   -0.34791E-02   -0.49451E-01   331   0.350E+00    0.138E-01
DAV:   2    -0.129373957463E+03   -0.80096E-03   -0.10321E-02   372   0.441E-01    0.800E-02
DAV:   3    -0.129373964040E+03   -0.65767E-05   -0.26902E-04   331   0.807E-02    0.465E-02
DAV:   4    -0.129374013441E+03   -0.49401E-04   -0.18747E-04   301   0.732E-02    0.109E-02
DAV:   5    -0.129374018245E+03   -0.48034E-05   -0.40295E-05   304   0.338E-02    0.708E-03
DAV:   6    -0.129374021841E+03   -0.35962E-05   -0.50399E-06   242   0.130E-02
   5 F= -.12937402E+03 E0= -.12937402E+03  d E =-.434036E-02
damped:  g(F)=  0.000E+00 g(S)=  0.000E+00 dE (1.order)= 0.000E+00
 bond charge predicted
       N       E                     dE             d eps       ncg     rms          rms(c)
DAV:   1    -0.129378247303E+03   -0.42291E-02   -0.60557E-01   329   0.392E+00    0.159E-01
DAV:   2    -0.129379271596E+03   -0.10243E-02   -0.13238E-02   396   0.504E-01    0.938E-02
DAV:   3    -0.129379266371E+03    0.52249E-05   -0.31646E-04   396   0.978E-02    0.551E-02
DAV:   4    -0.129379336383E+03   -0.70012E-04   -0.15651E-04   278   0.694E-02    0.131E-02
DAV:   5    -0.129379345251E+03   -0.88674E-05   -0.33999E-05   368   0.312E-02    0.725E-03
DAV:   6    -0.129379348071E+03   -0.28205E-05   -0.45029E-06   268   0.114E-02
   6 F= -.12937935E+03 E0= -.12937935E+03  d E =-.532623E-02
damped:  g(F)=  0.000E+00 g(S)=  0.000E+00 dE (1.order)= 0.000E+00
 bond charge predicted
       N       E                     dE             d eps       ncg     rms          rms(c)
DAV:   1    -0.129382959219E+03   -0.36140E-02   -0.71170E-01   329   0.431E+00    0.178E-01
DAV:   2    -0.129384146802E+03   -0.11876E-02   -0.15776E-02   396   0.560E-01    0.108E-01
DAV:   3    -0.129384118625E+03    0.28177E-04   -0.49968E-04   394   0.123E-01    0.619E-02
DAV:   4    -0.129384211851E+03   -0.93226E-04   -0.24341E-04   334   0.836E-02    0.178E-02
DAV:   5    -0.129384221014E+03   -0.91629E-05   -0.39889E-05   304   0.353E-02    0.857E-03
DAV:   6    -0.129384224375E+03   -0.33610E-05   -0.66879E-06   270   0.133E-02
   7 F= -.12938422E+03 E0= -.12938422E+03  d E =-.487630E-02
damped:  g(F)=  0.000E+00 g(S)=  0.000E+00 dE (1.order)= 0.000E+00
 bond charge predicted
       N       E                     dE             d eps       ncg     rms          rms(c)
DAV:   1    -0.129386963488E+03   -0.27425E-02   -0.95683E-01   328   0.499E+00    0.213E-01
DAV:   2    -0.129388484047E+03   -0.15206E-02   -0.21021E-02   396   0.641E-01    0.128E-01
DAV:   3    -0.129388434187E+03    0.49860E-04   -0.77135E-04   392   0.149E-01    0.719E-02
DAV:   4    -0.129388563768E+03   -0.12958E-03   -0.32674E-04   396   0.960E-02    0.220E-02
DAV:   5    -0.129388573719E+03   -0.99502E-05   -0.52990E-05   287   0.400E-02    0.971E-03
DAV:   6    -0.129388579019E+03   -0.53000E-05   -0.11395E-05   280   0.163E-02
   8 F= -.12938858E+03 E0= -.12938858E+03  d E =-.435464E-02
damped:  g(F)=  0.000E+00 g(S)=  0.000E+00 dE (1.order)= 0.000E+00
 bond charge predicted
       N       E                     dE             d eps       ncg     rms          rms(c)
DAV:   1    -0.129391034132E+03   -0.24604E-02   -0.11874E+00   329   0.555E+00    0.244E-01
DAV:   2    -0.129392904620E+03   -0.18705E-02   -0.25692E-02   364   0.719E-01    0.148E-01
DAV:   3    -0.129392860791E+03    0.43828E-04   -0.10153E-03   419   0.166E-01    0.860E-02
DAV:   4    -0.129393039827E+03   -0.17904E-03   -0.46971E-04   428   0.113E-01    0.260E-02
DAV:   5    -0.129393046044E+03   -0.62171E-05   -0.11810E-04   317   0.558E-02    0.107E-02
DAV:   6    -0.129393051780E+03   -0.57358E-05   -0.15625E-05   304   0.197E-02
   9 F= -.12939305E+03 E0= -.12939305E+03  d E =-.447276E-02
damped:  g(F)=  0.000E+00 g(S)=  0.000E+00 dE (1.order)= 0.000E+00
 bond charge predicted
       N       E                     dE             d eps       ncg     rms          rms(c)
DAV:   1    -0.129395279824E+03   -0.22338E-02   -0.14499E+00   328   0.616E+00    0.270E-01
DAV:   2    -0.129397491604E+03   -0.22118E-02   -0.30728E-02   364   0.798E-01    0.169E-01
DAV:   3    -0.129397408210E+03    0.83395E-04   -0.12181E-03   427   0.181E-01    0.980E-02
DAV:   4    -0.129397628829E+03   -0.22062E-03   -0.59759E-04   404   0.124E-01    0.286E-02
DAV:   5    -0.129397632781E+03   -0.39520E-05   -0.14280E-04   334   0.613E-02    0.121E-02
DAV:   6    -0.129397639832E+03   -0.70505E-05   -0.20425E-05   304   0.230E-02
  10 F= -.12939764E+03 E0= -.12939764E+03  d E =-.458805E-02
damped:  g(F)=  0.000E+00 g(S)=  0.000E+00 dE (1.order)= 0.000E+00
 bond charge predicted
       N       E                     dE             d eps       ncg     rms          rms(c)
DAV:   1    -0.129399371392E+03   -0.17386E-02   -0.16557E+00   328   0.659E+00    0.289E-01
DAV:   2    -0.129401816574E+03   -0.24452E-02   -0.34010E-02   364   0.832E-01    0.178E-01
DAV:   3    -0.129401746346E+03    0.70228E-04   -0.12503E-03   427   0.178E-01    0.101E-01
DAV:   4    -0.129401969106E+03   -0.22276E-03   -0.60386E-04   397   0.124E-01    0.263E-02
DAV:   5    -0.129401976352E+03   -0.72463E-05   -0.12237E-04   293   0.587E-02    0.123E-02
DAV:   6    -0.129401986945E+03   -0.10593E-04   -0.19303E-05   310   0.226E-02
  11 F= -.12940199E+03 E0= -.12940199E+03  d E =-.434711E-02
damped:  g(F)=  0.000E+00 g(S)=  0.000E+00 dE (1.order)= 0.000E+00
 bond charge predicted
       N       E                     dE             d eps       ncg     rms          rms(c)
DAV:   1    -0.129402121506E+03   -0.14515E-03   -0.18413E+00   328   0.710E+00    0.312E-01
DAV:   2    -0.129404922525E+03   -0.28010E-02   -0.38507E-02   396   0.909E-01    0.212E-01
DAV:   3    -0.129404672801E+03    0.24972E-03   -0.15142E-03   455   0.212E-01    0.124E-01
DAV:   4    -0.129404907764E+03   -0.23496E-03   -0.76306E-04   397   0.141E-01    0.302E-02
DAV:   5    -0.129404922784E+03   -0.15021E-04   -0.11617E-04   336   0.593E-02    0.138E-02
DAV:   6    -0.129404934734E+03   -0.11950E-04   -0.21866E-05   270   0.247E-02
  12 F= -.12940493E+03 E0= -.12940493E+03  d E =-.294779E-02
damped:  g(F)=  0.000E+00 g(S)=  0.000E+00 dE (1.order)= 0.000E+00
 bond charge predicted
       N       E                     dE             d eps       ncg     rms          rms(c)
DAV:   1    -0.129405967983E+03   -0.10452E-02   -0.50733E-02   338   0.118E+00    0.757E-02
DAV:   2    -0.129406136065E+03   -0.16808E-03   -0.22252E-03   394   0.213E-01    0.421E-02
DAV:   3    -0.129406119391E+03    0.16674E-04   -0.54252E-05   333   0.430E-02    0.240E-02
DAV:   4    -0.129406124003E+03   -0.46120E-05   -0.51785E-05   288   0.381E-02    0.524E-03
DAV:   5    -0.129406131205E+03   -0.72024E-05   -0.10023E-05   336   0.164E-02    0.286E-03
DAV:   6    -0.129406137421E+03   -0.62161E-05   -0.15555E-06   272   0.654E-03
  13 F= -.12940614E+03 E0= -.12940614E+03  d E =-.120269E-02
damped:  g(F)=  0.000E+00 g(S)=  0.000E+00 dE (1.order)= 0.000E+00
 bond charge predicted
       N       E                     dE             d eps       ncg     rms          rms(c)
DAV:   1    -0.129405953214E+03    0.17799E-03   -0.70000E-02   368   0.139E+00    0.811E-02
DAV:   2    -0.129406156055E+03   -0.20284E-03   -0.28587E-03   388   0.242E-01    0.476E-02
DAV:   3    -0.129406123971E+03    0.32084E-04   -0.73015E-05   360   0.497E-02    0.275E-02
DAV:   4    -0.129406116486E+03    0.74848E-05   -0.71820E-05   264   0.445E-02    0.653E-03
DAV:   5    -0.129406119926E+03   -0.34391E-05   -0.13209E-05   336   0.195E-02    0.350E-03
DAV:   6    -0.129406123759E+03   -0.38336E-05   -0.20035E-06   232   0.819E-03
  14 F= -.12940612E+03 E0= -.12940612E+03  d E =0.136620E-04
damped:  g(F)=  0.000E+00 g(S)=  0.000E+00 dE (1.order)= 0.000E+00
 bond charge predicted
       N       E                     dE             d eps       ncg     rms          rms(c)
DAV:   1    -0.129406367881E+03   -0.24796E-03   -0.16408E-03   400   0.216E-01    0.136E-02
DAV:   2    -0.129406377151E+03   -0.92706E-05   -0.68253E-05   232   0.396E-02    0.786E-03
DAV:   3    -0.129406380647E+03   -0.34960E-05   -0.57450E-06   272   0.125E-02    0.414E-03
DAV:   4    -0.129406385125E+03   -0.44780E-05   -0.17847E-06   264   0.655E-03    0.127E-03
DAV:   5    -0.129406387808E+03   -0.26831E-05   -0.46906E-07   264   0.333E-03    0.576E-04
DAV:   6    -0.129406388931E+03   -0.11226E-05   -0.11276E-07   220   0.159E-03
  15 F= -.12940639E+03 E0= -.12940639E+03  d E =-.265172E-03
damped:  g(F)=  0.000E+00 g(S)=  0.000E+00 dE (1.order)= 0.000E+00
 bond charge predicted
       N       E                     dE             d eps       ncg     rms          rms(c)
DAV:   1    -0.129406695930E+03   -0.30812E-03   -0.52931E-03   366   0.390E-01    0.241E-02
DAV:   2    -0.129406714879E+03   -0.18949E-04   -0.24169E-04   337   0.720E-02    0.145E-02
DAV:   3    -0.129406713350E+03    0.15286E-05   -0.75108E-06   255   0.158E-02    0.841E-03
DAV:   4    -0.129406713544E+03   -0.19407E-06   -0.66266E-06   281   0.134E-02    0.199E-03
DAV:   5    -0.129406713891E+03   -0.34678E-06   -0.14025E-06   272   0.649E-03    0.997E-04
DAV:   6    -0.129406714184E+03   -0.29300E-06   -0.22550E-07   238   0.255E-03
  16 F= -.12940671E+03 E0= -.12940671E+03  d E =-.325253E-03
damped:  g(F)=  0.000E+00 g(S)=  0.000E+00 dE (1.order)= 0.000E+00
 bond charge predicted
       N       E                     dE             d eps       ncg     rms          rms(c)
DAV:   1    -0.129406892448E+03   -0.17856E-03   -0.78564E-03   375   0.477E-01    0.288E-02
DAV:   2    -0.129406917348E+03   -0.24900E-04   -0.35902E-04   338   0.880E-02    0.179E-02
DAV:   3    -0.129406912826E+03    0.45222E-05   -0.11538E-05   272   0.195E-02    0.105E-02
DAV:   4    -0.129406909929E+03    0.28965E-05   -0.10167E-05   280   0.167E-02    0.255E-03
DAV:   5    -0.129406909657E+03    0.27175E-06   -0.21919E-06   272   0.815E-03    0.127E-03
DAV:   6    -0.129406909836E+03   -0.17887E-06   -0.35963E-07   250   0.321E-03
  17 F= -.12940691E+03 E0= -.12940691E+03  d E =-.195652E-03
damped:  g(F)=  0.000E+00 g(S)=  0.000E+00 dE (1.order)= 0.000E+00
 bond charge predicted
       N       E                     dE             d eps       ncg     rms          rms(c)
DAV:   1    -0.129406939992E+03   -0.30335E-04   -0.64866E-03   400   0.437E-01    0.247E-02
DAV:   2    -0.129406958328E+03   -0.18336E-04   -0.26987E-04   303   0.785E-02    0.160E-02
DAV:   3    -0.129406955749E+03    0.25789E-05   -0.15523E-05   228   0.199E-02    0.975E-03
DAV:   4    -0.129406954202E+03    0.15475E-05   -0.11141E-05   244   0.174E-02    0.249E-03
DAV:   5    -0.129406954368E+03   -0.16578E-06   -0.25682E-06   220   0.850E-03    0.121E-03
DAV:   6    -0.129406954822E+03   -0.45400E-06   -0.56901E-07   242   0.339E-03
  18 F= -.12940695E+03 E0= -.12940695E+03  d E =-.449854E-04
damped:  g(F)=  0.000E+00 g(S)=  0.000E+00 dE (1.order)= 0.000E+00
 bond charge predicted
       N       E                     dE             d eps       ncg     rms          rms(c)
DAV:   1    -0.129406975911E+03   -0.21544E-04   -0.29395E-05   213   0.291E-02    0.169E-03
DAV:   2    -0.129406976638E+03   -0.72656E-06   -0.21133E-06   249   0.811E-03    0.103E-03
DAV:   3    -0.129406977248E+03   -0.60975E-06   -0.22907E-07   201   0.244E-03    0.666E-04
DAV:   4    -0.129406978283E+03   -0.10351E-05   -0.93974E-08   277   0.137E-03    0.218E-04
DAV:   5    -0.129406978839E+03   -0.55594E-06    0.12148E-08   252   0.609E-04    0.125E-04
DAV:   6    -0.129406979436E+03   -0.59694E-06    0.24780E-08   219   0.358E-04
  19 F= -.12940698E+03 E0= -.12940698E+03  d E =-.246140E-04
damped:  g(F)=  0.000E+00 g(S)=  0.000E+00 dE (1.order)= 0.000E+00
 bond charge predicted
       N       E                     dE             d eps       ncg     rms          rms(c)
DAV:   1    -0.129407017603E+03   -0.38764E-04   -0.11605E-04   291   0.567E-02    0.303E-03
DAV:   2    -0.129407018280E+03   -0.67711E-06   -0.56355E-06   271   0.124E-02    0.178E-03
DAV:   3    -0.129407018586E+03   -0.30565E-06   -0.53723E-07   200   0.399E-03    0.109E-03
DAV:   4    -0.129407019057E+03   -0.47107E-06   -0.10758E-07   237   0.213E-03    0.280E-04
DAV:   5    -0.129407019262E+03   -0.20570E-06    0.13181E-08   272   0.100E-03    0.155E-04
DAV:   6    -0.129407019446E+03   -0.18315E-06    0.43894E-08   200   0.526E-04
  20 F= -.12940702E+03 E0= -.12940702E+03  d E =-.400099E-04
damped:  g(F)=  0.000E+00 g(S)=  0.000E+00 dE (1.order)= 0.000E+00
 bond charge predicted
       N       E                     dE             d eps       ncg     rms          rms(c)
DAV:   1    -0.129407069463E+03   -0.50201E-04   -0.24167E-04   304   0.819E-02    0.434E-03
DAV:   2    -0.129407070312E+03   -0.84861E-06   -0.11675E-05   252   0.178E-02    0.255E-03
DAV:   3    -0.129407070396E+03   -0.84036E-07   -0.11554E-06   248   0.575E-03    0.156E-03
DAV:   4    -0.129407070441E+03   -0.44766E-07   -0.26719E-07   228   0.303E-03    0.403E-04
DAV:   5    -0.129407070474E+03   -0.33281E-07   -0.27412E-08   264   0.143E-03    0.226E-04
DAV:   6    -0.129407070504E+03   -0.29945E-07    0.30576E-08   202   0.751E-04
  21 F= -.12940707E+03 E0= -.12940707E+03  d E =-.510583E-04
damped:  g(F)=  0.000E+00 g(S)=  0.000E+00 dE (1.order)= 0.000E+00
 bond charge predicted
       N       E                     dE             d eps       ncg     rms          rms(c)
DAV:   1    -0.129407127122E+03   -0.56648E-04   -0.38650E-04   315   0.103E-01    0.542E-03
DAV:   2    -0.129407128067E+03   -0.94508E-06   -0.16062E-05   229   0.195E-02    0.319E-03
DAV:   3    -0.129407128033E+03    0.33922E-07   -0.16555E-06   238   0.656E-03    0.188E-03
DAV:   4    -0.129407127904E+03    0.12898E-06   -0.41588E-07   234   0.352E-03    0.497E-04
DAV:   5    -0.129407127894E+03    0.99385E-08   -0.67250E-08   193   0.173E-03    0.262E-04
DAV:   6    -0.129407127914E+03   -0.20248E-07    0.15560E-08   165   0.893E-04
  22 F= -.12940713E+03 E0= -.12940713E+03  d E =-.574104E-04
damped:  g(F)=  0.000E+00 g(S)=  0.000E+00 dE (1.order)= 0.000E+00
 bond charge predicted
       N       E                     dE             d eps       ncg     rms          rms(c)
DAV:   1    -0.129407186302E+03   -0.58408E-04   -0.52138E-04   328   0.119E-01    0.692E-03
DAV:   2    -0.129407187296E+03   -0.99387E-06   -0.18556E-05   210   0.205E-02    0.375E-03
DAV:   3    -0.129407187186E+03    0.11024E-06   -0.19673E-06   227   0.702E-03    0.198E-03
DAV:   4    -0.129407187059E+03    0.12686E-06   -0.47689E-07   227   0.360E-03    0.587E-04
DAV:   5    -0.129407187057E+03    0.19354E-08   -0.96950E-08   165   0.186E-03    0.250E-04
DAV:   6    -0.129407187113E+03   -0.55864E-07    0.37719E-09   166   0.950E-04
  23 F= -.12940719E+03 E0= -.12940719E+03  d E =-.591989E-04
damped:  g(F)=  0.000E+00 g(S)=  0.000E+00 dE (1.order)= 0.000E+00
 bond charge predicted
       N       E                     dE             d eps       ncg     rms          rms(c)
DAV:   1    -0.129407244015E+03   -0.56958E-04   -0.61508E-04   326   0.130E-01    0.719E-03
DAV:   2    -0.129407245180E+03   -0.11648E-05   -0.20964E-05   200   0.218E-02    0.395E-03
DAV:   3    -0.129407245089E+03    0.90913E-07   -0.22195E-06   173   0.744E-03    0.210E-03
DAV:   4    -0.129407244998E+03    0.90376E-07   -0.54627E-07   201   0.383E-03    0.614E-04
DAV:   5    -0.129407245032E+03   -0.33518E-07   -0.11755E-07   165   0.197E-03    0.265E-04
DAV:   6    -0.129407245115E+03   -0.82996E-07   -0.42400E-09   164   0.101E-03
  24 F= -.12940725E+03 E0= -.12940725E+03  d E =-.580018E-04
damped:  g(F)=  0.000E+00 g(S)=  0.000E+00 dE (1.order)= 0.000E+00
 bond charge predicted
       N       E                     dE             d eps       ncg     rms          rms(c)
DAV:   1    -0.129407306144E+03   -0.61112E-04   -0.80096E-04   328   0.148E-01    0.769E-03
DAV:   2    -0.129407307641E+03   -0.14972E-05   -0.25281E-05   200   0.240E-02    0.429E-03
DAV:   3    -0.129407307580E+03    0.61018E-07   -0.26698E-06   164   0.816E-03    0.230E-03
DAV:   4    -0.129407307534E+03    0.46368E-07   -0.66568E-07   200   0.421E-03    0.649E-04
DAV:   5    -0.129407307589E+03   -0.55477E-07   -0.15111E-07   164   0.215E-03    0.289E-04
DAV:   6    -0.129407307690E+03   -0.10070E-06   -0.16351E-08   165   0.112E-03
  25 F= -.12940731E+03 E0= -.12940731E+03  d E =-.625749E-04
damped:  g(F)=  0.000E+00 g(S)=  0.000E+00 dE (1.order)= 0.000E+00
 bond charge predicted
       N       E                     dE             d eps       ncg     rms          rms(c)
DAV:   1    -0.129407377099E+03   -0.69510E-04   -0.96275E-04   328   0.162E-01    0.765E-03
DAV:   2    -0.129407378730E+03   -0.16308E-05   -0.26729E-05   200   0.247E-02    0.436E-03
DAV:   3    -0.129407378771E+03   -0.40904E-07   -0.28012E-06   164   0.839E-03    0.237E-03
DAV:   4    -0.129407378827E+03   -0.56353E-07   -0.70569E-07   164   0.436E-03    0.639E-04
DAV:   5    -0.129407378908E+03   -0.80637E-07   -0.16267E-07   164   0.219E-03    0.303E-04
DAV:   6    -0.129407379022E+03   -0.11479E-06   -0.21705E-08   164   0.117E-03
  26 F= -.12940738E+03 E0= -.12940738E+03  d E =-.713328E-04
damped:  g(F)=  0.000E+00 g(S)=  0.000E+00 dE (1.order)= 0.000E+00
 bond charge predicted
       N       E                     dE             d eps       ncg     rms          rms(c)
DAV:   1    -0.129407466309E+03   -0.87401E-04   -0.11240E-03   328   0.174E-01    0.748E-03
DAV:   2    -0.129407467932E+03   -0.16229E-05   -0.25742E-05   174   0.244E-02    0.429E-03
DAV:   3    -0.129407468108E+03   -0.17625E-06   -0.26751E-06   164   0.828E-03    0.238E-03
DAV:   4    -0.129407468336E+03   -0.22760E-06   -0.67786E-07   164   0.429E-03    0.609E-04
DAV:   5    -0.129407468441E+03   -0.10582E-06   -0.15762E-07   164   0.215E-03    0.309E-04
DAV:   6    -0.129407468546E+03   -0.10447E-06   -0.21000E-08   164   0.111E-03
  27 F= -.12940747E+03 E0= -.12940747E+03  d E =-.895234E-04
damped:  g(F)=  0.000E+00 g(S)=  0.000E+00 dE (1.order)= 0.000E+00
 bond charge predicted
       N       E                     dE             d eps       ncg     rms          rms(c)
DAV:   1    -0.129407586090E+03   -0.11765E-03   -0.13962E-03   335   0.194E-01    0.789E-03
DAV:   2    -0.129407587844E+03   -0.17542E-05   -0.26348E-05   200   0.251E-02    0.453E-03
DAV:   3    -0.129407588187E+03   -0.34273E-06   -0.27650E-06   164   0.855E-03    0.244E-03
DAV:   4    -0.129407588573E+03   -0.38629E-06   -0.72297E-07   215   0.439E-03    0.579E-04
DAV:   5    -0.129407588680E+03   -0.10733E-06   -0.17666E-07   164   0.219E-03    0.307E-04
DAV:   6    -0.129407588746E+03   -0.65979E-07   -0.25600E-08   198   0.106E-03
  28 F= -.12940759E+03 E0= -.12940759E+03  d E =-.120200E-03
damped:  g(F)=  0.000E+00 g(S)=  0.000E+00 dE (1.order)= 0.000E+00
 bond charge predicted
       N       E                     dE             d eps       ncg     rms          rms(c)
DAV:   1    -0.129407745234E+03   -0.15655E-03   -0.19748E-03   345   0.232E-01    0.930E-03
DAV:   2    -0.129407747690E+03   -0.24561E-05   -0.36127E-05   245   0.298E-02    0.561E-03
DAV:   3    -0.129407748156E+03   -0.46617E-06   -0.39037E-06   217   0.102E-02    0.313E-03
DAV:   4    -0.129407748673E+03   -0.51675E-06   -0.11162E-06   240   0.539E-03    0.781E-04
DAV:   5    -0.129407748746E+03   -0.73216E-07   -0.29940E-07   192   0.274E-03    0.380E-04
DAV:   6    -0.129407748786E+03   -0.39487E-07   -0.58335E-08   172   0.127E-03
  29 F= -.12940775E+03 E0= -.12940775E+03  d E =-.160040E-03
damped:  g(F)=  0.000E+00 g(S)=  0.000E+00 dE (1.order)= 0.000E+00
 bond charge predicted
       N       E                     dE             d eps       ncg     rms          rms(c)
DAV:   1    -0.129407942596E+03   -0.19385E-03   -0.30678E-03   340   0.291E-01    0.119E-02
DAV:   2    -0.129407946707E+03   -0.41104E-05   -0.61290E-05   236   0.389E-02    0.752E-03
DAV:   3    -0.129407947199E+03   -0.49238E-06   -0.67682E-06   272   0.133E-02    0.438E-03
DAV:   4    -0.129407947742E+03   -0.54293E-06   -0.21113E-06   237   0.740E-03    0.115E-03
DAV:   5    -0.129407947773E+03   -0.30447E-07   -0.58248E-07   224   0.376E-03    0.524E-04
DAV:   6    -0.129407947816E+03   -0.43340E-07   -0.14027E-07   167   0.174E-03
  30 F= -.12940795E+03 E0= -.12940795E+03  d E =-.199030E-03
damped:  g(F)=  0.000E+00 g(S)=  0.000E+00 dE (1.order)= 0.000E+00
 bond charge predicted
       N       E                     dE             d eps       ncg     rms          rms(c)
DAV:   1    -0.129408168019E+03   -0.22025E-03   -0.47634E-03   328   0.364E-01    0.150E-02
DAV:   2    -0.129408175011E+03   -0.69916E-05   -0.10217E-04   251   0.493E-02    0.980E-03
DAV:   3    -0.129408175269E+03   -0.25825E-06   -0.80445E-06   263   0.135E-02    0.598E-03
DAV:   4    -0.129408175984E+03   -0.71523E-06   -0.38780E-06   209   0.985E-03    0.160E-03
DAV:   5    -0.129408176002E+03   -0.18019E-07   -0.10666E-06   205   0.505E-03    0.769E-04
DAV:   6    -0.129408176080E+03   -0.77526E-07   -0.25892E-07   177   0.219E-03
  31 F= -.12940818E+03 E0= -.12940818E+03  d E =-.228264E-03
damped:  g(F)=  0.000E+00 g(S)=  0.000E+00 dE (1.order)= 0.000E+00
 bond charge predicted
       N       E                     dE             d eps       ncg     rms          rms(c)
DAV:   1    -0.129408420944E+03   -0.24494E-03   -0.69692E-03   328   0.438E-01    0.177E-02
DAV:   2    -0.129408430588E+03   -0.96437E-05   -0.13945E-04   233   0.575E-02    0.113E-02
DAV:   3    -0.129408431218E+03   -0.63025E-06   -0.10869E-05   190   0.157E-02    0.674E-03
DAV:   4    -0.129408432484E+03   -0.12653E-05   -0.48945E-06   236   0.110E-02    0.173E-03
DAV:   5    -0.129408432575E+03   -0.91498E-07   -0.14125E-06   164   0.566E-03    0.852E-04
DAV:   6    -0.129408432703E+03   -0.12769E-06   -0.36588E-07   174   0.246E-03
  32 F= -.12940843E+03 E0= -.12940843E+03  d E =-.256623E-03
damped:  g(F)=  0.000E+00 g(S)=  0.000E+00 dE (1.order)= 0.000E+00
 bond charge predicted
       N       E                     dE             d eps       ncg     rms          rms(c)
DAV:   1    -0.129408726338E+03   -0.29376E-03   -0.10029E-02   331   0.520E-01    0.206E-02
DAV:   2    -0.129408739969E+03   -0.13630E-04   -0.19062E-04   283   0.655E-02    0.127E-02
DAV:   3    -0.129408740935E+03   -0.96635E-06   -0.10118E-05   200   0.165E-02    0.724E-03
DAV:   4    -0.129408743061E+03   -0.21260E-05   -0.44999E-06   245   0.113E-02    0.164E-03
DAV:   5    -0.129408743218E+03   -0.15683E-06   -0.12024E-06   164   0.553E-03    0.916E-04
DAV:   6    -0.129408743348E+03   -0.13036E-06   -0.24210E-07   200   0.233E-03
  33 F= -.12940874E+03 E0= -.12940874E+03  d E =-.310645E-03
damped:  g(F)=  0.000E+00 g(S)=  0.000E+00 dE (1.order)= 0.000E+00
 bond charge predicted
       N       E                     dE             d eps       ncg     rms          rms(c)
DAV:   1    -0.129409106468E+03   -0.36325E-03   -0.15312E-02   335   0.640E-01    0.258E-02
DAV:   2    -0.129409127992E+03   -0.21524E-04   -0.30127E-04   300   0.816E-02    0.152E-02
DAV:   3    -0.129409129597E+03   -0.16044E-05   -0.14339E-05   239   0.198E-02    0.847E-03
DAV:   4    -0.129409132630E+03   -0.30331E-05   -0.61821E-06   238   0.134E-02    0.171E-03
DAV:   5    -0.129409132826E+03   -0.19652E-06   -0.16293E-06   272   0.635E-03    0.107E-03
DAV:   6    -0.129409132913E+03   -0.86507E-07   -0.34466E-07   203   0.273E-03
  34 F= -.12940913E+03 E0= -.12940913E+03  d E =-.389565E-03
damped:  g(F)=  0.000E+00 g(S)=  0.000E+00 dE (1.order)= 0.000E+00
 bond charge predicted
       N       E                     dE             d eps       ncg     rms          rms(c)
DAV:   1    -0.129409544296E+03   -0.41147E-03   -0.23646E-02   332   0.797E-01    0.325E-02
DAV:   2    -0.129409580998E+03   -0.36703E-04   -0.51082E-04   365   0.104E-01    0.196E-02
DAV:   3    -0.129409580903E+03    0.95601E-07   -0.12922E-05   236   0.204E-02    0.111E-02
DAV:   4    -0.129409585071E+03   -0.41684E-05   -0.10109E-05   279   0.166E-02    0.239E-03
DAV:   5    -0.129409585254E+03   -0.18256E-06   -0.18805E-06   264   0.746E-03    0.137E-03
DAV:   6    -0.129409585364E+03   -0.11038E-06   -0.24458E-07   204   0.281E-03
  35 F= -.12940959E+03 E0= -.12940959E+03  d E =-.452451E-03
damped:  g(F)=  0.000E+00 g(S)=  0.000E+00 dE (1.order)= 0.000E+00
 bond charge predicted
       N       E                     dE             d eps       ncg     rms          rms(c)
DAV:   1    -0.129410041255E+03   -0.45600E-03   -0.33433E-02   330   0.947E-01    0.380E-02
DAV:   2    -0.129410091452E+03   -0.50197E-04   -0.69121E-04   395   0.121E-01    0.234E-02
DAV:   3    -0.129410091180E+03    0.27233E-06   -0.12072E-05   219   0.207E-02    0.133E-02
DAV:   4    -0.129410097791E+03   -0.66105E-05   -0.12610E-05   236   0.191E-02    0.277E-03
DAV:   5    -0.129410098181E+03   -0.38999E-06   -0.29535E-06   213   0.896E-03    0.167E-03
DAV:   6    -0.129410098414E+03   -0.23315E-06   -0.39920E-07   166   0.316E-03
  36 F= -.12941010E+03 E0= -.12941010E+03  d E =-.513050E-03
damped:  g(F)=  0.000E+00 g(S)=  0.000E+00 dE (1.order)= 0.000E+00
 bond charge predicted
       N       E                     dE             d eps       ncg     rms          rms(c)
DAV:   1    -0.129410646700E+03   -0.54852E-03   -0.45933E-02   328   0.111E+00    0.438E-02
DAV:   2    -0.129410713097E+03   -0.66397E-04   -0.90030E-04   387   0.138E-01    0.282E-02
DAV:   3    -0.129410712737E+03    0.35940E-06   -0.18201E-05   244   0.256E-02    0.162E-02
DAV:   4    -0.129410722902E+03   -0.10165E-04   -0.19277E-05   259   0.225E-02    0.409E-03
DAV:   5    -0.129410723202E+03   -0.29936E-06   -0.44022E-06   270   0.111E-02    0.201E-03
DAV:   6    -0.129410723432E+03   -0.22992E-06   -0.55580E-07   172   0.379E-03
  37 F= -.12941072E+03 E0= -.12941072E+03  d E =-.625018E-03
damped:  g(F)=  0.000E+00 g(S)=  0.000E+00 dE (1.order)= 0.000E+00
 bond charge predicted
       N       E                     dE             d eps       ncg     rms          rms(c)
DAV:   1    -0.129411330585E+03   -0.60738E-03   -0.67037E-02   328   0.134E+00    0.529E-02
DAV:   2    -0.129411429493E+03   -0.98909E-04   -0.13406E-03   388   0.169E-01    0.354E-02
DAV:   3    -0.129411426820E+03    0.26735E-05   -0.28684E-05   271   0.322E-02    0.208E-02
DAV:   4    -0.129411440817E+03   -0.13998E-04   -0.31716E-05   242   0.289E-02    0.533E-03
DAV:   5    -0.129411441007E+03   -0.18988E-06   -0.74628E-06   272   0.146E-02    0.251E-03
DAV:   6    -0.129411441319E+03   -0.31179E-06   -0.10000E-06   204   0.497E-03
  38 F= -.12941144E+03 E0= -.12941144E+03  d E =-.717887E-03
damped:  g(F)=  0.000E+00 g(S)=  0.000E+00 dE (1.order)= 0.000E+00
 bond charge predicted
       N       E                     dE             d eps       ncg     rms          rms(c)
DAV:   1    -0.129412113574E+03   -0.67257E-03   -0.97556E-02   331   0.162E+00    0.637E-02
DAV:   2    -0.129412253323E+03   -0.13975E-03   -0.19136E-03   396   0.201E-01    0.408E-02
DAV:   3    -0.129412253075E+03    0.24750E-06   -0.36545E-05   219   0.363E-02    0.233E-02
DAV:   4    -0.129412273796E+03   -0.20721E-04   -0.39390E-05   268   0.322E-02    0.564E-03
DAV:   5    -0.129412274253E+03   -0.45654E-06   -0.87893E-06   259   0.156E-02    0.285E-03
DAV:   6    -0.129412274657E+03   -0.40409E-06   -0.11139E-06   200   0.527E-03
  39 F= -.12941227E+03 E0= -.12941227E+03  d E =-.833338E-03
damped:  g(F)=  0.000E+00 g(S)=  0.000E+00 dE (1.order)= 0.000E+00
 bond charge predicted
       N       E                     dE             d eps       ncg     rms          rms(c)
DAV:   1    -0.129413010182E+03   -0.73593E-03   -0.14466E-01   328   0.197E+00    0.786E-02
DAV:   2    -0.129413223437E+03   -0.21326E-03   -0.29612E-03   396   0.250E-01    0.491E-02
DAV:   3    -0.129413224974E+03   -0.15378E-05   -0.52786E-05   268   0.421E-02    0.276E-02
DAV:   4    -0.129413254824E+03   -0.29849E-04   -0.46360E-05   270   0.367E-02    0.522E-03
DAV:   5    -0.129413255844E+03   -0.10201E-05   -0.95999E-06   272   0.164E-02    0.325E-03
DAV:   6    -0.129413256403E+03   -0.55949E-06   -0.12378E-06   236   0.569E-03
  40 F= -.12941326E+03 E0= -.12941326E+03  d E =-.981746E-03
damped:  g(F)=  0.000E+00 g(S)=  0.000E+00 dE (1.order)= 0.000E+00
 bond charge predicted
       N       E                     dE             d eps       ncg     rms          rms(c)
DAV:   1    -0.129414083196E+03   -0.82735E-03   -0.19666E-01   329   0.229E+00    0.910E-02
DAV:   2    -0.129414364375E+03   -0.28118E-03   -0.38718E-03   379   0.287E-01    0.582E-02
DAV:   3    -0.129414364116E+03    0.25957E-06   -0.77019E-05   251   0.510E-02    0.329E-02
DAV:   4    -0.129414406811E+03   -0.42695E-04   -0.62634E-05   268   0.425E-02    0.639E-03
DAV:   5    -0.129414408291E+03   -0.14806E-05   -0.13249E-05   271   0.190E-02    0.385E-03
DAV:   6    -0.129414409070E+03   -0.77863E-06   -0.16102E-06   200   0.657E-03
  41 F= -.12941441E+03 E0= -.12941441E+03  d E =-.115267E-02
damped:  g(F)=  0.000E+00 g(S)=  0.000E+00 dE (1.order)= 0.000E+00
 bond charge predicted
       N       E                     dE             d eps       ncg     rms          rms(c)
DAV:   1    -0.129415288860E+03   -0.88057E-03   -0.27468E-01   328   0.272E+00    0.108E-01
DAV:   2    -0.129415692503E+03   -0.40364E-03   -0.54599E-03   388   0.341E-01    0.709E-02
DAV:   3    -0.129415684345E+03    0.81585E-05   -0.11781E-04   309   0.625E-02    0.405E-02
DAV:   4    -0.129415739474E+03   -0.55129E-04   -0.89101E-05   267   0.517E-02    0.727E-03
DAV:   5    -0.129415741656E+03   -0.21817E-05   -0.18244E-05   272   0.223E-02    0.466E-03
DAV:   6    -0.129415742754E+03   -0.10981E-05   -0.24114E-06   235   0.778E-03
  42 F= -.12941574E+03 E0= -.12941574E+03  d E =-.133368E-02
damped:  g(F)=  0.000E+00 g(S)=  0.000E+00 dE (1.order)= 0.000E+00
 bond charge predicted
       N       E                     dE             d eps       ncg     rms          rms(c)
DAV:   1    -0.129416624423E+03   -0.88277E-03   -0.39612E-01   328   0.326E+00    0.131E-01
DAV:   2    -0.129417235448E+03   -0.61103E-03   -0.81329E-03   404   0.415E-01    0.825E-02
DAV:   3    -0.129417229407E+03    0.60408E-05   -0.14269E-04   315   0.689E-02    0.462E-02
DAV:   4    -0.129417301961E+03   -0.72554E-04   -0.12172E-04   269   0.612E-02    0.793E-03
DAV:   5    -0.129417304896E+03   -0.29355E-05   -0.25246E-05   304   0.262E-02    0.535E-03
DAV:   6    -0.129417306510E+03   -0.16137E-05   -0.25658E-06   257   0.853E-03
  43 F= -.12941731E+03 E0= -.12941731E+03  d E =-.156376E-02
damped:  g(F)=  0.000E+00 g(S)=  0.000E+00 dE (1.order)= 0.000E+00
 bond charge predicted
       N       E                     dE             d eps       ncg     rms          rms(c)
DAV:   1    -0.129418227456E+03   -0.92256E-03   -0.52313E-01   328   0.376E+00    0.151E-01
DAV:   2    -0.129419016024E+03   -0.78857E-03   -0.10477E-02   380   0.472E-01    0.988E-02
DAV:   3    -0.129418998605E+03    0.17418E-04   -0.21888E-04   359   0.855E-02    0.563E-02
DAV:   4    -0.129419091369E+03   -0.92763E-04   -0.16950E-04   266   0.716E-02    0.987E-03
DAV:   5    -0.129419095633E+03   -0.42645E-05   -0.35598E-05   304   0.305E-02    0.657E-03
DAV:   6    -0.129419097499E+03   -0.18663E-05   -0.37372E-06   202   0.995E-03
  44 F= -.12941910E+03 E0= -.12941910E+03  d E =-.179099E-02
damped:  g(F)=  0.000E+00 g(S)=  0.000E+00 dE (1.order)= 0.000E+00
 bond charge predicted
       N       E                     dE             d eps       ncg     rms          rms(c)
DAV:   1    -0.129419667829E+03   -0.57220E-03   -0.76402E-01   328   0.453E+00    0.184E-01
DAV:   2    -0.129420894777E+03   -0.12269E-02   -0.16114E-02   404   0.583E-01    0.116E-01
DAV:   3    -0.129420877226E+03    0.17551E-04   -0.28620E-04   378   0.946E-02    0.648E-02
DAV:   4    -0.129420995681E+03   -0.11846E-03   -0.20195E-04   300   0.806E-02    0.108E-02
DAV:   5    -0.129421001483E+03   -0.58024E-05   -0.42081E-05   304   0.343E-02    0.758E-03
DAV:   6    -0.129421004713E+03   -0.32294E-05   -0.44155E-06   272   0.111E-02
  45 F= -.12942100E+03 E0= -.12942100E+03  d E =-.190721E-02
damped:  g(F)=  0.000E+00 g(S)=  0.000E+00 dE (1.order)= 0.000E+00
 bond charge predicted
       N       E                     dE             d eps       ncg     rms          rms(c)
DAV:   1    -0.129420745897E+03    0.25559E-03   -0.10124E+00   328   0.526E+00    0.218E-01
DAV:   2    -0.129422485521E+03   -0.17396E-02   -0.22942E-02   362   0.697E-01    0.150E-01
DAV:   3    -0.129422374467E+03    0.11105E-03   -0.57598E-04   432   0.132E-01    0.890E-02
DAV:   4    -0.129422491574E+03   -0.11711E-03   -0.40984E-04   368   0.107E-01    0.168E-02
DAV:   5    -0.129422498302E+03   -0.67280E-05   -0.63155E-05   368   0.405E-02    0.104E-02
DAV:   6    -0.129422501481E+03   -0.31795E-05   -0.67088E-06   240   0.136E-02
  46 F= -.12942250E+03 E0= -.12942250E+03  d E =-.149677E-02
damped:  g(F)=  0.000E+00 g(S)=  0.000E+00 dE (1.order)= 0.000E+00
 bond charge predicted
       N       E                     dE             d eps       ncg     rms          rms(c)
DAV:   1    -0.129414721685E+03    0.77766E-02   -0.21580E+00   328   0.764E+00    0.372E-01
DAV:   2    -0.129419850752E+03   -0.51291E-02   -0.67958E-02   370   0.116E+00    0.225E-01
DAV:   3    -0.129419335304E+03    0.51545E-03   -0.13010E-03   436   0.194E-01    0.129E-01
DAV:   4    -0.129419305082E+03    0.30221E-04   -0.10232E-03   389   0.165E-01    0.258E-02
DAV:   5    -0.129419326601E+03   -0.21519E-04   -0.18320E-04   432   0.642E-02    0.191E-02
DAV:   6    -0.129419340006E+03   -0.13405E-04   -0.12432E-05   272   0.175E-02
  47 F= -.12941934E+03 E0= -.12941934E+03  d E =0.316148E-02
damped:  g(F)=  0.000E+00 g(S)=  0.000E+00 dE (1.order)= 0.000E+00
 bond charge predicted
       N       E                     dE             d eps       ncg     rms          rms(c)
DAV:   1    -0.129424585519E+03   -0.52589E-02   -0.47420E-01   328   0.336E+00    0.237E-01
DAV:   2    -0.129425899349E+03   -0.13138E-02   -0.19259E-02   395   0.586E-01    0.127E-01
DAV:   3    -0.129425709784E+03    0.18956E-03   -0.53322E-04   444   0.117E-01    0.671E-02
DAV:   4    -0.129425633616E+03    0.76169E-04   -0.30963E-04   328   0.850E-02    0.151E-02
DAV:   5    -0.129425630892E+03    0.27234E-05   -0.52331E-05   368   0.339E-02    0.915E-03
DAV:   6    -0.129425630539E+03    0.35307E-06   -0.72334E-06   296   0.132E-02
  48 F= -.12942563E+03 E0= -.12942563E+03  d E =-.629053E-02
damped:  g(F)=  0.000E+00 g(S)=  0.000E+00 dE (1.order)= 0.000E+00
 bond charge predicted
       N       E                     dE             d eps       ncg     rms          rms(c)
DAV:   1    -0.129425660535E+03   -0.29643E-04   -0.20860E-04   376   0.733E-02    0.473E-03
DAV:   2    -0.129425665197E+03   -0.46612E-05   -0.93547E-06   272   0.156E-02    0.266E-03
DAV:   3    -0.129425669680E+03   -0.44832E-05   -0.12428E-06   276   0.550E-03    0.167E-03
DAV:   4    -0.129425676062E+03   -0.63822E-05   -0.48731E-07   262   0.330E-03    0.742E-04
DAV:   5    -0.129425680304E+03   -0.42417E-05   -0.20076E-07   330   0.168E-03    0.487E-04
DAV:   6    -0.129425684048E+03   -0.37441E-05   -0.11453E-07   206   0.121E-03
  49 F= -.12942568E+03 E0= -.12942568E+03  d E =-.535084E-04
damped:  g(F)=  0.000E+00 g(S)=  0.000E+00 dE (1.order)= 0.000E+00
 bond charge predicted
       N       E                     dE             d eps       ncg     rms          rms(c)
DAV:   1    -0.129425733681E+03   -0.53377E-04   -0.69823E-04   336   0.137E-01    0.780E-03
DAV:   2    -0.129425736799E+03   -0.31184E-05   -0.26101E-05   344   0.235E-02    0.457E-03
DAV:   3    -0.129425737989E+03   -0.11893E-05   -0.21719E-06   216   0.722E-03    0.249E-03
DAV:   4    -0.129425739662E+03   -0.16732E-05   -0.63980E-07   269   0.390E-03    0.749E-04
DAV:   5    -0.129425740671E+03   -0.10094E-05   -0.15652E-07   270   0.207E-03    0.335E-04
DAV:   6    -0.129425741185E+03   -0.51417E-06   -0.27177E-08   204   0.988E-04
  50 F= -.12942574E+03 E0= -.12942574E+03  d E =-.571377E-04
damped:  g(F)=  0.000E+00 g(S)=  0.000E+00 dE (1.order)= 0.000E+00
 bond charge predicted
       N       E                     dE             d eps       ncg     rms          rms(c)
DAV:   1    -0.129425781393E+03   -0.40722E-04   -0.10369E-03   371   0.169E-01    0.889E-03
DAV:   2    -0.129425783754E+03   -0.23613E-05   -0.35108E-05   203   0.281E-02    0.529E-03
DAV:   3    -0.129425783917E+03   -0.16266E-06   -0.38231E-06   264   0.944E-03    0.294E-03
DAV:   4    -0.129425784091E+03   -0.17384E-06   -0.12754E-06   272   0.500E-03    0.960E-04
DAV:   5    -0.129425784171E+03   -0.80430E-07   -0.20138E-07   272   0.253E-03    0.460E-04
DAV:   6    -0.129425784286E+03   -0.11450E-06   -0.26644E-08   202   0.127E-03
  51 F= -.12942578E+03 E0= -.12942578E+03  d E =-.431004E-04
damped:  g(F)=  0.000E+00 g(S)=  0.000E+00 dE (1.order)= 0.000E+00
 bond charge predicted
       N       E                     dE             d eps       ncg     rms          rms(c)
DAV:   1    -0.129425824817E+03   -0.40646E-04   -0.10599E-03   392   0.172E-01    0.772E-03
DAV:   2    -0.129425826511E+03   -0.16939E-05   -0.28772E-05   219   0.258E-02    0.467E-03
DAV:   3    -0.129425826497E+03    0.13543E-07   -0.29457E-06   272   0.854E-03    0.261E-03
DAV:   4    -0.129425826461E+03    0.36429E-07   -0.77297E-07   200   0.450E-03    0.685E-04
DAV:   5    -0.129425826511E+03   -0.50617E-07   -0.19795E-07   248   0.233E-03    0.351E-04
DAV:   6    -0.129425826625E+03   -0.11389E-06   -0.32663E-08   200   0.120E-03
  52 F= -.12942583E+03 E0= -.12942583E+03  d E =-.423395E-04
damped:  g(F)=  0.000E+00 g(S)=  0.000E+00 dE (1.order)= 0.000E+00
 bond charge predicted
       N       E                     dE             d eps       ncg     rms          rms(c)
DAV:   1    -0.129425884766E+03   -0.58255E-04   -0.11275E-03   365   0.175E-01    0.687E-03
DAV:   2    -0.129425886417E+03   -0.16505E-05   -0.22287E-05   200   0.227E-02    0.416E-03
DAV:   3    -0.129425886690E+03   -0.27307E-06   -0.20549E-06   164   0.737E-03    0.221E-03
DAV:   4    -0.129425887007E+03   -0.31718E-06   -0.50716E-07   254   0.375E-03    0.443E-04
DAV:   5    -0.129425887153E+03   -0.14627E-06   -0.12087E-07   200   0.185E-03    0.250E-04
DAV:   6    -0.129425887300E+03   -0.14693E-06   -0.12432E-08   200   0.950E-04
  53 F= -.12942589E+03 E0= -.12942589E+03  d E =-.606751E-04
damped:  g(F)=  0.000E+00 g(S)=  0.000E+00 dE (1.order)= 0.000E+00
 bond charge predicted
       N       E                     dE             d eps       ncg     rms          rms(c)
DAV:   1    -0.129425967977E+03   -0.80823E-04   -0.15739E-03   364   0.208E-01    0.822E-03
DAV:   2    -0.129425970411E+03   -0.24345E-05   -0.31850E-05   219   0.272E-02    0.517E-03
DAV:   3    -0.129425970738E+03   -0.32661E-06   -0.30134E-06   264   0.888E-03    0.289E-03
DAV:   4    -0.129425971080E+03   -0.34229E-06   -0.82394E-07   209   0.473E-03    0.650E-04
DAV:   5    -0.129425971149E+03   -0.68790E-07   -0.21224E-07   264   0.236E-03    0.335E-04
DAV:   6    -0.129425971202E+03   -0.53115E-07   -0.36733E-08   190   0.112E-03
  54 F= -.12942597E+03 E0= -.12942597E+03  d E =-.839017E-04
damped:  g(F)=  0.000E+00 g(S)=  0.000E+00 dE (1.order)= 0.000E+00
 bond charge predicted
       N       E                     dE             d eps       ncg     rms          rms(c)
DAV:   1    -0.129426072016E+03   -0.10087E-03   -0.28959E-03   345   0.284E-01    0.118E-02
DAV:   2    -0.129426076608E+03   -0.45925E-05   -0.67097E-05   227   0.397E-02    0.758E-03
DAV:   3    -0.129426076816E+03   -0.20784E-06   -0.67692E-06   264   0.131E-02    0.440E-03
DAV:   4    -0.129426076965E+03   -0.14864E-06   -0.20039E-06   208   0.724E-03    0.109E-03
DAV:   5    -0.129426076968E+03   -0.36025E-08   -0.53398E-07   248   0.363E-03    0.535E-04
DAV:   6    -0.129426077030E+03   -0.61214E-07   -0.13427E-07   194   0.177E-03
  55 F= -.12942608E+03 E0= -.12942608E+03  d E =-.105828E-03
damped:  g(F)=  0.000E+00 g(S)=  0.000E+00 dE (1.order)= 0.000E+00
 bond charge predicted
       N       E                     dE             d eps       ncg     rms          rms(c)
DAV:   1    -0.129426187555E+03   -0.11059E-03   -0.45871E-03   341   0.357E-01    0.146E-02
DAV:   2    -0.129426195001E+03   -0.74458E-05   -0.10730E-04   244   0.494E-02    0.948E-03
DAV:   3    -0.129426195007E+03   -0.64629E-08   -0.72537E-06   262   0.129E-02    0.569E-03
DAV:   4    -0.129426195328E+03   -0.32086E-06   -0.33492E-06   209   0.923E-03    0.134E-03
DAV:   5    -0.129426195379E+03   -0.51100E-07   -0.89857E-07   192   0.461E-03    0.753E-04
DAV:   6    -0.129426195492E+03   -0.11280E-06   -0.23608E-07   193   0.212E-03
  56 F= -.12942620E+03 E0= -.12942620E+03  d E =-.118462E-03
damped:  g(F)=  0.000E+00 g(S)=  0.000E+00 dE (1.order)= 0.000E+00
 bond charge predicted
       N       E                     dE             d eps       ncg     rms          rms(c)
DAV:   1    -0.129426334688E+03   -0.13931E-03   -0.65420E-03   331   0.422E-01    0.165E-02
DAV:   2    -0.129426344460E+03   -0.97719E-05   -0.13288E-04   235   0.547E-02    0.102E-02
DAV:   3    -0.129426345085E+03   -0.62499E-06   -0.83068E-06   200   0.139E-02    0.582E-03
DAV:   4    -0.129426346243E+03   -0.11585E-05   -0.33128E-06   235   0.914E-03    0.117E-03
DAV:   5    -0.129426346447E+03   -0.20403E-06   -0.98068E-07   190   0.456E-03    0.728E-04
DAV:   6    -0.129426346619E+03   -0.17117E-06   -0.26277E-07   184   0.204E-03
  57 F= -.12942635E+03 E0= -.12942635E+03  d E =-.151126E-03
damped:  g(F)=  0.000E+00 g(S)=  0.000E+00 dE (1.order)= 0.000E+00
 bond charge predicted
       N       E                     dE             d eps       ncg     rms          rms(c)
DAV:   1    -0.129426532474E+03   -0.18603E-03   -0.10428E-02   333   0.533E-01    0.210E-02
DAV:   2    -0.129426548982E+03   -0.16508E-04   -0.21881E-04   267   0.699E-02    0.129E-02
DAV:   3    -0.129426549990E+03   -0.10086E-05   -0.13314E-05   239   0.176E-02    0.715E-03
DAV:   4    -0.129426551816E+03   -0.18257E-05   -0.51574E-06   226   0.113E-02    0.133E-03
DAV:   5    -0.129426552113E+03   -0.29750E-06   -0.14721E-06   272   0.549E-03    0.782E-04
DAV:   6    -0.129426552290E+03   -0.17682E-06   -0.41477E-07   204   0.257E-03
  58 F= -.12942655E+03 E0= -.12942655E+03  d E =-.205672E-03
damped:  g(F)=  0.000E+00 g(S)=  0.000E+00 dE (1.order)= 0.000E+00
 bond charge predicted
       N       E                     dE             d eps       ncg     rms          rms(c)
DAV:   1    -0.129426759172E+03   -0.20706E-03   -0.16610E-02   342   0.674E-01    0.268E-02
DAV:   2    -0.129426787169E+03   -0.27997E-04   -0.37380E-04   300   0.899E-02    0.166E-02
DAV:   3    -0.129426787226E+03   -0.56409E-07   -0.14831E-05   246   0.202E-02    0.939E-03
DAV:   4    -0.129426789050E+03   -0.18247E-05   -0.68969E-06   209   0.146E-02    0.162E-03
DAV:   5    -0.129426789317E+03   -0.26661E-06   -0.17521E-06   272   0.659E-03    0.111E-03
DAV:   6    -0.129426789558E+03   -0.24142E-06   -0.37292E-07   200   0.305E-03
  59 F= -.12942679E+03 E0= -.12942679E+03  d E =-.237268E-03
damped:  g(F)=  0.000E+00 g(S)=  0.000E+00 dE (1.order)= 0.000E+00
 reached required accuracy - stopping structural energy minimisation
