unknown system                          
           1
    30.000000    0.000000    0.000000
     0.000000   30.000000    0.000000
     0.000000    0.000000   30.000000
   H    C    N    O 
  12   6   2   2
Direct configuration=     1
   0.37804007  0.53244999  0.49365907
   0.38006898  0.48539010  0.45752766
   0.38289396  0.47745252  0.51621971
   0.44842578  0.43877595  0.49662097
   0.52140214  0.42646293  0.50002211
   0.57257580  0.46726486  0.44722559
   0.52805813  0.50376872  0.43255915
   0.52473572  0.44570977  0.41982155
   0.51295841  0.54599494  0.50699783
   0.57000495  0.54058321  0.58850527
   0.59972013  0.55741844  0.54059363
   0.55443540  0.59164171  0.56030597
   0.39290360  0.49956992  0.48876806
   0.44292994  0.50504514  0.48556160
   0.51547479  0.46133137  0.49056719
   0.53615553  0.47018349  0.44458056
   0.54151298  0.48717060  0.52668265
   0.56626264  0.55723153  0.55603176
   0.46663976  0.46689909  0.49164719
   0.53542220  0.53172489  0.52881108
   0.46048381  0.54180929  0.47778831
   0.56921895  0.46721378  0.55001485
Direct configuration=     2
   0.37798146  0.53251654  0.49365802
   0.38002436  0.48539157  0.45748876
   0.38291199  0.47744472  0.51621870
   0.44848495  0.43877534  0.49667941
   0.52139289  0.42644340  0.49996146
   0.57259454  0.46726998  0.44720881
   0.52804509  0.50379525  0.43256918
   0.52468517  0.44571667  0.41982631
   0.51299098  0.54599425  0.50709329
   0.56994163  0.54069195  0.58853194
   0.59968318  0.55747465  0.54065758
   0.55441578  0.59154885  0.56028474
   0.39287616  0.49954477  0.48872905
   0.44302895  0.50501504  0.48554711
   0.51537495  0.46131804  0.49058454
   0.53616691  0.47016589  0.44456459
   0.54157738  0.48717269  0.52666826
   0.56629501  0.55726205  0.55606226
   0.46668891  0.46686037  0.49165285
   0.53553913  0.53175093  0.52880953
   0.46042811  0.54184098  0.47774022
   0.56919593  0.46709895  0.54997582
Direct configuration=     3
   0.37791762  0.53256960  0.49364955
   0.37995658  0.48539141  0.45742876
   0.38293503  0.47743301  0.51621495
   0.44855861  0.43876103  0.49677202
   0.52137479  0.42641570  0.49987903
   0.57261745  0.46727146  0.44718741
   0.52803019  0.50381350  0.43258841
   0.52460922  0.44571943  0.41982986
   0.51303667  0.54599952  0.50723196
   0.56986249  0.54084455  0.58858546
   0.59966042  0.55756910  0.54073563
   0.55437245  0.59146092  0.56025950
   0.39285863  0.49955213  0.48868647
   0.44308592  0.50498277  0.48552048
   0.51531376  0.46130132  0.49059648
   0.53616081  0.47016146  0.44455629
   0.54163636  0.48717163  0.52663358
   0.56633271  0.55727954  0.55609646
   0.46674360  0.46683408  0.49166015
   0.53570756  0.53175469  0.52879931
   0.46037106  0.54187730  0.47767475
   0.56918131  0.46692950  0.54992668
Direct configuration=     4
   0.37786408  0.53258728  0.49363115
   0.37987422  0.48539503  0.45736283
   0.38296148  0.47742479  0.51619984
   0.44863897  0.43873420  0.49689666
   0.52134835  0.42638089  0.49978645
   0.57263061  0.46726562  0.44716322
   0.52801459  0.50381614  0.43261674
   0.52451350  0.44571836  0.41983510
   0.51309204  0.54601257  0.50740466
   0.56978456  0.54102266  0.58867506
   0.59967675  0.55770382  0.54081324
   0.55429878  0.59141090  0.56023331
   0.39285126  0.49959071  0.48864548
   0.44306905  0.50497641  0.48547661
   0.51533724  0.46129175  0.49059167
   0.53613617  0.47016968  0.44455844
   0.54169532  0.48713291  0.52659584
   0.56636826  0.55727782  0.55612754
   0.46677428  0.46683414  0.49166969
   0.53590220  0.53172127  0.52876829
   0.46032415  0.54189244  0.47760354
   0.56916711  0.46673493  0.54985857
Direct configuration=     5
   0.37782428  0.53257193  0.49360391
   0.37978883  0.48541195  0.45731295
   0.38299187  0.47743001  0.51616289
   0.44872486  0.43870549  0.49704981
   0.52131667  0.42633988  0.49969228
   0.57261856  0.46725053  0.44713468
   0.52799635  0.50380777  0.43265134
   0.52440457  0.44571904  0.41984972
   0.51315301  0.54603091  0.50760111
   0.56972184  0.54120991  0.58880382
   0.59974295  0.55787822  0.54088461
   0.55419463  0.59140503  0.56020429
   0.39283651  0.49962931  0.48860130
   0.44299397  0.50500129  0.48541643
   0.51543120  0.46129634  0.49056583
   0.53610788  0.47017482  0.44456136
   0.54176297  0.48703694  0.52656490
   0.56639997  0.55727472  0.55615361
   0.46676441  0.46686263  0.49168276
   0.53610066  0.53164673  0.52870991
   0.46029198  0.54187663  0.47753293
   0.56915487  0.46653470  0.54977398
Direct configuration=     6
   0.37779198  0.53254021  0.49357076
   0.37970754  0.48544854  0.45729280
   0.38302544  0.47745282  0.51609966
   0.44881684  0.43868880  0.49722974
   0.52128285  0.42629682  0.49959901
   0.57257469  0.46722426  0.44709694
   0.52797302  0.50379776  0.43268824
   0.52428677  0.44572687  0.41988011
   0.51321272  0.54604798  0.50780895
   0.56968310  0.54139824  0.58896469
   0.59985315  0.55809174  0.54095643
   0.55406318  0.59142849  0.56016570
   0.39279232  0.49963785  0.48854501
   0.44289838  0.50503032  0.48534764
   0.51553023  0.46130740  0.49052341
   0.53609067  0.47016287  0.44454869
   0.54183341  0.48689917  0.52652701
   0.56643333  0.55729517  0.55617714
   0.46672673  0.46691389  0.49169997
   0.53629809  0.53153526  0.52863443
   0.46027858  0.54184739  0.47746053
   0.56916977  0.46632312  0.54969775
Direct configuration=     7
   0.37775324  0.53250801  0.49353104
   0.37961774  0.48550353  0.45729040
   0.38305790  0.47748561  0.51601248
   0.44892279  0.43869969  0.49745628
   0.52124379  0.42625671  0.49949420
   0.57250603  0.46717940  0.44703812
   0.52794180  0.50379233  0.43272658
   0.52414850  0.44574149  0.41992582
   0.51326813  0.54605140  0.50803351
   0.56966959  0.54160896  0.58915184
   0.59999747  0.55836688  0.54105774
   0.55389243  0.59145976  0.56010134
   0.39271191  0.49961326  0.48846611
   0.44281878  0.50503284  0.48527245
   0.51555063  0.46130223  0.49046749
   0.53607804  0.47013812  0.44450538
   0.54191906  0.48673708  0.52646975
   0.56648479  0.55735314  0.55621036
   0.46669634  0.46697374  0.49172361
   0.53652601  0.53139577  0.52856251
   0.46028128  0.54182606  0.47737293
   0.56923654  0.46606888  0.54964461
Direct configuration=     8
   0.37769901  0.53248798  0.49348627
   0.37949803  0.48555105  0.45725562
   0.38307033  0.47749757  0.51592997
   0.44903296  0.43875187  0.49773172
   0.52119388  0.42622618  0.49937191
   0.57244576  0.46710923  0.44695086
   0.52790522  0.50379696  0.43275858
   0.52398527  0.44574952  0.41995971
   0.51332046  0.54601267  0.50826363
   0.56967979  0.54185405  0.58932677
   0.60014104  0.55869955  0.54122303
   0.55368322  0.59147344  0.55999691
   0.39264152  0.49960283  0.48837956
   0.44279618  0.50502612  0.48519047
   0.51545117  0.46126139  0.49040880
   0.53603145  0.47012947  0.44444344
   0.54207194  0.48655747  0.52643140
   0.56656802  0.55742993  0.55627115
   0.46670759  0.46700271  0.49175436
   0.53679736  0.53127498  0.52852286
   0.46027878  0.54180277  0.47726967
   0.56932390  0.46579690  0.54958760
Direct configuration=     9
   0.37762657  0.53249153  0.49343808
   0.37933590  0.48556935  0.45714738
   0.38304663  0.47746551  0.51587000
   0.44911538  0.43883317  0.49806429
   0.52112266  0.42618799  0.49922774
   0.57240050  0.46700993  0.44682993
   0.52786256  0.50382936  0.43276915
   0.52379149  0.44574105  0.41994205
   0.51339434  0.54589174  0.50850158
   0.56971161  0.54213863  0.58947166
   0.60026635  0.55908349  0.54148276
   0.55344109  0.59144942  0.55984433
   0.39264017  0.49963374  0.48830035
   0.44282612  0.50501848  0.48510555
   0.51533361  0.46121283  0.49036608
   0.53591914  0.47014219  0.44439946
   0.54227236  0.48641060  0.52641767
   0.56666677  0.55751149  0.55636232
   0.46673752  0.46700029  0.49178868
   0.53711282  0.53118587  0.52852307
   0.46026962  0.54177557  0.47714777
   0.56942977  0.46551215  0.54951410
Direct configuration=    10
   0.37755306  0.53251892  0.49338782
   0.37917363  0.48558393  0.45702182
   0.38299750  0.47741638  0.51579440
   0.44912136  0.43890667  0.49846843
   0.52102611  0.42611369  0.49906600
   0.57229907  0.46688678  0.44667135
   0.52780823  0.50390472  0.43274624
   0.52356925  0.44574194  0.41986430
   0.51352029  0.54566565  0.50874854
   0.56976473  0.54244289  0.58962396
   0.60039520  0.55951064  0.54184099
   0.55317437  0.59139042  0.55965193
   0.39266929  0.49963307  0.48820478
   0.44285388  0.50498172  0.48503591
   0.51537138  0.46121610  0.49036877
   0.53578705  0.47013019  0.44436991
   0.54244644  0.48633877  0.52640316
   0.56672756  0.55761603  0.55644986
   0.46673271  0.46701913  0.49182335
   0.53745351  0.53108357  0.52854437
   0.46029999  0.54177719  0.47699700
   0.56957839  0.46521587  0.54943100
Direct configuration=    11
   0.37753330  0.53250198  0.49332605
   0.37907580  0.48562933  0.45695508
   0.38294595  0.47738993  0.51564833
   0.44905772  0.43899722  0.49894119
   0.52092187  0.42602860  0.49890537
   0.57209939  0.46674471  0.44646928
   0.52775251  0.50395983  0.43270957
   0.52332331  0.44579780  0.41976529
   0.51368028  0.54536603  0.50896414
   0.56982498  0.54274845  0.58981574
   0.60054891  0.55996687  0.54227035
   0.55286816  0.59136051  0.55944368
   0.39260069  0.49958846  0.48808585
   0.44287124  0.50506061  0.48495274
   0.51552121  0.46125446  0.49041309
   0.53567211  0.47012234  0.44426571
   0.54270631  0.48617797  0.52647610
   0.56674410  0.55770979  0.55653289
   0.46673640  0.46700964  0.49188763
   0.53779502  0.53096668  0.52857253
   0.46035614  0.54170275  0.47684534
   0.56968757  0.46501040  0.54926801
Direct configuration=    12
   0.37754060  0.53249250  0.49332404
   0.37908470  0.48562958  0.45695308
   0.38294477  0.47738965  0.51564159
   0.44905475  0.43900722  0.49894974
   0.52092715  0.42603458  0.49890728
   0.57209958  0.46674195  0.44645962
   0.52775367  0.50395170  0.43270849
   0.52331646  0.44580653  0.41976443
   0.51368024  0.54536329  0.50895129
   0.56982035  0.54274885  0.58982085
   0.60054924  0.55996840  0.54227555
   0.55286180  0.59136952  0.55944610
   0.39260002  0.49960123  0.48808888
   0.44285458  0.50502047  0.48496153
   0.51550190  0.46123967  0.49040489
   0.53566557  0.47013168  0.44426055
   0.54267330  0.48620541  0.52644179
   0.56674536  0.55771062  0.55653896
   0.46674183  0.46702105  0.49189551
   0.53779483  0.53095230  0.52857409
   0.46037319  0.54172374  0.47683874
   0.56973908  0.46498444  0.54930699
Direct configuration=    13
   0.37755477  0.53247734  0.49332027
   0.37910376  0.48563073  0.45694959
   0.38294180  0.47738897  0.51562702
   0.44905006  0.43902886  0.49896726
   0.52093866  0.42604456  0.49891097
   0.57209826  0.46673726  0.44643896
   0.52775497  0.50393970  0.43270514
   0.52330217  0.44582621  0.41976086
   0.51368127  0.54535701  0.50892507
   0.56980732  0.54274940  0.58983424
   0.60055039  0.55996904  0.54228992
   0.55284859  0.59138618  0.55945009
   0.39259959  0.49961924  0.48809304
   0.44283585  0.50497422  0.48497179
   0.51546844  0.46121726  0.49038748
   0.53565403  0.47014665  0.44425015
   0.54264712  0.48622320  0.52640632
   0.56674542  0.55771201  0.55655296
   0.46674777  0.46703520  0.49191316
   0.53779140  0.53093170  0.52857525
   0.46039528  0.54173934  0.47683089
   0.56980602  0.46496045  0.54935371
Direct configuration=    14
   0.37755570  0.53247768  0.49332011
   0.37910589  0.48563109  0.45694943
   0.38294124  0.47738885  0.51562549
   0.44904974  0.43903102  0.49896919
   0.52093981  0.42604455  0.49891135
   0.57209735  0.46673693  0.44643675
   0.52775464  0.50394022  0.43270434
   0.52330053  0.44582841  0.41975986
   0.51368189  0.54535598  0.50892264
   0.56980543  0.54274939  0.58983607
   0.60055044  0.55996867  0.54229203
   0.55284737  0.59138697  0.55945024
   0.39260014  0.49961801  0.48809270
   0.44283883  0.50498096  0.48497061
   0.51546780  0.46121787  0.49038611
   0.53565356  0.47014627  0.44424951
   0.54265658  0.48621398  0.52641308
   0.56674440  0.55771225  0.55655436
   0.46674662  0.46703382  0.49191537
   0.53779021  0.53093241  0.52857479
   0.46039351  0.54173260  0.47683184
   0.56980123  0.46496662  0.54934830
Direct configuration=    15
   0.37755759  0.53247826  0.49331977
   0.37911018  0.48563179  0.45694904
   0.38294016  0.47738857  0.51562244
   0.44904898  0.43903520  0.49897312
   0.52094211  0.42604456  0.49891198
   0.57209555  0.46673631  0.44643225
   0.52775401  0.50394129  0.43270272
   0.52329721  0.44583287  0.41975778
   0.51368318  0.54535387  0.50891775
   0.56980146  0.54274941  0.58983985
   0.60055058  0.55996784  0.54229644
   0.55284494  0.59138857  0.55945055
   0.39260129  0.49961573  0.48809201
   0.44284418  0.50499293  0.48496859
   0.51546656  0.46121886  0.49038346
   0.53565256  0.47014566  0.44424821
   0.54267376  0.48619729  0.52642511
   0.56674228  0.55771273  0.55655717
   0.46674452  0.46703147  0.49191970
   0.53778800  0.53093340  0.52857399
   0.46039055  0.54172030  0.47683344
   0.56979325  0.46497770  0.54933885
Direct configuration=    16
   0.37756051  0.53247897  0.49331922
   0.37911682  0.48563282  0.45694829
   0.38293850  0.47738803  0.51561781
   0.44904742  0.43904122  0.49897939
   0.52094559  0.42604460  0.49891277
   0.57209281  0.46673534  0.44642525
   0.52775309  0.50394283  0.43270025
   0.52329197  0.44583968  0.41975442
   0.51368527  0.54535047  0.50891017
   0.56979527  0.54274950  0.58984570
   0.60055072  0.55996662  0.54230337
   0.55284122  0.59139102  0.55945111
   0.39260318  0.49961278  0.48809094
   0.44285069  0.50500721  0.48496643
   0.51546479  0.46121980  0.49037975
   0.53565086  0.47014503  0.44424625
   0.54269530  0.48617644  0.52643951
   0.56673889  0.55771355  0.55656134
   0.46674190  0.46702898  0.49192619
   0.53778511  0.53093369  0.52857314
   0.46038760  0.54170472  0.47683504
   0.56978535  0.46499136  0.54932797
Direct configuration=    17
   0.37756456  0.53247961  0.49331840
   0.37912604  0.48563415  0.45694690
   0.38293624  0.47738707  0.51561159
   0.44904455  0.43904874  0.49898850
   0.52095025  0.42604470  0.49891355
   0.57208911  0.46673392  0.44641543
   0.52775191  0.50394479  0.43269686
   0.52328450  0.44584895  0.41974952
   0.51368840  0.54534547  0.50889964
   0.56978657  0.54274980  0.58985379
   0.60055075  0.55996504  0.54231316
   0.55283614  0.59139433  0.55945201
   0.39260601  0.49960983  0.48808948
   0.44285644  0.50501910  0.48496526
   0.51546259  0.46121991  0.49037532
   0.53564822  0.47014475  0.44424361
   0.54271579  0.48615687  0.52645164
   0.56673397  0.55771487  0.55656674
   0.46673947  0.46702765  0.49193483
   0.53778212  0.53093187  0.52857269
   0.46038654  0.54168957  0.47683566
   0.56978266  0.46500384  0.54931986
Direct configuration=    18
   0.37756478  0.53247958  0.49331835
   0.37912652  0.48563420  0.45694675
   0.38293612  0.47738697  0.51561131
   0.44904426  0.43904898  0.49898908
   0.52095045  0.42604470  0.49891354
   0.57208892  0.46673381  0.44641491
   0.52775186  0.50394484  0.43269669
   0.52328405  0.44584937  0.41974923
   0.51368861  0.54534513  0.50889909
   0.56978614  0.54274985  0.58985414
   0.60055069  0.55996503  0.54231365
   0.55283588  0.59139448  0.55945209
   0.39260620  0.49960990  0.48808941
   0.44285613  0.50501825  0.48496556
   0.51546254  0.46121970  0.49037527
   0.53564802  0.47014484  0.44424349
   0.54271514  0.48615756  0.52645082
   0.56673369  0.55771495  0.55656693
   0.46673957  0.46702797  0.49193524
   0.53778215  0.53093138  0.52857280
   0.46038705  0.54168999  0.47683539
   0.56978406  0.46500330  0.54932070
Direct configuration=    19
   0.37756520  0.53247954  0.49331826
   0.37912749  0.48563431  0.45694646
   0.38293586  0.47738680  0.51561075
   0.44904365  0.43904948  0.49899027
   0.52095083  0.42604471  0.49891358
   0.57208854  0.46673354  0.44641387
   0.52775175  0.50394490  0.43269636
   0.52328311  0.44585018  0.41974867
   0.51368904  0.54534446  0.50889797
   0.56978542  0.54274996  0.58985476
   0.60055053  0.55996509  0.54231452
   0.55283537  0.59139477  0.55945227
   0.39260655  0.49961007  0.48808929
   0.44285554  0.50501661  0.48496615
   0.51546243  0.46121928  0.49037519
   0.53564759  0.47014499  0.44424327
   0.54271391  0.48615891  0.52644924
   0.56673314  0.55771515  0.55656726
   0.46673976  0.46702859  0.49193609
   0.53778222  0.53093042  0.52857301
   0.46038805  0.54169079  0.47683487
   0.56978682  0.46500227  0.54932233
Direct configuration=    20
   0.37756583  0.53247950  0.49331813
   0.37912894  0.48563450  0.45694605
   0.38293545  0.47738656  0.51560994
   0.44904273  0.43905025  0.49899211
   0.52095138  0.42604471  0.49891373
   0.57208793  0.46673305  0.44641233
   0.52775156  0.50394490  0.43269587
   0.52328166  0.44585131  0.41974789
   0.51368968  0.54534342  0.50889629
   0.56978456  0.54275013  0.58985549
   0.60055022  0.55996534  0.54231559
   0.55283461  0.59139520  0.55945259
   0.39260708  0.49961032  0.48808914
   0.44285469  0.50501428  0.48496704
   0.51546225  0.46121864  0.49037513
   0.53564691  0.47014513  0.44424297
   0.54271224  0.48616080  0.52644699
   0.56673238  0.55771548  0.55656766
   0.46674002  0.46702949  0.49193743
   0.53778232  0.53092904  0.52857329
   0.46038950  0.54169191  0.47683414
   0.56979089  0.46500085  0.54932463
Direct configuration=    21
   0.37756667  0.53247947  0.49331796
   0.37913088  0.48563476  0.45694551
   0.38293487  0.47738625  0.51560886
   0.44904148  0.43905132  0.49899463
   0.52095208  0.42604469  0.49891400
   0.57208708  0.46673233  0.44641030
   0.52775130  0.50394486  0.43269522
   0.52327967  0.44585277  0.41974689
   0.51369055  0.54534202  0.50889402
   0.56978357  0.54275037  0.58985633
   0.60054976  0.55996580  0.54231687
   0.55283358  0.59139576  0.55945304
   0.39260776  0.49961065  0.48808896
   0.44285365  0.50501139  0.48496822
   0.51546202  0.46121782  0.49037508
   0.53564598  0.47014527  0.44424259
   0.54271030  0.48616307  0.52644423
   0.56673139  0.55771594  0.55656813
   0.46674033  0.46703063  0.49193930
   0.53778242  0.53092726  0.52857364
   0.46039136  0.54169323  0.47683320
   0.56979612  0.46499915  0.54932748
Direct configuration=    22
   0.37756773  0.53247945  0.49331777
   0.37913334  0.48563510  0.45694482
   0.38293412  0.47738587  0.51560750
   0.44903991  0.43905271  0.49899786
   0.52095296  0.42604466  0.49891440
   0.57208598  0.46673138  0.44640775
   0.52775094  0.50394477  0.43269441
   0.52327712  0.44585456  0.41974565
   0.51369166  0.54534023  0.50889115
   0.56978245  0.54275068  0.58985727
   0.60054913  0.55996647  0.54231835
   0.55283227  0.59139645  0.55945363
   0.39260859  0.49961105  0.48808874
   0.44285251  0.50500813  0.48496964
   0.51546173  0.46121683  0.49037504
   0.53564478  0.47014539  0.44424212
   0.54270835  0.48616549  0.52644115
   0.56673017  0.55771652  0.55656868
   0.46674068  0.46703196  0.49194171
   0.53778251  0.53092517  0.52857403
   0.46039356  0.54169460  0.47683209
   0.56980234  0.46499735  0.54933069
Direct configuration=    23
   0.37756903  0.53247946  0.49331753
   0.37913633  0.48563553  0.45694399
   0.38293318  0.47738542  0.51560585
   0.44903803  0.43905445  0.49900182
   0.52095401  0.42604460  0.49891494
   0.57208462  0.46673016  0.44640465
   0.52775049  0.50394463  0.43269343
   0.52327397  0.44585670  0.41974417
   0.51369303  0.54533802  0.50888766
   0.56978119  0.54275106  0.58985831
   0.60054830  0.55996738  0.54232003
   0.55283066  0.59139728  0.55945436
   0.39260958  0.49961151  0.48808850
   0.44285139  0.50500475  0.48497127
   0.51546140  0.46121570  0.49037503
   0.53564330  0.47014549  0.44424154
   0.54270670  0.48616778  0.52643801
   0.56672872  0.55771720  0.55656932
   0.46674103  0.46703339  0.49194473
   0.53778254  0.53092283  0.52857445
   0.46039602  0.54169585  0.47683085
   0.56980929  0.46499564  0.54933402
Direct configuration=    24
   0.37757073  0.53247950  0.49331722
   0.37914026  0.48563611  0.45694288
   0.38293192  0.47738483  0.51560369
   0.44903562  0.43905680  0.49900708
   0.52095537  0.42604448  0.49891571
   0.57208278  0.46672850  0.44640060
   0.52774988  0.50394444  0.43269215
   0.52326978  0.44585945  0.41974225
   0.51369487  0.54533508  0.50888309
   0.56977965  0.54275159  0.58985953
   0.60054715  0.55996865  0.54232213
   0.55282852  0.59139834  0.55945532
   0.39261083  0.49961204  0.48808821
   0.44285033  0.50500120  0.48497324
   0.51546102  0.46121434  0.49037504
   0.53564134  0.47014556  0.44424078
   0.54270565  0.48616979  0.52643480
   0.56672686  0.55771806  0.55657015
   0.46674139  0.46703500  0.49194878
   0.53778247  0.53092008  0.52857490
   0.46039893  0.54169683  0.47682937
   0.56981748  0.46499414  0.54933752
Direct configuration=    25
   0.37757293  0.53247961  0.49331683
   0.37914532  0.48563687  0.45694143
   0.38293026  0.47738409  0.51560092
   0.44903259  0.43905992  0.49901388
   0.52095709  0.42604428  0.49891677
   0.57208038  0.46672631  0.44639540
   0.52774905  0.50394417  0.43269052
   0.52326433  0.44586294  0.41973980
   0.51369728  0.54533127  0.50887724
   0.56977778  0.54275228  0.58986096
   0.60054560  0.55997037  0.54232471
   0.55282572  0.59139966  0.55945655
   0.39261238  0.49961265  0.48808786
   0.44284956  0.50499790  0.48497554
   0.51546062  0.46121277  0.49037510
   0.53563879  0.47014556  0.44423976
   0.54270582  0.48617101  0.52643197
   0.56672451  0.55771910  0.55657121
   0.46674172  0.46703666  0.49195411
   0.53778222  0.53091700  0.52857537
   0.46040220  0.54169716  0.47682769
   0.56982666  0.46499324  0.54934080
Direct configuration=    26
   0.37757568  0.53247982  0.49331635
   0.37915166  0.48563784  0.45693957
   0.38292814  0.47738315  0.51559745
   0.44902890  0.43906393  0.49902251
   0.52095924  0.42604396  0.49891818
   0.57207730  0.46672347  0.44638889
   0.52774797  0.50394384  0.43268850
   0.52325740  0.44586723  0.41973675
   0.51370038  0.54532641  0.50886993
   0.56977554  0.54275317  0.58986258
   0.60054356  0.55997265  0.54232781
   0.55282215  0.59140126  0.55945810
   0.39261424  0.49961329  0.48808746
   0.44284934  0.50499535  0.48497811
   0.51546025  0.46121103  0.49037524
   0.53563555  0.47014548  0.44423846
   0.54270796  0.48617083  0.52643005
   0.56672161  0.55772031  0.55657253
   0.46674198  0.46703823  0.49196095
   0.53778174  0.53091371  0.52857581
   0.46040571  0.54169643  0.47682584
   0.56983650  0.46499340  0.54934336
Direct configuration=    27
   0.37757908  0.53248018  0.49331575
   0.37915949  0.48563908  0.45693722
   0.38292547  0.47738199  0.51559318
   0.44902448  0.43906897  0.49903325
   0.52096184  0.42604346  0.49892000
   0.57207341  0.46671986  0.44638086
   0.52774658  0.50394345  0.43268606
   0.52324872  0.44587243  0.41973299
   0.51370430  0.54532035  0.50886096
   0.56977290  0.54275430  0.58986438
   0.60054092  0.55997557  0.54233148
   0.55281767  0.59140315  0.55946000
   0.39261645  0.49961394  0.48808701
   0.44285000  0.50499409  0.48498094
   0.51545996  0.46120918  0.49037553
   0.53563151  0.47014527  0.44423680
   0.54271285  0.48616862  0.52642955
   0.56671807  0.55772169  0.55657413
   0.46674214  0.46703957  0.49196957
   0.53778096  0.53091035  0.52857618
   0.46040936  0.54169419  0.47682385
   0.56984666  0.46499508  0.54934470
Direct configuration=    28
   0.37758322  0.53248074  0.49331501
   0.37916907  0.48564063  0.45693424
   0.38292215  0.47738056  0.51558799
   0.44901921  0.43907520  0.49904658
   0.52096495  0.42604271  0.49892230
   0.57206854  0.46671531  0.44637105
   0.52774481  0.50394302  0.43268313
   0.52323793  0.44587864  0.41972840
   0.51370921  0.54531282  0.50885005
   0.56976981  0.54275574  0.58986633
   0.60053755  0.55997932  0.54233579
   0.55281210  0.59140533  0.55946230
   0.39261905  0.49961460  0.48808651
   0.44285182  0.50499455  0.48498405
   0.51545988  0.46120723  0.49037607
   0.53562650  0.47014487  0.44423473
   0.54272116  0.48616395  0.52643087
   0.56671376  0.55772327  0.55657605
   0.46674219  0.46704053  0.49198034
   0.53777985  0.53090698  0.52857650
   0.46041309  0.54169008  0.47682171
   0.56985701  0.46499865  0.54934438
Direct configuration=    29
   0.37758823  0.53248160  0.49331411
   0.37918077  0.48564260  0.45693044
   0.38291802  0.47737878  0.51558170
   0.44901291  0.43908279  0.49906313
   0.52096866  0.42604161  0.49892518
   0.57206242  0.46670956  0.44635906
   0.52774253  0.50394256  0.43267966
   0.52322448  0.44588601  0.41972279
   0.51371536  0.54530348  0.50883678
   0.56976620  0.54275755  0.58986842
   0.60053324  0.55998414  0.54234080
   0.55280516  0.59140779  0.55946512
   0.39262215  0.49961527  0.48808592
   0.44285505  0.50499693  0.48498758
   0.51546016  0.46120516  0.49037707
   0.53562028  0.47014423  0.44423215
   0.54273327  0.48615674  0.52643411
   0.56670847  0.55772509  0.55657825
   0.46674220  0.46704107  0.49199373
   0.53777845  0.53090354  0.52857680
   0.46041701  0.54168394  0.47681930
   0.56986788  0.46500426  0.54934220
Direct configuration=    30
   0.37759427  0.53248287  0.49331299
   0.37919512  0.48564511  0.45692553
   0.38291287  0.47737655  0.51557410
   0.44900529  0.43909189  0.49908391
   0.52097304  0.42603997  0.49892872
   0.57205469  0.46670224  0.44634432
   0.52773961  0.50394209  0.43267556
   0.52320757  0.44589471  0.41971591
   0.51372310  0.54529183  0.50882059
   0.56976200  0.54275985  0.58987058
   0.60052772  0.55999042  0.54234658
   0.55279648  0.59141048  0.55946857
   0.39262591  0.49961602  0.48808522
   0.44285977  0.50500076  0.48499189
   0.51546100  0.46120281  0.49037889
   0.53561250  0.47014326  0.44422897
   0.54274890  0.48614766  0.52643869
   0.56670182  0.55772739  0.55658079
   0.46674238  0.46704134  0.49201041
   0.53777692  0.53089973  0.52857719
   0.46042150  0.54167610  0.47681632
   0.56988043  0.46501154  0.54933849
Direct configuration=    31
   0.37760149  0.53248470  0.49331160
   0.37921270  0.48564835  0.45691914
   0.38290649  0.47737372  0.51556496
   0.44899600  0.43910256  0.49911009
   0.52097818  0.42603759  0.49893301
   0.57204492  0.46669288  0.44632621
   0.52773584  0.50394164  0.43267078
   0.52318626  0.44590485  0.41970749
   0.51373283  0.54527731  0.50880084
   0.56975714  0.54276276  0.58987275
   0.60052066  0.55999865  0.54235318
   0.55278563  0.59141332  0.55947283
   0.39263057  0.49961702  0.48808432
   0.44286567  0.50500461  0.48499762
   0.51546269  0.46119990  0.49038198
   0.53560272  0.47014187  0.44422512
   0.54276655  0.48613871  0.52644302
   0.56669344  0.55773040  0.55658354
   0.46674311  0.46704175  0.49203109
   0.53777561  0.53089495  0.52857791
   0.46042740  0.54166774  0.47681223
   0.56989702  0.46501926  0.54933442
Direct configuration=    32
   0.37760997  0.53248719  0.49330986
   0.37923399  0.48565250  0.45691092
   0.38289871  0.47737017  0.51555414
   0.44898479  0.43911469  0.49914278
   0.52098408  0.42603426  0.49893806
   0.57203272  0.46668105  0.44630420
   0.52773104  0.50394125  0.43266538
   0.52315967  0.44591643  0.41969738
   0.51374490  0.54525948  0.50877708
   0.56975159  0.54276637  0.58987483
   0.60051176  0.56000932  0.54236052
   0.55277219  0.59141619  0.55947803
   0.39263639  0.49961848  0.48808316
   0.44287215  0.50500636  0.48500552
   0.51546548  0.46119610  0.49038679
   0.53559054  0.47013998  0.44422057
   0.54278396  0.48613250  0.52644492
   0.56668309  0.55773429  0.55658628
   0.46674489  0.46704294  0.49205634
   0.53777494  0.53088852  0.52857922
   0.46043573  0.54166062  0.47680638
   0.56992036  0.46502569  0.54933163
Direct configuration=    33
   0.37761978  0.53249046  0.49330771
   0.37925948  0.48565784  0.45690045
   0.38288936  0.47736580  0.51554147
   0.44897159  0.43912824  0.49918326
   0.52099079  0.42602974  0.49894393
   0.57201763  0.46666619  0.44627772
   0.52772499  0.50394095  0.43265951
   0.52312674  0.44592940  0.41968546
   0.51375974  0.54523788  0.50874887
   0.56974532  0.54277079  0.58987668
   0.60050068  0.56002305  0.54236850
   0.55275556  0.59141895  0.55948430
   0.39264364  0.49962062  0.48808166
   0.44287891  0.50500447  0.48501624
   0.51546964  0.46119109  0.49039371
   0.53557548  0.47013747  0.44421527
   0.54279992  0.48613079  0.52644304
   0.56667062  0.55773922  0.55658882
   0.46674820  0.46704536  0.49208690
   0.53777519  0.53088009  0.52858120
   0.46044733  0.54165608  0.47679816
   0.56995242  0.46502971  0.54933095
Direct configuration=    34
   0.37763114  0.53249471  0.49330495
   0.37929005  0.48566484  0.45688710
   0.38287810  0.47736046  0.51552657
   0.44895661  0.43914353  0.49923357
   0.52099843  0.42602367  0.49895079
   0.57199883  0.46664743  0.44624577
   0.52771725  0.50394079  0.43265344
   0.52308573  0.44594379  0.41967161
   0.51377802  0.54521182  0.50871550
   0.56973818  0.54277620  0.58987804
   0.60048682  0.56004079  0.54237695
   0.55273466  0.59142146  0.55949178
   0.39265264  0.49962360  0.48807972
   0.44288699  0.50499945  0.48503013
   0.51547555  0.46118460  0.49040322
   0.53555672  0.47013413  0.44420903
   0.54281611  0.48613259  0.52643822
   0.56665593  0.55774531  0.55659110
   0.46675334  0.46704890  0.49212417
   0.53777634  0.53087008  0.52858368
   0.46046241  0.54165378  0.47678722
   0.56999326  0.46503203  0.54933101
Direct configuration=    35
   0.37764435  0.53250006  0.49330137
   0.37932670  0.48567419  0.45687016
   0.38286458  0.47735411  0.51550886
   0.44894076  0.43916132  0.49929613
   0.52100727  0.42601559  0.49895897
   0.57197527  0.46662364  0.44620717
   0.52770723  0.50394081  0.43264770
   0.52303447  0.44595958  0.41965598
   0.51380047  0.54518070  0.50867625
   0.56972993  0.54278277  0.58987860