   6   6   0   0
  0.4500000E+04  0.3000000E-08  0.3000000E-08  0.3000000E-08  0.0000000E+00
  1.000000000000000E-004
  CAR 
 unknown system                          
      1.78952018    -26.08695438  301     -6.29429447      1.00000000
    -26.087  0.0000E+00  0.0000E+00
    -25.994  0.0000E+00  0.0000E+00
    -25.901  0.0000E+00  0.0000E+00
    -25.808  0.0000E+00  0.0000E+00
    -25.715  0.0000E+00  0.0000E+00
    -25.622  0.0000E+00  0.0000E+00
    -25.529  0.0000E+00  0.0000E+00
    -25.437  0.0000E+00  0.0000E+00
    -25.344  0.0000E+00  0.0000E+00
    -25.251  0.7965E-17  0.7401E-18
    -25.158  0.1314E-14  0.1229E-15
    -25.065  0.1671E-12  0.1565E-13
    -24.972  0.1387E-10  0.1304E-11
    -24.879  0.7530E-09  0.7128E-10
    -24.786  0.2678E-07  0.2559E-08
    -24.693  0.6241E-06  0.6055E-07
    -24.600  0.9545E-05  0.9475E-06
    -24.507  0.9587E-04  0.9856E-05
    -24.414  0.6331E-03  0.6868E-04
    -24.321  0.2751E-02  0.3243E-03
    -24.229  0.7874E-02  0.1056E-02
    -24.136  0.1485E-01  0.2436E-02
    -24.043  0.1847E-01  0.4153E-02
    -23.950  0.1515E-01  0.5560E-02
    -23.857  0.8189E-02  0.6321E-02
    -23.764  0.2918E-02  0.6592E-02
    -23.671  0.6848E-03  0.6656E-02
    -23.578  0.1058E-03  0.6666E-02
    -23.485  0.1074E-04  0.6667E-02
    -23.392  0.7163E-06  0.6667E-02
    -23.299  0.3135E-07  0.6667E-02
    -23.206  0.8993E-09  0.6667E-02
    -23.113  0.1689E-10  0.6667E-02
    -23.021  0.2076E-12  0.6667E-02
    -22.928  0.1665E-14  0.6667E-02
    -22.835  0.7965E-17  0.6667E-02
    -22.742  0.0000E+00  0.6667E-02
    -22.649  0.0000E+00  0.6667E-02
    -22.556  0.0000E+00  0.6667E-02
    -22.463  0.0000E+00  0.6667E-02
    -22.370  0.0000E+00  0.6667E-02
    -22.277  0.0000E+00  0.6667E-02
    -22.184  0.0000E+00  0.6667E-02
    -22.091  0.0000E+00  0.6667E-02
    -21.998  0.0000E+00  0.6667E-02
    -21.905  0.0000E+00  0.6667E-02
    -21.813  0.0000E+00  0.6667E-02
    -21.720  0.0000E+00  0.6667E-02
    -21.627  0.0000E+00  0.6667E-02
    -21.534  0.0000E+00  0.6667E-02
    -21.441  0.0000E+00  0.6667E-02
    -21.348  0.0000E+00  0.6667E-02
    -21.255  0.0000E+00  0.6667E-02
    -21.162  0.0000E+00  0.6667E-02
    -21.069  0.0000E+00  0.6667E-02
    -20.976  0.0000E+00  0.6667E-02
    -20.883  0.0000E+00  0.6667E-02
    -20.790  0.0000E+00  0.6667E-02
    -20.698  0.0000E+00  0.6667E-02
    -20.605  0.0000E+00  0.6667E-02
    -20.512  0.0000E+00  0.6667E-02
    -20.419  0.0000E+00  0.6667E-02
    -20.326  0.0000E+00  0.6667E-02
    -20.233  0.0000E+00  0.6667E-02
    -20.140  0.0000E+00  0.6667E-02
    -20.047  0.0000E+00  0.6667E-02
    -19.954  0.0000E+00  0.6667E-02
    -19.861  0.0000E+00  0.6667E-02
    -19.768  0.0000E+00  0.6667E-02
    -19.675  0.0000E+00  0.6667E-02
    -19.582  0.0000E+00  0.6667E-02
    -19.490  0.0000E+00  0.6667E-02
    -19.397  0.0000E+00  0.6667E-02
    -19.304  0.0000E+00  0.6667E-02
    -19.211  0.0000E+00  0.6667E-02
    -19.118  0.0000E+00  0.6667E-02
    -19.025  0.7965E-17  0.6667E-02
    -18.932  0.1171E-14  0.6667E-02
    -18.839  0.1506E-12  0.6667E-02
    -18.746  0.1262E-10  0.6667E-02
    -18.653  0.6917E-09  0.6667E-02
    -18.560  0.2483E-07  0.6667E-02
    -18.467  0.5843E-06  0.6667E-02
    -18.374  0.9020E-05  0.6668E-02
    -18.282  0.9145E-04  0.6676E-02
    -18.189  0.6096E-03  0.6733E-02
    -18.096  0.2674E-02  0.6981E-02
    -18.003  0.7726E-02  0.7699E-02
    -17.910  0.1471E-01  0.9066E-02
    -17.817  0.1847E-01  0.1078E-01
    -17.724  0.1528E-01  0.1220E-01
    -17.631  0.8341E-02  0.1298E-01
    -17.538  0.3000E-02  0.1326E-01
    -17.445  0.7107E-03  0.1332E-01
    -17.352  0.1108E-03  0.1333E-01
    -17.259  0.1136E-04  0.1333E-01
    -17.166  0.7647E-06  0.1333E-01
    -17.074  0.3378E-07  0.1333E-01
    -16.981  0.9784E-09  0.1333E-01
    -16.888  0.1856E-10  0.1333E-01
    -16.795  0.2302E-12  0.1333E-01
    -16.702  0.1872E-14  0.1333E-01
    -16.609  0.7965E-17  0.1333E-01
    -16.516  0.0000E+00  0.1333E-01
    -16.423  0.0000E+00  0.1333E-01
    -16.330  0.0000E+00  0.1333E-01
    -16.237  0.0000E+00  0.1333E-01
    -16.144  0.0000E+00  0.1333E-01
    -16.051  0.0000E+00  0.1333E-01
    -15.959  0.0000E+00  0.1333E-01
    -15.866  0.0000E+00  0.1333E-01
    -15.773  0.0000E+00  0.1333E-01
    -15.680  0.0000E+00  0.1333E-01
    -15.587  0.0000E+00  0.1333E-01
    -15.494  0.0000E+00  0.1333E-01
    -15.401  0.0000E+00  0.1333E-01
    -15.308  0.0000E+00  0.1333E-01
    -15.215  0.0000E+00  0.1333E-01
    -15.122  0.0000E+00  0.1333E-01
    -15.029  0.0000E+00  0.1333E-01
    -14.936  0.0000E+00  0.1333E-01
    -14.843  0.0000E+00  0.1333E-01
    -14.751  0.0000E+00  0.1333E-01
    -14.658  0.0000E+00  0.1333E-01
    -14.565  0.0000E+00  0.1333E-01
    -14.472  0.0000E+00  0.1333E-01
    -14.379  0.0000E+00  0.1333E-01
    -14.286  0.0000E+00  0.1333E-01
    -14.193  0.0000E+00  0.1333E-01
    -14.100  0.0000E+00  0.1333E-01
    -14.007  0.0000E+00  0.1333E-01
    -13.914  0.0000E+00  0.1333E-01
    -13.821  0.0000E+00  0.1333E-01
    -13.728  0.0000E+00  0.1333E-01
    -13.635  0.3186E-16  0.1333E-01
    -13.543  0.5289E-14  0.1333E-01
    -13.450  0.5965E-12  0.1333E-01
    -13.357  0.4399E-10  0.1333E-01
    -13.264  0.2123E-08  0.1333E-01
    -13.171  0.6712E-07  0.1333E-01
    -13.078  0.1391E-05  0.1333E-01
    -12.985  0.1892E-04  0.1334E-01
    -12.892  0.1691E-03  0.1335E-01
    -12.799  0.9938E-03  0.1344E-01
    -12.706  0.3845E-02  0.1380E-01
    -12.613  0.9797E-02  0.1471E-01
    -12.520  0.1646E-01  0.1624E-01
    -12.427  0.1823E-01  0.1793E-01
    -12.335  0.1331E-01  0.1917E-01
    -12.242  0.6409E-02  0.1977E-01
    -12.149  0.2052E-02  0.1996E-01
    -12.056  0.5953E-03  0.2001E-01
    -11.963  0.1060E-02  0.2011E-01
    -11.870  0.3871E-02  0.2047E-01
    -11.777  0.9832E-02  0.2138E-01
    -11.684  0.1648E-01  0.2292E-01
    -11.591  0.1822E-01  0.2461E-01
    -11.498  0.1328E-01  0.2584E-01
    -11.405  0.6385E-02  0.2643E-01
    -11.312  0.2092E-02  0.2663E-01
    -11.220  0.9276E-03  0.2672E-01
    -11.127  0.2383E-02  0.2694E-01
    -11.034  0.7033E-02  0.2759E-01
    -10.941  0.1400E-01  0.2889E-01
    -10.848  0.1838E-01  0.3060E-01
    -10.755  0.1592E-01  0.3208E-01
    -10.662  0.9087E-02  0.3292E-01
    -10.569  0.3419E-02  0.3324E-01
    -10.476  0.8475E-03  0.3332E-01
    -10.383  0.1383E-03  0.3333E-01
    -10.290  0.1483E-04  0.3333E-01
    -10.197  0.1048E-05  0.3333E-01
    -10.104  0.1359E-06  0.3333E-01
    -10.012  0.1754E-05  0.3333E-01
     -9.919  0.2302E-04  0.3334E-01
     -9.826  0.1988E-03  0.3335E-01
     -9.733  0.1129E-02  0.3346E-01
     -9.640  0.4218E-02  0.3385E-01
     -9.547  0.1039E-01  0.3482E-01
     -9.454  0.1686E-01  0.3638E-01
     -9.361  0.1804E-01  0.3806E-01
     -9.268  0.1273E-01  0.3924E-01
     -9.175  0.5922E-02  0.3979E-01
     -9.082  0.1815E-02  0.3996E-01
     -8.989  0.3665E-03  0.4000E-01
     -8.896  0.5155E-04  0.4000E-01
     -8.804  0.3952E-04  0.4000E-01
     -8.711  0.2822E-03  0.4003E-01
     -8.618  0.1483E-02  0.4017E-01
     -8.525  0.5134E-02  0.4064E-01
     -8.432  0.1171E-01  0.4173E-01
     -8.339  0.1761E-01  0.4337E-01
     -8.246  0.1746E-01  0.4499E-01
     -8.153  0.1142E-01  0.4605E-01
     -8.060  0.4919E-02  0.4651E-01
     -7.967  0.1397E-02  0.4664E-01
     -7.874  0.2614E-03  0.4666E-01
     -7.781  0.3774E-04  0.4667E-01
     -7.688  0.6426E-04  0.4667E-01
     -7.596  0.4441E-03  0.4671E-01
     -7.503  0.2103E-02  0.4691E-01
     -7.410  0.6560E-02  0.4752E-01
     -7.317  0.1348E-01  0.4877E-01
     -7.224  0.1827E-01  0.5047E-01
     -7.131  0.1633E-01  0.5199E-01
     -7.038  0.9619E-02  0.5288E-01
     -6.945  0.3735E-02  0.5323E-01
     -6.852  0.9554E-03  0.5332E-01
     -6.759  0.1609E-03  0.5333E-01
     -6.666  0.1781E-04  0.5333E-01
     -6.573  0.1296E-05  0.5333E-01
     -6.481  0.6185E-07  0.5333E-01
     -6.388  0.1936E-08  0.5333E-01
     -6.295  0.3969E-10  0.5333E-01
     -6.202  0.5324E-12  0.5333E-01
     -6.109  0.4668E-14  0.5333E-01
     -6.016  0.3186E-16  0.5333E-01
     -5.923  0.0000E+00  0.5333E-01
     -5.830  0.0000E+00  0.5333E-01
     -5.737  0.0000E+00  0.5333E-01
     -5.644  0.0000E+00  0.5333E-01
     -5.551  0.0000E+00  0.5333E-01
     -5.458  0.0000E+00  0.5333E-01
     -5.365  0.0000E+00  0.5333E-01
     -5.273  0.0000E+00  0.5333E-01
     -5.180  0.0000E+00  0.5333E-01
     -5.087  0.0000E+00  0.5333E-01
     -4.994  0.0000E+00  0.5333E-01
     -4.901  0.0000E+00  0.5333E-01
     -4.808  0.0000E+00  0.5333E-01
     -4.715  0.0000E+00  0.5333E-01
     -4.622  0.0000E+00  0.5333E-01
     -4.529  0.0000E+00  0.5333E-01
     -4.436  0.0000E+00  0.5333E-01
     -4.343  0.0000E+00  0.5333E-01
     -4.250  0.0000E+00  0.5333E-01
     -4.157  0.0000E+00  0.5333E-01
     -4.065  0.0000E+00  0.5333E-01
     -3.972  0.0000E+00  0.5333E-01
     -3.879  0.0000E+00  0.5333E-01
     -3.786  0.0000E+00  0.5333E-01
     -3.693  0.0000E+00  0.5333E-01
     -3.600  0.0000E+00  0.5333E-01
     -3.507  0.0000E+00  0.5333E-01
     -3.414  0.0000E+00  0.5333E-01
     -3.321  0.0000E+00  0.5333E-01
     -3.228  0.0000E+00  0.5333E-01
     -3.135  0.0000E+00  0.5333E-01
     -3.042  0.0000E+00  0.5333E-01
     -2.949  0.0000E+00  0.5333E-01
     -2.857  0.1713E-15  0.5333E-01
     -2.764  0.2577E-13  0.5333E-01
     -2.671  0.2531E-11  0.5333E-01
     -2.578  0.1626E-09  0.5333E-01
     -2.485  0.6838E-08  0.5333E-01
     -2.392  0.1884E-06  0.5333E-01
     -2.299  0.3405E-05  0.5333E-01
     -2.206  0.4040E-04  0.5334E-01
     -2.113  0.3150E-03  0.5337E-01
     -2.020  0.1616E-02  0.5352E-01
     -1.927  0.5456E-02  0.5402E-01
     -1.834  0.1214E-01  0.5515E-01
     -1.741  0.1781E-01  0.5681E-01
     -1.649  0.1722E-01  0.5841E-01
     -1.556  0.1098E-01  0.5943E-01
     -1.463  0.4619E-02  0.5986E-01
     -1.370  0.1303E-02  0.5998E-01
     -1.277  0.4403E-03  0.6002E-01
     -1.184  0.1204E-02  0.6013E-01
     -1.091  0.4450E-02  0.6054E-01
     -0.998  0.1139E-01  0.6160E-01
     -0.905  0.2041E-01  0.6350E-01
     -0.812  0.2717E-01  0.6602E-01
     -0.719  0.2860E-01  0.6868E-01
     -0.626  0.2429E-01  0.7094E-01
     -0.534  0.1637E-01  0.7246E-01
     -0.441  0.1022E-01  0.7341E-01
     -0.348  0.1052E-01  0.7439E-01
     -0.255  0.1565E-01  0.7584E-01
     -0.162  0.1854E-01  0.7756E-01
     -0.069  0.1486E-01  0.7894E-01
      0.024  0.7875E-02  0.7968E-01
      0.117  0.2751E-02  0.7993E-01
      0.210  0.6330E-03  0.7999E-01
      0.303  0.9586E-04  0.8000E-01
      0.396  0.9544E-05  0.8000E-01
      0.489  0.6241E-06  0.8000E-01
      0.582  0.2677E-07  0.8000E-01
      0.674  0.7529E-09  0.8000E-01
      0.767  0.1386E-10  0.8000E-01
      0.860  0.1670E-12  0.8000E-01
      0.953  0.1314E-14  0.8000E-01
      1.046  0.7965E-17  0.8000E-01
      1.139  0.0000E+00  0.8000E-01
      1.232  0.0000E+00  0.8000E-01
      1.325  0.0000E+00  0.8000E-01
      1.418  0.0000E+00  0.8000E-01
      1.511  0.0000E+00  0.8000E-01
      1.604  0.0000E+00  0.8000E-01
      1.697  0.0000E+00  0.8000E-01
      1.790  0.0000E+00  0.8000E-01
