    6    6  300    1
  0.4500000E+04  0.3000000E-08  0.3000000E-08  0.3000000E-08  0.0000000E+00
  1.000000000000000E-004
  CAR 
 unknown system                          
     16      4     12
 
  0.2500000E+00  0.2500000E+00  0.2500000E+00  0.2500000E+00
    1      -24.086954   1.000000
    2      -17.859124   1.000000
    3      -12.497621   1.000000
    4      -11.661771   1.000000
    5      -10.879950   1.000000
    6       -9.438861   1.000000
    7       -8.340831   1.000000
    8       -7.248986   1.000000
    9       -1.748939   0.000000
   10       -0.891801   0.000000
   11       -0.688381   0.000000
   12       -0.210485   0.000000
 
 -0.2500000E+00  0.2500000E+00  0.2500000E+00  0.2500000E+00
    1      -24.086954   1.000000
    2      -17.859125   1.000000
    3      -12.497625   1.000000
    4      -11.661770   1.000000
    5      -10.879944   1.000000
    6       -9.438862   1.000000
    7       -8.340833   1.000000
    8       -7.248990   1.000000
    9       -1.748936   0.000000
   10       -0.891800   0.000000
   11       -0.688384   0.000000
   12       -0.210487   0.000000
 
  0.2500000E+00 -0.2500000E+00  0.2500000E+00  0.2500000E+00
    1      -24.086954   1.000000
    2      -17.859124   1.000000
    3      -12.497623   1.000000
    4      -11.661776   1.000000
    5      -10.879938   1.000000
    6       -9.438861   1.000000
    7       -8.340836   1.000000
    8       -7.248993   1.000000
    9       -1.748943   0.000000
   10       -0.891808   0.000000
   11       -0.688389   0.000000
   12       -0.210480   0.000000
 
 -0.2500000E+00 -0.2500000E+00  0.2500000E+00  0.2500000E+00
    1      -24.086954   1.000000
    2      -17.859124   1.000000
    3      -12.497623   1.000000
    4      -11.661777   1.000000
    5      -10.879939   1.000000
    6       -9.438861   1.000000
    7       -8.340835   1.000000
    8       -7.248994   1.000000
    9       -1.748943   0.000000
   10       -0.891808   0.000000
   11       -0.688387   0.000000
   12       -0.210480   0.000000
