       N       E                     dE             d eps       ncg     rms          rms(c)
DAV:   1     0.107277342064E+03    0.10728E+03   -0.21293E+03   160   0.366E+02
DAV:   2     0.852608435567E+00   -0.10642E+03   -0.10250E+03   192   0.985E+01
DAV:   3    -0.333004593189E+02   -0.34153E+02   -0.34070E+02   120   0.877E+01
DAV:   4    -0.367120794475E+02   -0.34116E+01   -0.33808E+01   128   0.305E+01
DAV:   5    -0.368211438057E+02   -0.10906E+00   -0.10678E+00   132   0.548E+00    0.103E+01
DAV:   6    -0.346036037576E+02    0.22175E+01   -0.34134E+00   112   0.127E+01    0.557E+00
DAV:   7    -0.340001219481E+02    0.60348E+00   -0.15965E+00   128   0.845E+00    0.195E+00
DAV:   8    -0.339474395544E+02    0.52682E-01   -0.91276E-02   128   0.267E+00    0.729E-01
DAV:   9    -0.339341104644E+02    0.13329E-01   -0.18416E-02   128   0.120E+00    0.211E-01
DAV:  10    -0.339337355822E+02    0.37488E-03   -0.36101E-03   128   0.517E-01    0.118E-01
DAV:  11    -0.339349105012E+02   -0.11749E-02   -0.10077E-03   128   0.253E-01    0.780E-02
DAV:  12    -0.339392004115E+02   -0.42899E-02   -0.22395E-03   128   0.309E-01    0.390E-02
DAV:  13    -0.339447144431E+02   -0.55140E-02   -0.12647E-03   160   0.190E-01    0.271E-02
DAV:  14    -0.339479573916E+02   -0.32429E-02   -0.32789E-04   128   0.102E-01    0.150E-02
DAV:  15    -0.339503277025E+02   -0.23703E-02   -0.18989E-04   128   0.689E-02    0.873E-03
DAV:  16    -0.339518422681E+02   -0.15146E-02   -0.13416E-04   128   0.526E-02    0.519E-03
DAV:  17    -0.339527784846E+02   -0.93622E-03   -0.50726E-05    96   0.375E-02    0.282E-03
DAV:  18    -0.339529727379E+02   -0.19425E-03   -0.16251E-05    96   0.201E-02    0.168E-03
DAV:  19    -0.339531259521E+02   -0.15321E-03   -0.87628E-06    96   0.134E-02    0.946E-04
DAV:  20    -0.339532022116E+02   -0.76260E-04   -0.32633E-06    96   0.102E-02
   1 F= -.33953202E+02 E0= -.33953202E+02  d E =-.339532E+02
       N       E                     dE             d eps       ncg     rms          rms(c)
DAV:   1    -0.339532316251E+02   -0.10567E-03   -0.18737E-06    96   0.996E-03    0.391E-04
DAV:   2    -0.339532381985E+02   -0.65734E-05   -0.31784E-07    96   0.375E-03    0.269E-04
DAV:   3    -0.339532455543E+02   -0.73558E-05   -0.79424E-08    96   0.158E-03    0.180E-04
DAV:   4    -0.339532549931E+02   -0.94388E-05   -0.33764E-08    96   0.111E-03    0.928E-05
DAV:   5    -0.339532596149E+02   -0.46217E-05   -0.15997E-08    96   0.637E-04    0.704E-05
DAV:   6    -0.339532643004E+02   -0.46856E-05   -0.13736E-08    80   0.550E-04
   2 F= -.33953264E+02 E0= -.33953264E+02  d E =-.620888E-04
       N       E                     dE             d eps       ncg     rms          rms(c)
DAV:   1    -0.339532652844E+02   -0.56696E-05   -0.35314E-06    96   0.174E-02    0.425E-04
DAV:   2    -0.339532655377E+02   -0.25324E-06   -0.18354E-07    96   0.418E-03    0.252E-04
DAV:   3    -0.339532657816E+02   -0.24396E-06   -0.33199E-08    48   0.126E-03    0.140E-04
DAV:   4    -0.339532660042E+02   -0.22253E-06   -0.18581E-08    64   0.593E-04    0.449E-05
DAV:   5    -0.339532661029E+02   -0.98758E-07   -0.15710E-08    48   0.301E-04    0.291E-05
DAV:   6    -0.339532661903E+02   -0.87385E-07   -0.15392E-08    48   0.177E-04
   3 F= -.33953266E+02 E0= -.33953266E+02  d E =-.188987E-05
       N       E                     dE             d eps       ncg     rms          rms(c)
DAV:   1    -0.339532663844E+02   -0.28151E-06   -0.79815E-06    48   0.262E-02    0.640E-04
DAV:   2    -0.339532664409E+02   -0.56494E-07   -0.40536E-07    48   0.630E-03    0.381E-04
DAV:   3    -0.339532664751E+02   -0.34152E-07   -0.61978E-08    48   0.188E-03    0.206E-04
DAV:   4    -0.339532665074E+02   -0.32299E-07   -0.28089E-08    48   0.852E-04    0.618E-05
DAV:   5    -0.339532665242E+02   -0.16828E-07   -0.21929E-08    48   0.403E-04    0.432E-05
DAV:   6    -0.339532665402E+02   -0.16034E-07   -0.21440E-08    48   0.213E-04
   4 F= -.33953267E+02 E0= -.33953267E+02  d E =-.349928E-06
       N       E                     dE             d eps       ncg     rms          rms(c)
DAV:   1    -0.339532667115E+02   -0.18727E-06   -0.13679E-05    48   0.342E-02    0.835E-04
DAV:   2    -0.339532667735E+02   -0.62049E-07   -0.69089E-07    48   0.823E-03    0.499E-04
DAV:   3    -0.339532667939E+02   -0.20342E-07   -0.10381E-07    48   0.247E-03    0.279E-04
DAV:   4    -0.339532668066E+02   -0.12757E-07   -0.44687E-08    48   0.112E-03    0.869E-05
DAV:   5    -0.339532668117E+02   -0.50916E-08   -0.32581E-08    48   0.528E-04    0.574E-05
DAV:   6    -0.339532668156E+02   -0.39233E-08   -0.29007E-08    48   0.279E-04
   5 F= -.33953267E+02 E0= -.33953267E+02  d E =-.275398E-06
       N       E                     dE             d eps       ncg     rms          rms(c)
DAV:   1    -0.339532669915E+02   -0.17983E-06   -0.20871E-05    48   0.422E-02    0.103E-03
DAV:   2    -0.339532670767E+02   -0.85173E-07   -0.10449E-06    48   0.102E-02    0.617E-04
DAV:   3    -0.339532670976E+02   -0.20849E-07   -0.14709E-07    48   0.305E-03    0.346E-04
DAV:   4    -0.339532671051E+02   -0.75302E-08   -0.54426E-08    48   0.138E-03    0.109E-04
DAV:   5    -0.339532671065E+02   -0.14502E-08   -0.35284E-08    48   0.652E-04    0.712E-05
DAV:   6    -0.339532671069E+02   -0.31650E-09   -0.29858E-08    48   0.345E-04
   6 F= -.33953267E+02 E0= -.33953267E+02  d E =-.291226E-06
       N       E                     dE             d eps       ncg     rms          rms(c)
DAV:   1    -0.339532672966E+02   -0.19004E-06   -0.30541E-05    48   0.512E-02    0.127E-03
DAV:   2    -0.339532674219E+02   -0.12532E-06   -0.15216E-06    48   0.123E-02    0.752E-04
DAV:   3    -0.339532674510E+02   -0.29054E-07   -0.20421E-07    48   0.371E-03    0.416E-04
DAV:   4    -0.339532674597E+02   -0.87412E-08   -0.67758E-08    48   0.168E-03    0.130E-04
DAV:   5    -0.339532674601E+02   -0.44133E-09   -0.39589E-08    48   0.795E-04    0.854E-05
DAV:   6    -0.339532674602E+02   -0.21373E-10   -0.31608E-08    48   0.420E-04
   7 F= -.33953267E+02 E0= -.33953267E+02  d E =-.353297E-06
       N       E                     dE             d eps       ncg     rms          rms(c)
DAV:   1    -0.339532676359E+02   -0.17577E-06   -0.51569E-05    48   0.667E-02    0.166E-03
DAV:   2    -0.339532678471E+02   -0.21117E-06   -0.25554E-06    48   0.160E-02    0.984E-04
DAV:   3    -0.339532678957E+02   -0.48633E-07   -0.32881E-07    48   0.484E-03    0.549E-04
DAV:   4    -0.339532679103E+02   -0.14608E-07   -0.96480E-08    48   0.219E-03    0.175E-04
DAV:   5    -0.339532679113E+02   -0.10168E-08   -0.48343E-08    48   0.104E-03    0.111E-04
DAV:   6    -0.339532679107E+02    0.62937E-09   -0.34748E-08    48   0.549E-04
   8 F= -.33953268E+02 E0= -.33953268E+02  d E =-.450545E-06
       N       E                     dE             d eps       ncg     rms          rms(c)
DAV:   1    -0.339532680307E+02   -0.11938E-06   -0.83792E-05    48   0.850E-02    0.213E-03
DAV:   2    -0.339532683732E+02   -0.34251E-06   -0.41433E-06    48   0.204E-02    0.126E-03
DAV:   3    -0.339532684501E+02   -0.76846E-07   -0.52224E-07    48   0.620E-03    0.713E-04
DAV:   4    -0.339532684737E+02   -0.23607E-07   -0.14115E-07    48   0.281E-03    0.233E-04
DAV:   5    -0.339532684757E+02   -0.20300E-08   -0.61644E-08    48   0.133E-03    0.143E-04
DAV:   6    -0.339532684755E+02    0.16803E-09   -0.39291E-08    48   0.706E-04
   9 F= -.33953268E+02 E0= -.33953268E+02  d E =-.564835E-06
       N       E                     dE             d eps       ncg     rms          rms(c)
DAV:   1    -0.339532690535E+02   -0.57782E-06   -0.14019E-04    96   0.108E-01    0.279E-03
DAV:   2    -0.339532690848E+02   -0.31264E-07   -0.16056E-06    48   0.108E-02    0.169E-03
DAV:   3    -0.339532691490E+02   -0.64209E-07   -0.23249E-07    48   0.417E-03    0.510E-04
DAV:   4    -0.339532691623E+02   -0.13293E-07   -0.81008E-08    48   0.188E-03    0.179E-04
DAV:   5    -0.339532691634E+02   -0.10693E-08   -0.44219E-08    48   0.885E-04    0.753E-05
DAV:   6    -0.339532691655E+02   -0.20923E-08   -0.35642E-08    48   0.461E-04
  10 F= -.33953269E+02 E0= -.33953269E+02  d E =-.689914E-06
       N       E                     dE             d eps       ncg     rms          rms(c)
DAV:   1    -0.339532699990E+02   -0.83561E-06   -0.21181E-04    96   0.132E-01    0.341E-03
DAV:   2    -0.339532700133E+02   -0.14343E-07   -0.23682E-06    48   0.133E-02    0.213E-03
DAV:   3    -0.339532701029E+02   -0.89604E-07   -0.36330E-07    48   0.543E-03    0.670E-04
DAV:   4    -0.339532701267E+02   -0.23799E-07   -0.11334E-07    48   0.247E-03    0.282E-04
DAV:   5    -0.339532701326E+02   -0.59297E-08   -0.51713E-08    48   0.118E-03    0.103E-04
DAV:   6    -0.339532701375E+02   -0.48226E-08   -0.38272E-08    48   0.601E-04
  11 F= -.33953270E+02 E0= -.33953270E+02  d E =-.972019E-06
       N       E                     dE             d eps       ncg     rms          rms(c)
DAV:   1    -0.339532707632E+02   -0.63060E-06   -0.39725E-04    96   0.185E-01    0.527E-03
DAV:   2    -0.339532707549E+02    0.83146E-08   -0.47534E-06    48   0.191E-02    0.313E-03
DAV:   3    -0.339532709199E+02   -0.16498E-06   -0.79602E-07    48   0.834E-03    0.951E-04
DAV:   4    -0.339532709581E+02   -0.38147E-07   -0.20778E-07    48   0.364E-03    0.420E-04
DAV:   5    -0.339532709598E+02   -0.17133E-08   -0.68440E-08    48   0.174E-03    0.132E-04
DAV:   6    -0.339532709646E+02   -0.47977E-08   -0.45440E-08    48   0.862E-04
  12 F= -.33953271E+02 E0= -.33953271E+02  d E =-.827097E-06
       N       E                     dE             d eps       ncg     rms          rms(c)
DAV:   1    -0.339532715149E+02   -0.55517E-06   -0.32218E-05    48   0.524E-02    0.232E-03
DAV:   2    -0.339532715310E+02   -0.16014E-07   -0.13839E-06    48   0.118E-02    0.135E-03
DAV:   3    -0.339532715180E+02    0.12940E-07   -0.20218E-07    48   0.454E-03    0.492E-04
DAV:   4    -0.339532715349E+02   -0.16932E-07   -0.81219E-08    48   0.205E-03    0.255E-04
DAV:   5    -0.339532715491E+02   -0.14134E-07   -0.38596E-08    48   0.932E-04    0.729E-05
DAV:   6    -0.339532715573E+02   -0.82555E-08   -0.32689E-08    48   0.375E-04
  13 F= -.33953272E+02 E0= -.33953272E+02  d E =-.592764E-06
       N       E                     dE             d eps       ncg     rms          rms(c)
DAV:   1    -0.339532715814E+02   -0.32301E-07   -0.12174E-07    48   0.292E-03    0.101E-04
DAV:   2    -0.339532715865E+02   -0.50934E-08   -0.34295E-08    48   0.666E-04    0.647E-05
DAV:   3    -0.339532715922E+02   -0.56996E-08   -0.30135E-08    48   0.227E-04    0.272E-05
DAV:   4    -0.339532715960E+02   -0.38217E-08   -0.29379E-08    48   0.105E-04    0.150E-05
DAV:   5    -0.339532715997E+02   -0.36628E-08   -0.28756E-08    48   0.549E-05    0.480E-06
DAV:   6    -0.339532716021E+02   -0.24332E-08   -0.28414E-08    48   0.303E-05
  14 F= -.33953272E+02 E0= -.33953272E+02  d E =-.447563E-07
       N       E                     dE             d eps       ncg     rms          rms(c)
DAV:   1    -0.339532716341E+02   -0.34476E-07   -0.32702E-07    48   0.529E-03    0.166E-04
DAV:   2    -0.339532716374E+02   -0.32594E-08   -0.41825E-08    48   0.121E-03    0.105E-04
DAV:   3    -0.339532716391E+02   -0.17071E-08   -0.29175E-08    48   0.384E-04    0.500E-05
DAV:   4    -0.339532716397E+02   -0.62164E-09   -0.27925E-08    48   0.185E-04    0.231E-05
DAV:   5    -0.339532716396E+02    0.12642E-09   -0.27496E-08    48   0.903E-05    0.968E-06
DAV:   6    -0.339532716399E+02   -0.32810E-09   -0.27237E-08    48   0.416E-05
  15 F= -.33953272E+02 E0= -.33953272E+02  d E =-.378328E-07
       N       E                     dE             d eps       ncg     rms          rms(c)
DAV:   1    -0.339532716757E+02   -0.36070E-07   -0.52358E-07    48   0.682E-03    0.200E-04
DAV:   2    -0.339532716791E+02   -0.34768E-08   -0.50647E-08    48   0.157E-03    0.126E-04
DAV:   3    -0.339532716804E+02   -0.12639E-08   -0.29524E-08    48   0.489E-04    0.617E-05
DAV:   4    -0.339532716801E+02    0.30263E-09   -0.27592E-08    48   0.234E-04    0.271E-05
DAV:   5    -0.339532716799E+02    0.24465E-09   -0.27048E-08    48   0.112E-04    0.126E-05
DAV:   6    -0.339532716797E+02    0.20304E-09   -0.26862E-08    48   0.544E-05
  16 F= -.33953272E+02 E0= -.33953272E+02  d E =-.397317E-07
       N       E                     dE             d eps       ncg     rms          rms(c)
DAV:   1    -0.339532717232E+02   -0.43393E-07   -0.65321E-07    48   0.763E-03    0.212E-04
DAV:   2    -0.339532717268E+02   -0.35093E-08   -0.57026E-08    48   0.177E-03    0.128E-04
DAV:   3    -0.339532717280E+02   -0.12510E-08   -0.30203E-08    48   0.546E-04    0.598E-05
DAV:   4    -0.339532717280E+02   -0.38654E-10   -0.27540E-08    48   0.254E-04    0.217E-05
DAV:   5    -0.339532717277E+02    0.34106E-09   -0.26914E-08    48   0.119E-04    0.128E-05
DAV:   6    -0.339532717276E+02    0.14120E-09   -0.26690E-08    48   0.648E-05
  17 F= -.33953272E+02 E0= -.33953272E+02  d E =-.479124E-07
       N       E                     dE             d eps       ncg     rms          rms(c)
DAV:   1    -0.339532717853E+02   -0.57577E-07   -0.80691E-07    48   0.843E-03    0.232E-04
DAV:   2    -0.339532717882E+02   -0.29618E-08   -0.64701E-08    48   0.198E-03    0.134E-04
DAV:   3    -0.339532717895E+02   -0.12294E-08   -0.31408E-08    48   0.615E-04    0.685E-05
DAV:   4    -0.339532717897E+02   -0.21146E-09   -0.27744E-08    48   0.283E-04    0.220E-05
DAV:   5    -0.339532717897E+02   -0.44110E-10   -0.26932E-08    48   0.135E-04    0.129E-05
DAV:   6    -0.339532717898E+02   -0.95270E-10   -0.26703E-08    48   0.736E-05
  18 F= -.33953272E+02 E0= -.33953272E+02  d E =-.622601E-07
       N       E                     dE             d eps       ncg     rms          rms(c)
DAV:   1    -0.339532718620E+02   -0.72249E-07   -0.10858E-06    48   0.973E-03    0.271E-04
DAV:   2    -0.339532718646E+02   -0.26096E-08   -0.78101E-08    48   0.228E-03    0.161E-04
DAV:   3    -0.339532718660E+02   -0.14024E-08   -0.33399E-08    48   0.728E-04    0.884E-05
DAV:   4    -0.339532718664E+02   -0.43246E-09   -0.28218E-08    48   0.337E-04    0.331E-05
DAV:   5    -0.339532718667E+02   -0.24284E-09   -0.27007E-08    48   0.161E-04    0.157E-05
DAV:   6    -0.339532718667E+02    0.15689E-10   -0.26745E-08    48   0.876E-05
  19 F= -.33953272E+02 E0= -.33953272E+02  d E =-.768256E-07
       N       E                     dE             d eps       ncg     rms          rms(c)
DAV:   1    -0.339532719558E+02   -0.89115E-07   -0.18301E-06    48   0.126E-02    0.356E-04
DAV:   2    -0.339532719597E+02   -0.38882E-08   -0.11376E-07    48   0.296E-03    0.217E-04
DAV:   3    -0.339532719615E+02   -0.18113E-08   -0.38181E-08    48   0.958E-04    0.121E-04
DAV:   4    -0.339532719625E+02   -0.98021E-09   -0.29399E-08    48   0.443E-04    0.485E-05
DAV:   5    -0.339532719628E+02   -0.35743E-09   -0.27366E-08    48   0.211E-04    0.212E-05
DAV:   6    -0.339532719631E+02   -0.26876E-09   -0.26835E-08    48   0.114E-04
  20 F= -.33953272E+02 E0= -.33953272E+02  d E =-.964370E-07
       N       E                     dE             d eps       ncg     rms          rms(c)
DAV:   1    -0.339532720673E+02   -0.10444E-06   -0.29574E-06    48   0.162E-02    0.450E-04
DAV:   2    -0.339532720751E+02   -0.78301E-08   -0.16892E-07    48   0.379E-03    0.270E-04
DAV:   3    -0.339532720786E+02   -0.35386E-08   -0.45420E-08    48   0.121E-03    0.149E-04
DAV:   4    -0.339532720799E+02   -0.12365E-08   -0.31129E-08    48   0.561E-04    0.569E-05
DAV:   5    -0.339532720806E+02   -0.68803E-09   -0.27899E-08    48   0.268E-04    0.265E-05
DAV:   6    -0.339532720806E+02   -0.30468E-10   -0.27076E-08    48   0.145E-04
  21 F= -.33953272E+02 E0= -.33953272E+02  d E =-.117495E-06
       N       E                     dE             d eps       ncg     rms          rms(c)
DAV:   1    -0.339532722088E+02   -0.12823E-06   -0.47375E-06    48   0.206E-02    0.566E-04
DAV:   2    -0.339532722247E+02   -0.15896E-07   -0.25689E-07    48   0.485E-03    0.330E-04
DAV:   3    -0.339532722310E+02   -0.63244E-08   -0.56159E-08    48   0.152E-03    0.174E-04
DAV:   4    -0.339532722330E+02   -0.19606E-08   -0.33757E-08    48   0.700E-04    0.579E-05
DAV:   5    -0.339532722330E+02   -0.33197E-10   -0.28795E-08    48   0.334E-04    0.319E-05
DAV:   6    -0.339532722331E+02   -0.12028E-09   -0.27473E-08    48   0.182E-04
  22 F= -.33953272E+02 E0= -.33953272E+02  d E =-.152536E-06
       N       E                     dE             d eps       ncg     rms          rms(c)
DAV:   1    -0.339532723885E+02   -0.15553E-06   -0.78436E-06    48   0.267E-02    0.731E-04
DAV:   2    -0.339532724172E+02   -0.28725E-07   -0.40899E-07    48   0.627E-03    0.426E-04
DAV:   3    -0.339532724279E+02   -0.10665E-07   -0.73860E-08    48   0.194E-03    0.211E-04
DAV:   4    -0.339532724307E+02   -0.27549E-08   -0.38130E-08    48   0.894E-04    0.666E-05
DAV:   5    -0.339532724304E+02    0.30877E-09   -0.30322E-08    48   0.424E-04    0.412E-05
DAV:   6    -0.339532724301E+02    0.28081E-09   -0.28125E-08    48   0.232E-04
  23 F= -.33953272E+02 E0= -.33953272E+02  d E =-.196961E-06
       N       E                     dE             d eps       ncg     rms          rms(c)
DAV:   1    -0.339532726035E+02   -0.17316E-06   -0.12239E-05    48   0.334E-02    0.913E-04
DAV:   2    -0.339532726479E+02   -0.44335E-07   -0.62503E-07    48   0.784E-03    0.532E-04
DAV:   3    -0.339532726642E+02   -0.16392E-07   -0.10075E-07    48   0.242E-03    0.264E-04
DAV:   4    -0.339532726684E+02   -0.41534E-08   -0.44711E-08    48   0.112E-03    0.834E-05
DAV:   5    -0.339532726682E+02    0.17826E-09   -0.32468E-08    48   0.530E-04    0.515E-05
DAV:   6    -0.339532726680E+02    0.27080E-09   -0.29058E-08    48   0.290E-04
  24 F= -.33953273E+02 E0= -.33953273E+02  d E =-.237872E-06
       N       E                     dE             d eps       ncg     rms          rms(c)
DAV:   1    -0.339532728720E+02   -0.20381E-06   -0.17692E-05    48   0.399E-02    0.109E-03
DAV:   2    -0.339532729337E+02   -0.61673E-07   -0.89416E-07    48   0.940E-03    0.637E-04
DAV:   3    -0.339532729560E+02   -0.22334E-07   -0.13830E-07    48   0.294E-03    0.338E-04
DAV:   4    -0.339532729629E+02   -0.68690E-08   -0.53710E-08    48   0.136E-03    0.114E-04
DAV:   5    -0.339532729638E+02   -0.92859E-09   -0.35148E-08    48   0.648E-04    0.623E-05
DAV:   6    -0.339532729639E+02   -0.74351E-10   -0.30063E-08    48   0.351E-04
  25 F= -.33953273E+02 E0= -.33953273E+02  d E =-.295963E-06
       N       E                     dE             d eps       ncg     rms          rms(c)
DAV:   1    -0.339532731850E+02   -0.22112E-06   -0.26666E-05    48   0.489E-02    0.134E-03
DAV:   2    -0.339532732762E+02   -0.91205E-07   -0.13346E-06    48   0.115E-02    0.791E-04
DAV:   3    -0.339532733084E+02   -0.32250E-07   -0.19732E-07    48   0.364E-03    0.433E-04
DAV:   4    -0.339532733188E+02   -0.10352E-07   -0.68020E-08    48   0.168E-03    0.155E-04
DAV:   5    -0.339532733205E+02   -0.17587E-08   -0.39199E-08    48   0.801E-04    0.783E-05
DAV:   6    -0.339532733209E+02   -0.40518E-09   -0.31517E-08    48   0.434E-04
  26 F= -.33953273E+02 E0= -.33953273E+02  d E =-.357015E-06
       N       E                     dE             d eps       ncg     rms          rms(c)
DAV:   1    -0.339532735465E+02   -0.22595E-06   -0.40930E-05    48   0.609E-02    0.166E-03
DAV:   2    -0.339532736955E+02   -0.14902E-06   -0.20398E-06    48   0.143E-02    0.964E-04
DAV:   3    -0.339532737452E+02   -0.49716E-07   -0.28181E-07    48   0.447E-03    0.503E-04
DAV:   4    -0.339532737599E+02   -0.14715E-07   -0.87838E-08    48   0.206E-03    0.164E-04
DAV:   5    -0.339532737610E+02   -0.10823E-08   -0.45616E-08    48   0.980E-04    0.946E-05
DAV:   6    -0.339532737612E+02   -0.15325E-09   -0.33849E-08    48   0.531E-04
  27 F= -.33953274E+02 E0= -.33953274E+02  d E =-.440234E-06
       N       E                     dE             d eps       ncg     rms          rms(c)
DAV:   1    -0.339532739613E+02   -0.20034E-06   -0.62377E-05    48   0.753E-02    0.204E-03
DAV:   2    -0.339532741943E+02   -0.23293E-06   -0.30982E-06    48   0.177E-02    0.119E-03
DAV:   3    -0.339532742669E+02   -0.72635E-07   -0.41046E-07    48   0.551E-03    0.608E-04
DAV:   4    -0.339532742881E+02   -0.21158E-07   -0.11834E-07    48   0.254E-03    0.194E-04
DAV:   5    -0.339532742894E+02   -0.13254E-08   -0.55107E-08    48   0.120E-03    0.117E-04
DAV:   6    -0.339532742892E+02    0.20418E-09   -0.37293E-08    48   0.653E-04
  28 F= -.33953274E+02 E0= -.33953274E+02  d E =-.528029E-06
       N       E                     dE             d eps       ncg     rms          rms(c)
DAV:   1    -0.339532744661E+02   -0.17667E-06   -0.86877E-05    48   0.882E-02    0.241E-03
DAV:   2    -0.339532747874E+02   -0.32132E-06   -0.43141E-06    48   0.208E-02    0.142E-03
DAV:   3    -0.339532748819E+02   -0.94525E-07   -0.58227E-07    48   0.658E-03    0.784E-04
DAV:   4    -0.339532749134E+02   -0.31475E-07   -0.15941E-07    48   0.304E-03    0.281E-04
DAV:   5    -0.339532749177E+02   -0.42792E-08   -0.66207E-08    48   0.145E-03    0.142E-04
DAV:   6    -0.339532749187E+02   -0.10173E-08   -0.41150E-08    48   0.778E-04
  29 F= -.33953275E+02 E0= -.33953275E+02  d E =-.629492E-06
       N       E                     dE             d eps       ncg     rms          rms(c)
DAV:   1    -0.339532749739E+02   -0.56213E-07   -0.13126E-04    64   0.109E-01    0.296E-03
DAV:   2    -0.339532754813E+02   -0.50745E-06   -0.65273E-06    48   0.258E-02    0.172E-03
DAV:   3    -0.339532756237E+02   -0.14239E-06   -0.84117E-07    48   0.803E-03    0.904E-04
DAV:   4    -0.339532756659E+02   -0.42170E-07   -0.21884E-07    48   0.369E-03    0.295E-04
DAV:   5    -0.339532756693E+02   -0.34606E-08   -0.84943E-08    48   0.175E-03    0.172E-04
DAV:   6    -0.339532756694E+02   -0.11596E-10   -0.47370E-08    48   0.943E-04
  30 F= -.33953276E+02 E0= -.33953276E+02  d E =-.750674E-06
       N       E                     dE             d eps       ncg     rms          rms(c)
DAV:   1    -0.339532763950E+02   -0.72562E-06   -0.19156E-04    96   0.128E-01    0.355E-03
DAV:   2    -0.339532763804E+02    0.14569E-07   -0.21556E-06    48   0.130E-02    0.216E-03
DAV:   3    -0.339532764939E+02   -0.11345E-06   -0.34529E-07    48   0.523E-03    0.605E-04
DAV:   4    -0.339532765137E+02   -0.19894E-07   -0.10777E-07    48   0.236E-03    0.241E-04
DAV:   5    -0.339532765176E+02   -0.38709E-08   -0.52948E-08    48   0.117E-03    0.112E-04
DAV:   6    -0.339532765224E+02   -0.47389E-08   -0.39266E-08    48   0.621E-04
  31 F= -.33953277E+02 E0= -.33953277E+02  d E =-.852997E-06
       N       E                     dE             d eps       ncg     rms          rms(c)
DAV:   1    -0.339532772330E+02   -0.71535E-06   -0.29898E-04    96   0.162E-01    0.458E-03
DAV:   2    -0.339532772475E+02   -0.14558E-07   -0.34668E-06    48   0.164E-02    0.271E-03
DAV:   3    -0.339532774128E+02   -0.16523E-06   -0.51196E-07    48   0.653E-03    0.771E-04
DAV:   4    -0.339532774443E+02   -0.31530E-07   -0.14652E-07    48   0.288E-03    0.266E-04
DAV:   5    -0.339532774470E+02   -0.26696E-08   -0.60780E-08    48   0.137E-03    0.127E-04
DAV:   6    -0.339532774516E+02   -0.46682E-08   -0.42737E-08    48   0.746E-04
  32 F= -.33953277E+02 E0= -.33953277E+02  d E =-.929270E-06
       N       E                     dE             d eps       ncg     rms          rms(c)
DAV:   1    -0.339532777901E+02   -0.34311E-06   -0.40695E-04    96   0.184E-01    0.565E-03
DAV:   2    -0.339532775544E+02    0.23562E-06   -0.45606E-06    48   0.196E-02    0.353E-03
DAV:   3    -0.339532777238E+02   -0.16935E-06   -0.11505E-06    48   0.102E-02    0.105E-03
DAV:   4    -0.339532777666E+02   -0.42784E-07   -0.25894E-07    48   0.450E-03    0.562E-04
DAV:   5    -0.339532777840E+02   -0.17448E-07   -0.76916E-08    48   0.204E-03    0.158E-04
DAV:   6    -0.339532777943E+02   -0.10302E-07   -0.47037E-08    48   0.969E-04
  33 F= -.33953278E+02 E0= -.33953278E+02  d E =-.342706E-06
       N       E                     dE             d eps       ncg     rms          rms(c)
DAV:   1    -0.339532785946E+02   -0.81061E-06   -0.39875E-05    48   0.589E-02    0.250E-03
DAV:   2    -0.339532786691E+02   -0.74459E-07   -0.16978E-06    48   0.132E-02    0.147E-03
DAV:   3    -0.339532786814E+02   -0.12266E-07   -0.23522E-07    48   0.498E-03    0.533E-04
DAV:   4    -0.339532786982E+02   -0.16836E-07   -0.91789E-08    48   0.224E-03    0.280E-04
DAV:   5    -0.339532787076E+02   -0.94318E-08   -0.41618E-08    48   0.106E-03    0.811E-05
DAV:   6    -0.339532787159E+02   -0.82739E-08   -0.34423E-08    48   0.427E-04
  34 F= -.33953279E+02 E0= -.33953279E+02  d E =-.921579E-06
       N       E                     dE             d eps       ncg     rms          rms(c)
DAV:   1    -0.339532787289E+02   -0.21220E-07   -0.48804E-08    48   0.123E-03    0.461E-05
DAV:   2    -0.339532787334E+02   -0.45252E-08   -0.32625E-08    48   0.319E-04    0.276E-05
DAV:   3    -0.339532787396E+02   -0.61966E-08   -0.31262E-08    48   0.131E-04    0.132E-05
DAV:   4    -0.339532787442E+02   -0.46211E-08   -0.30679E-08    48   0.675E-05    0.787E-06
DAV:   5    -0.339532787499E+02   -0.56539E-08   -0.30082E-08    48   0.420E-05    0.319E-06
DAV:   6    -0.339532787537E+02   -0.38622E-08   -0.29450E-08    48   0.296E-05
  35 F= -.33953279E+02 E0= -.33953279E+02  d E =-.378055E-07
       N       E                     dE             d eps       ncg     rms          rms(c)
DAV:   1    -0.339532787711E+02   -0.21245E-07   -0.93234E-08    48   0.241E-03    0.667E-05
DAV:   2    -0.339532787719E+02   -0.84106E-09   -0.31655E-08    48   0.564E-04    0.407E-05
DAV:   3    -0.339532787729E+02   -0.96315E-09   -0.28571E-08    48   0.185E-04    0.255E-05
DAV:   4    -0.339532787738E+02   -0.91563E-09   -0.28042E-08    48   0.859E-05    0.117E-05
DAV:   5    -0.339532787746E+02   -0.81604E-09   -0.27665E-08    48   0.419E-05    0.387E-06
DAV:   6    -0.339532787751E+02   -0.45725E-09   -0.27412E-08    48   0.226E-05
  36 F= -.33953279E+02 E0= -.33953279E+02  d E =-.213755E-07
       N       E                     dE             d eps       ncg     rms          rms(c)
DAV:   1    -0.339532787950E+02   -0.20395E-07   -0.17091E-07    48   0.360E-03    0.997E-05
DAV:   2    -0.339532787954E+02   -0.36562E-09   -0.34297E-08    48   0.845E-04    0.596E-05
DAV:   3    -0.339532787958E+02   -0.41337E-09   -0.27944E-08    48   0.275E-04    0.374E-05
DAV:   4    -0.339532787959E+02   -0.99362E-10   -0.27173E-08    48   0.126E-04    0.167E-05
DAV:   5    -0.339532787962E+02   -0.26239E-09   -0.26927E-08    48   0.606E-05    0.554E-06
DAV:   6    -0.339532787963E+02   -0.11801E-09   -0.26765E-08    48   0.315E-05
  37 F= -.33953279E+02 E0= -.33953279E+02  d E =-.211969E-07
       N       E                     dE             d eps       ncg     rms          rms(c)
DAV:   1    -0.339532788216E+02   -0.25462E-07   -0.28094E-07    48   0.481E-03    0.133E-04
DAV:   2    -0.339532788226E+02   -0.97748E-09   -0.39394E-08    48   0.113E-03    0.773E-05
DAV:   3    -0.339532788231E+02   -0.48908E-09   -0.28324E-08    48   0.364E-04    0.484E-05
DAV:   4    -0.339532788232E+02   -0.65029E-10   -0.26977E-08    48   0.166E-04    0.210E-05
DAV:   5    -0.339532788232E+02   -0.83674E-10   -0.26673E-08    48   0.799E-05    0.726E-06
DAV:   6    -0.339532788231E+02    0.14711E-09   -0.26576E-08    48   0.416E-05
  38 F= -.33953279E+02 E0= -.33953279E+02  d E =-.268122E-07
       N       E                     dE             d eps       ncg     rms          rms(c)
DAV:   1    -0.339532788555E+02   -0.32260E-07   -0.42597E-07    48   0.604E-03    0.167E-04
DAV:   2    -0.339532788572E+02   -0.16862E-08   -0.46516E-08    48   0.142E-03    0.954E-05
DAV:   3    -0.339532788578E+02   -0.59754E-09   -0.29099E-08    48   0.453E-04    0.588E-05
DAV:   4    -0.339532788581E+02   -0.31400E-09   -0.27087E-08    48   0.206E-04    0.247E-05
DAV:   5    -0.339532788581E+02    0.20464E-10   -0.26672E-08    48   0.992E-05    0.912E-06
DAV:   6    -0.339532788580E+02    0.93678E-10   -0.26560E-08    48   0.516E-05
  39 F= -.33953279E+02 E0= -.33953279E+02  d E =-.348911E-07
       N       E                     dE             d eps       ncg     rms          rms(c)
DAV:   1    -0.339532788972E+02   -0.39078E-07   -0.63113E-07    48   0.746E-03    0.205E-04
DAV:   2    -0.339532788998E+02   -0.26812E-08   -0.56755E-08    48   0.175E-03    0.116E-04
DAV:   3    -0.339532789009E+02   -0.10946E-08   -0.30289E-08    48   0.553E-04    0.708E-05
DAV:   4    -0.339532789013E+02   -0.39290E-09   -0.27359E-08    48   0.251E-04    0.284E-05
DAV:   5    -0.339532789013E+02    0.67075E-10   -0.26751E-08    48   0.121E-04    0.115E-05
DAV:   6    -0.339532789012E+02    0.66620E-10   -0.26600E-08    48   0.627E-05
  40 F= -.33953279E+02 E0= -.33953279E+02  d E =-.432065E-07
       N       E                     dE             d eps       ncg     rms          rms(c)
DAV:   1    -0.339532789513E+02   -0.50067E-07   -0.10873E-06    48   0.990E-03    0.272E-04
DAV:   2    -0.339532789559E+02   -0.45711E-08   -0.79477E-08    48   0.232E-03    0.154E-04
DAV:   3    -0.339532789578E+02   -0.19068E-08   -0.33014E-08    48   0.729E-04    0.924E-05
DAV:   4    -0.339532789583E+02   -0.49818E-09   -0.27978E-08    48   0.331E-04    0.360E-05
DAV:   5    -0.339532789582E+02    0.14984E-09   -0.26971E-08    48   0.159E-04    0.155E-05
DAV:   6    -0.339532789581E+02    0.42064E-10   -0.26676E-08    48   0.822E-05
  41 F= -.33953279E+02 E0= -.33953279E+02  d E =-.569174E-07
       N       E                     dE             d eps       ncg     rms          rms(c)
DAV:   1    -0.339532790198E+02   -0.61594E-07   -0.18025E-06    48   0.128E-02    0.351E-04
DAV:   2    -0.339532790275E+02   -0.77414E-08   -0.11513E-07    48   0.300E-03    0.198E-04
DAV:   3    -0.339532790302E+02   -0.26921E-08   -0.37423E-08    48   0.942E-04    0.119E-04
DAV:   4    -0.339532790311E+02   -0.94496E-09   -0.29033E-08    48   0.427E-04    0.463E-05
DAV:   5    -0.339532790311E+02   -0.63665E-11   -0.27306E-08    48   0.205E-04    0.201E-05
DAV:   6    -0.339532790312E+02   -0.65484E-10   -0.26836E-08    48   0.106E-04
  42 F= -.33953279E+02 E0= -.33953279E+02  d E =-.730868E-07
       N       E                     dE             d eps       ncg     rms          rms(c)
DAV:   1    -0.339532791058E+02   -0.74659E-07   -0.28755E-06    48   0.162E-02    0.442E-04
DAV:   2    -0.339532791172E+02   -0.11437E-07   -0.16880E-07    48   0.380E-03    0.251E-04
DAV:   3    -0.339532791213E+02   -0.40432E-08   -0.44298E-08    48   0.119E-03    0.152E-04
DAV:   4    -0.339532791230E+02   -0.17092E-08   -0.30654E-08    48   0.542E-04    0.598E-05
DAV:   5    -0.339532791230E+02    0.28876E-10   -0.27813E-08    48   0.260E-04    0.253E-05
DAV:   6    -0.339532791230E+02   -0.10687E-10   -0.27082E-08    48   0.135E-04
  43 F= -.33953279E+02 E0= -.33953279E+02  d E =-.917646E-07
       N       E                     dE             d eps       ncg     rms          rms(c)
DAV:   1    -0.339532792123E+02   -0.89352E-07   -0.44720E-06    48   0.202E-02    0.551E-04
DAV:   2    -0.339532792294E+02   -0.17062E-07   -0.24867E-07    48   0.473E-03    0.315E-04
DAV:   3    -0.339532792354E+02   -0.60234E-08   -0.54688E-08    48   0.150E-03    0.191E-04
DAV:   4    -0.339532792377E+02   -0.23008E-08   -0.33152E-08    48   0.680E-04    0.767E-05
DAV:   5    -0.339532792379E+02   -0.22555E-09   -0.28588E-08    48   0.326E-04    0.313E-05
DAV:   6    -0.339532792378E+02    0.95042E-10   -0.27405E-08    48   0.170E-04
  44 F= -.33953279E+02 E0= -.33953279E+02  d E =-.114858E-06
       N       E                     dE             d eps       ncg     rms          rms(c)
DAV:   1    -0.339532793424E+02   -0.10452E-06   -0.68890E-06    48   0.251E-02    0.683E-04
DAV:   2    -0.339532793681E+02   -0.25633E-07   -0.36936E-07    48   0.586E-03    0.392E-04
DAV:   3    -0.339532793770E+02   -0.89724E-08   -0.70491E-08    48   0.186E-03    0.237E-04
DAV:   4    -0.339532793805E+02   -0.34515E-08   -0.36939E-08    48   0.847E-04    0.952E-05
DAV:   5    -0.339532793809E+02   -0.42928E-09   -0.29765E-08    48   0.406E-04    0.387E-05
DAV:   6    -0.339532793807E+02    0.24352E-09   -0.27878E-08    48   0.213E-04
  45 F= -.33953279E+02 E0= -.33953279E+02  d E =-.142862E-06
       N       E                     dE             d eps       ncg     rms          rms(c)
DAV:   1    -0.339532794992E+02   -0.11831E-06   -0.10630E-05    48   0.312E-02    0.847E-04
DAV:   2    -0.339532795390E+02   -0.39808E-07   -0.55577E-07    48   0.728E-03    0.486E-04
DAV:   3    -0.339532795525E+02   -0.13500E-07   -0.94539E-08    48   0.231E-03    0.290E-04
DAV:   4    -0.339532795574E+02   -0.48497E-08   -0.42586E-08    48   0.105E-03    0.113E-04
DAV:   5    -0.339532795579E+02   -0.45452E-09   -0.31480E-08    48   0.504E-04    0.481E-05
DAV:   6    -0.339532795577E+02    0.11801E-09   -0.28543E-08    48   0.265E-04
  46 F= -.33953280E+02 E0= -.33953280E+02  d E =-.177046E-06
       N       E                     dE             d eps       ncg     rms          rms(c)
DAV:   1    -0.339532796853E+02   -0.12743E-06   -0.16370E-05    48   0.387E-02    0.105E-03
DAV:   2    -0.339532797476E+02   -0.62347E-07   -0.84174E-07    48   0.904E-03    0.602E-04
DAV:   3    -0.339532797675E+02   -0.19907E-07   -0.13096E-07    48   0.286E-03    0.353E-04
DAV:   4    -0.339532797744E+02   -0.68749E-08   -0.51096E-08    48   0.130E-03    0.134E-04
DAV:   5    -0.339532797749E+02   -0.49931E-09   -0.34140E-08    48   0.623E-04    0.600E-05
DAV:   6    -0.339532797747E+02    0.16871E-09   -0.29607E-08    48   0.329E-04
  47 F= -.33953280E+02 E0= -.33953280E+02  d E =-.217011E-06
       N       E                     dE             d eps       ncg     rms          rms(c)
DAV:   1    -0.339532799039E+02   -0.12904E-06   -0.24790E-05    48   0.476E-02    0.129E-03
DAV:   2    -0.339532799994E+02   -0.95403E-07   -0.12633E-06    48   0.111E-02    0.740E-04
DAV:   3    -0.339532800278E+02   -0.28443E-07   -0.18509E-07    48   0.352E-03    0.434E-04
DAV:   4    -0.339532800380E+02   -0.10174E-07   -0.63836E-08    48   0.161E-03    0.164E-04
DAV:   5    -0.339532800389E+02   -0.95633E-09   -0.38007E-08    48   0.769E-04    0.740E-05
DAV:   6    -0.339532800387E+02    0.26353E-09   -0.31076E-08    48   0.405E-04
  48 F= -.33953280E+02 E0= -.33953280E+02  d E =-.263918E-06
       N       E                     dE             d eps       ncg     rms          rms(c)
DAV:   1    -0.339532801583E+02   -0.11934E-06   -0.36976E-05    48   0.581E-02    0.157E-03
DAV:   2    -0.339532803017E+02   -0.14344E-06   -0.18747E-06    48   0.136E-02    0.904E-04
DAV:   3    -0.339532803425E+02   -0.40787E-07   -0.26427E-07    48   0.431E-03    0.534E-04
DAV:   4    -0.339532803574E+02   -0.14880E-07   -0.82396E-08    48   0.197E-03    0.202E-04
DAV:   5    -0.339532803587E+02   -0.13295E-08   -0.43554E-08    48   0.942E-04    0.906E-05
DAV:   6    -0.339532803587E+02   -0.44793E-10   -0.33103E-08    48   0.497E-04
  49 F= -.33953280E+02 E0= -.33953280E+02  d E =-.320082E-06
       N       E                     dE             d eps       ncg     rms          rms(c)
DAV:   1    -0.339532804478E+02   -0.89070E-07   -0.54754E-05    48   0.708E-02    0.190E-03
DAV:   2    -0.339532806633E+02   -0.21552E-06   -0.27605E-06    48   0.166E-02    0.110E-03
DAV:   3    -0.339532807235E+02   -0.60182E-07   -0.37646E-07    48   0.524E-03    0.637E-04
DAV:   4    -0.339532807444E+02   -0.20876E-07   -0.10863E-07    48   0.239E-03    0.235E-04
DAV:   5    -0.339532807461E+02   -0.17167E-08   -0.51493E-08    48   0.114E-03    0.111E-04
DAV:   6    -0.339532807457E+02    0.35629E-09   -0.35977E-08    48   0.603E-04
  50 F= -.33953281E+02 E0= -.33953281E+02  d E =-.386968E-06
       N       E                     dE             d eps       ncg     rms          rms(c)
DAV:   1    -0.339532807798E+02   -0.33686E-07   -0.79076E-05    48   0.850E-02    0.228E-03
DAV:   2    -0.339532810918E+02   -0.31200E-06   -0.39630E-06    48   0.200E-02    0.132E-03
DAV:   3    -0.339532811784E+02   -0.86625E-07   -0.53218E-07    48   0.629E-03    0.755E-04
DAV:   4    -0.339532812071E+02   -0.28764E-07   -0.14526E-07    48   0.288E-03    0.275E-04
DAV:   5    -0.339532812097E+02   -0.25786E-08   -0.62268E-08    48   0.137E-03    0.133E-04
DAV:   6    -0.339532812093E+02    0.43906E-09   -0.39838E-08    48   0.726E-04
  51 F= -.33953281E+02 E0= -.33953281E+02  d E =-.463570E-06
       N       E                     dE             d eps       ncg     rms          rms(c)
DAV:   1    -0.339532811428E+02    0.66959E-07   -0.11327E-04    48   0.102E-01    0.271E-03
DAV:   2    -0.339532815895E+02   -0.44675E-06   -0.56585E-06    48   0.239E-02    0.158E-03
DAV:   3    -0.339532817110E+02   -0.12153E-06   -0.75421E-07    48   0.754E-03    0.905E-04
DAV:   4    -0.339532817510E+02   -0.39950E-07   -0.19733E-07    48   0.345E-03    0.332E-04
DAV:   5    -0.339532817549E+02   -0.39449E-08   -0.77231E-08    48   0.164E-03    0.159E-04
DAV:   6    -0.339532817549E+02    0.36607E-10   -0.44923E-08    48   0.873E-04
  52 F= -.33953282E+02 E0= -.33953282E+02  d E =-.545613E-06
       N       E                     dE             d eps       ncg     rms          rms(c)
DAV:   1    -0.339532822464E+02   -0.49148E-06   -0.17423E-04    96   0.124E-01    0.338E-03
DAV:   2    -0.339532822615E+02   -0.15106E-07   -0.20341E-06    48   0.125E-02    0.202E-03
DAV:   3    -0.339532823647E+02   -0.10321E-06   -0.30340E-07    48   0.484E-03    0.617E-04
DAV:   4    -0.339532823851E+02   -0.20356E-07   -0.97502E-08    48   0.218E-03    0.209E-04
DAV:   5    -0.339532823865E+02   -0.14259E-08   -0.49732E-08    48   0.106E-03    0.108E-04
DAV:   6    -0.339532823893E+02   -0.28097E-08   -0.38099E-08    48   0.564E-04
  53 F= -.33953282E+02 E0= -.33953282E+02  d E =-.634432E-06
       N       E                     dE             d eps       ncg     rms          rms(c)
DAV:   1    -0.339532829209E+02   -0.53439E-06   -0.23920E-04    96   0.144E-01    0.392E-03
DAV:   2    -0.339532829055E+02    0.15397E-07   -0.27269E-06    48   0.146E-02    0.243E-03
DAV:   3    -0.339532830411E+02   -0.13555E-06   -0.44080E-07    48   0.601E-03    0.764E-04
DAV:   4    -0.339532830715E+02   -0.30468E-07   -0.12955E-07    48   0.274E-03    0.302E-04
DAV:   5    -0.339532830773E+02   -0.57632E-08   -0.57019E-08    48   0.132E-03    0.134E-04
DAV:   6    -0.339532830832E+02   -0.59470E-08   -0.40754E-08    48   0.698E-04
  54 F= -.33953283E+02 E0= -.33953283E+02  d E =-.693915E-06
       N       E                     dE             d eps       ncg     rms          rms(c)
DAV:   1    -0.339532831468E+02   -0.69540E-07   -0.41815E-04    96   0.194E-01    0.571E-03
DAV:   2    -0.339532830675E+02    0.79339E-07   -0.51720E-06    48   0.202E-02    0.340E-03
DAV:   3    -0.339532832750E+02   -0.20754E-06   -0.91201E-07    48   0.905E-03    0.971E-04
DAV:   4    -0.339532833177E+02   -0.42711E-07   -0.22853E-07    48   0.390E-03    0.428E-04
DAV:   5    -0.339532833207E+02   -0.29206E-08   -0.70761E-08    48   0.185E-03    0.140E-04
DAV:   6    -0.339532833262E+02   -0.55117E-08   -0.47009E-08    48   0.933E-04
  55 F= -.33953283E+02 E0= -.33953283E+02  d E =-.242937E-06
       N       E                     dE             d eps       ncg     rms          rms(c)
DAV:   1    -0.339532840198E+02   -0.69918E-06   -0.39815E-05    48   0.582E-02    0.257E-03
DAV:   2    -0.339532840426E+02   -0.22763E-07   -0.16904E-06    48   0.130E-02    0.151E-03
DAV:   3    -0.339532840280E+02    0.14618E-07   -0.24199E-07    48   0.509E-03    0.536E-04
DAV:   4    -0.339532840476E+02   -0.19621E-07   -0.91151E-08    48   0.226E-03    0.293E-04
DAV:   5    -0.339532840625E+02   -0.14908E-07   -0.39752E-08    48   0.104E-03    0.828E-05
DAV:   6    -0.339532840709E+02   -0.84117E-08   -0.32894E-08    48   0.412E-04
  56 F= -.33953284E+02 E0= -.33953284E+02  d E =-.744755E-06
       N       E                     dE             d eps       ncg     rms          rms(c)
DAV:   1    -0.339532840867E+02   -0.24160E-07   -0.83511E-08    48   0.224E-03    0.829E-05
DAV:   2    -0.339532840912E+02   -0.45322E-08   -0.32394E-08    48   0.513E-04    0.524E-05
DAV:   3    -0.339532840970E+02   -0.57424E-08   -0.29834E-08    48   0.184E-04    0.203E-05
DAV:   4    -0.339532841005E+02   -0.35780E-08   -0.29330E-08    48   0.832E-05    0.113E-05
DAV:   5    -0.339532841046E+02   -0.41043E-08   -0.28705E-08    48   0.444E-05    0.322E-06
DAV:   6    -0.339532841066E+02   -0.20052E-08   -0.28388E-08    48   0.252E-05
  57 F= -.33953284E+02 E0= -.33953284E+02  d E =-.357105E-07
       N       E                     dE             d eps       ncg     rms          rms(c)
DAV:   1    -0.339532841239E+02   -0.19262E-07   -0.19878E-07    48   0.402E-03    0.134E-04
DAV:   2    -0.339532841260E+02   -0.21369E-08   -0.35591E-08    48   0.915E-04    0.824E-05
DAV:   3    -0.339532841275E+02   -0.14487E-08   -0.28459E-08    48   0.296E-04    0.338E-05
DAV:   4    -0.339532841280E+02   -0.56093E-09   -0.27743E-08    48   0.140E-04    0.157E-05
DAV:   5    -0.339532841281E+02   -0.97771E-10   -0.27368E-08    48   0.685E-05    0.606E-06
DAV:   6    -0.339532841284E+02   -0.22305E-09   -0.27182E-08    48   0.313E-05
  58 F= -.33953284E+02 E0= -.33953284E+02  d E =-.217236E-07
       N       E                     dE             d eps       ncg     rms          rms(c)
DAV:   1    -0.339532841443E+02   -0.16156E-07   -0.30151E-07    48   0.511E-03    0.154E-04
DAV:   2    -0.339532841463E+02   -0.20166E-08   -0.39721E-08    48   0.117E-03    0.974E-05
DAV:   3    -0.339532841471E+02   -0.82173E-09   -0.28211E-08    48   0.368E-04    0.422E-05
DAV:   4    -0.339532841473E+02   -0.12415E-09   -0.27222E-08    48   0.173E-04    0.195E-05
DAV:   5    -0.339532841469E+02    0.36448E-09   -0.26933E-08    48   0.841E-05    0.809E-06
DAV:   6    -0.339532841469E+02    0.28876E-10   -0.26811E-08    48   0.403E-05
  59 F= -.33953284E+02 E0= -.33953284E+02  d E =-.185020E-07
       N       E                     dE             d eps       ncg     rms          rms(c)
DAV:   1    -0.339532841652E+02   -0.18330E-07   -0.34957E-07    48   0.553E-03    0.150E-04
DAV:   2    -0.339532841671E+02   -0.18972E-08   -0.41948E-08    48   0.127E-03    0.935E-05
DAV:   3    -0.339532841679E+02   -0.77512E-09   -0.28280E-08    48   0.390E-04    0.421E-05
DAV:   4    -0.339532841678E+02    0.12528E-09   -0.27040E-08    48   0.181E-04    0.170E-05
DAV:   5    -0.339532841676E+02    0.19827E-09   -0.26718E-08    48   0.859E-05    0.911E-06
DAV:   6    -0.339532841676E+02   -0.45475E-11   -0.26631E-08    48   0.455E-05
  60 F= -.33953284E+02 E0= -.33953284E+02  d E =-.207120E-07
       N       E                     dE             d eps       ncg     rms          rms(c)
DAV:   1    -0.339532841924E+02   -0.24794E-07   -0.39763E-07    48   0.587E-03    0.156E-04
DAV:   2    -0.339532841936E+02   -0.12631E-08   -0.44339E-08    48   0.137E-03    0.915E-05
DAV:   3    -0.339532841941E+02   -0.50682E-09   -0.28631E-08    48   0.418E-04    0.442E-05
DAV:   4    -0.339532841944E+02   -0.27421E-09   -0.27016E-08    48   0.192E-04    0.132E-05
DAV:   5    -0.339532841944E+02    0.62073E-10   -0.26640E-08    48   0.907E-05    0.872E-06
DAV:   6    -0.339532841945E+02   -0.17099E-09   -0.26544E-08    48   0.498E-05
  61 F= -.33953284E+02 E0= -.33953284E+02  d E =-.269429E-07
       N       E                     dE             d eps       ncg     rms          rms(c)
DAV:   1    -0.339532842268E+02   -0.32465E-07   -0.51133E-07    48   0.665E-03    0.178E-04
DAV:   2    -0.339532842273E+02   -0.49499E-09   -0.49839E-08    48   0.156E-03    0.107E-04
DAV:   3    -0.339532842278E+02   -0.53547E-09   -0.29399E-08    48   0.488E-04    0.595E-05
DAV:   4    -0.339532842281E+02   -0.25420E-09   -0.27143E-08    48   0.225E-04    0.218E-05
DAV:   5    -0.339532842284E+02   -0.25216E-09   -0.26639E-08    48   0.106E-04    0.111E-05
DAV:   6    -0.339532842283E+02    0.78217E-10   -0.26490E-08    48   0.576E-05
  62 F= -.33953284E+02 E0= -.33953284E+02  d E =-.337523E-07
       N       E                     dE             d eps       ncg     rms          rms(c)
DAV:   1    -0.339532842681E+02   -0.39772E-07   -0.84748E-07    48   0.861E-03    0.234E-04
DAV:   2    -0.339532842692E+02   -0.10364E-08   -0.65822E-08    48   0.202E-03    0.147E-04
DAV:   3    -0.339532842697E+02   -0.54365E-09   -0.31500E-08    48   0.643E-04    0.833E-05
DAV:   4    -0.339532842702E+02   -0.51068E-09   -0.27649E-08    48   0.299E-04    0.335E-05
DAV:   5    -0.339532842705E+02   -0.27080E-09   -0.26733E-08    48   0.140E-04    0.152E-05
DAV:   6    -0.339532842706E+02   -0.75261E-10   -0.26516E-08    48   0.748E-05
  63 F= -.33953284E+02 E0= -.33953284E+02  d E =-.422866E-07
       N       E                     dE             d eps       ncg     rms          rms(c)
DAV:   1    -0.339532843160E+02   -0.45514E-07   -0.13450E-06    48   0.109E-02    0.295E-04
DAV:   2    -0.339532843183E+02   -0.23360E-08   -0.89890E-08    48   0.257E-03    0.182E-04
DAV:   3    -0.339532843196E+02   -0.12810E-08   -0.34578E-08    48   0.813E-04    0.103E-04
DAV:   4    -0.339532843201E+02   -0.49045E-09   -0.28319E-08    48   0.377E-04    0.399E-05
DAV:   5    -0.339532843205E+02   -0.42019E-09   -0.26908E-08    48   0.177E-04    0.189E-05
DAV:   6    -0.339532843208E+02   -0.28194E-09   -0.26613E-08    48   0.953E-05
  64 F= -.33953284E+02 E0= -.33953284E+02  d E =-.502481E-07
       N       E                     dE             d eps       ncg     rms          rms(c)
DAV:   1    -0.339532843765E+02   -0.55968E-07   -0.20934E-06    48   0.138E-02    0.366E-04
DAV:   2    -0.339532843825E+02   -0.59615E-08   -0.12644E-07    48   0.323E-03    0.216E-04
DAV:   3    -0.339532843850E+02   -0.25427E-08   -0.38990E-08    48   0.100E-03    0.115E-04
DAV:   4    -0.339532843859E+02   -0.85379E-09   -0.29407E-08    48   0.461E-04    0.379E-05
DAV:   5    -0.339532843862E+02   -0.30150E-09   -0.27356E-08    48   0.219E-04    0.216E-05
DAV:   6    -0.339532843861E+02    0.24102E-10   -0.26800E-08    48   0.119E-04
  65 F= -.33953284E+02 E0= -.33953284E+02  d E =-.653220E-07
       N       E                     dE             d eps       ncg     rms          rms(c)
DAV:   1    -0.339532844557E+02   -0.69514E-07   -0.34575E-06    48   0.179E-02    0.473E-04
DAV:   2    -0.339532844677E+02   -0.11996E-07   -0.19221E-07    48   0.416E-03    0.280E-04
DAV:   3    -0.339532844724E+02   -0.47494E-08   -0.46429E-08    48   0.128E-03    0.134E-04
DAV:   4    -0.339532844736E+02   -0.11460E-08   -0.31285E-08    48   0.588E-04    0.402E-05
DAV:   5    -0.339532844734E+02    0.16553E-09   -0.28065E-08    48   0.278E-04    0.269E-05
DAV:   6    -0.339532844732E+02    0.16053E-09   -0.27166E-08    48   0.153E-04
  66 F= -.33953284E+02 E0= -.33953284E+02  d E =-.871034E-07
       N       E                     dE             d eps       ncg     rms          rms(c)
DAV:   1    -0.339532845501E+02   -0.76738E-07   -0.54651E-06    48   0.225E-02    0.597E-04
DAV:   2    -0.339532845697E+02   -0.19583E-07   -0.29012E-07    48   0.524E-03    0.354E-04
DAV:   3    -0.339532845768E+02   -0.71095E-08   -0.58219E-08    48   0.161E-03    0.168E-04
DAV:   4    -0.339532845786E+02   -0.17624E-08   -0.34256E-08    48   0.743E-04    0.512E-05
DAV:   5    -0.339532845785E+02    0.53433E-10   -0.29044E-08    48   0.350E-04    0.344E-05
DAV:   6    -0.339532845782E+02    0.29627E-09   -0.27625E-08    48   0.193E-04
  67 F= -.33953285E+02 E0= -.33953285E+02  d E =-.105004E-06
       N       E                     dE             d eps       ncg     rms          rms(c)
DAV:   1    -0.339532846687E+02   -0.90173E-07   -0.76851E-06    48   0.266E-02    0.707E-04
DAV:   2    -0.339532846952E+02   -0.26511E-07   -0.40195E-07    48   0.623E-03    0.415E-04
DAV:   3    -0.339532847049E+02   -0.97025E-08   -0.74096E-08    48   0.194E-03    0.219E-04
DAV:   4    -0.339532847079E+02   -0.29379E-08   -0.38030E-08    48   0.893E-04    0.709E-05
DAV:   5    -0.339532847082E+02   -0.37107E-09   -0.30273E-08    48   0.423E-04    0.412E-05
DAV:   6    -0.339532847082E+02    0.53660E-10   -0.28142E-08    48   0.229E-04
  68 F= -.33953285E+02 E0= -.33953285E+02  d E =-.129938E-06
       N       E                     dE             d eps       ncg     rms          rms(c)
DAV:   1    -0.339532848101E+02   -0.10185E-06   -0.11327E-05    48   0.321E-02    0.861E-04
DAV:   2    -0.339532848477E+02   -0.37626E-07   -0.58386E-07    48   0.755E-03    0.514E-04
DAV:   3    -0.339532848609E+02   -0.13230E-07   -0.99528E-08    48   0.240E-03    0.291E-04
DAV:   4    -0.339532848655E+02   -0.45977E-08   -0.44252E-08    48   0.111E-03    0.107E-04
DAV:   5    -0.339532848666E+02   -0.10209E-08   -0.31958E-08    48   0.525E-04    0.520E-05
DAV:   6    -0.339532848668E+02   -0.27899E-09   -0.28800E-08    48   0.281E-04
  69 F= -.33953285E+02 E0= -.33953285E+02  d E =-.158657E-06
       N       E                     dE             d eps       ncg     rms          rms(c)
DAV:   1    -0.339532849046E+02   -0.38041E-07   -0.17334E-05    48   0.399E-02    0.107E-03
DAV:   2    -0.339532849678E+02   -0.63218E-07   -0.88363E-07    48   0.937E-03    0.624E-04
DAV:   3    -0.339532849890E+02   -0.21212E-07   -0.13647E-07    48   0.295E-03    0.342E-04
DAV:   4    -0.339532849955E+02   -0.65011E-08   -0.52879E-08    48   0.135E-03    0.116E-04
DAV:   5    -0.339532849963E+02   -0.77443E-09   -0.34804E-08    48   0.643E-04    0.624E-05
DAV:   6    -0.339532849963E+02    0.47521E-10   -0.29891E-08    48   0.344E-04
  70 F= -.33953285E+02 E0= -.33953285E+02  d E =-.129420E-06
       N       E                     dE             d eps       ncg     rms          rms(c)
DAV:   1    -0.339532850895E+02   -0.93162E-07   -0.26996E-05    48   0.500E-02    0.134E-03
DAV:   2    -0.339532851932E+02   -0.10371E-06   -0.13615E-06    48   0.117E-02    0.781E-04
DAV:   3    -0.339532852258E+02   -0.32579E-07   -0.19330E-07    48   0.365E-03    0.409E-04
DAV:   4    -0.339532852351E+02   -0.93378E-08   -0.66475E-08    48   0.168E-03    0.132E-04
DAV:   5    -0.339532852352E+02   -0.13051E-09   -0.39155E-08    48   0.793E-04    0.781E-05
DAV:   6    -0.339532852345E+02    0.69076E-09   -0.31585E-08    48   0.426E-04
  71 F= -.33953285E+02 E0= -.33953285E+02  d E =-.238272E-06
       N       E                     dE             d eps       ncg     rms          rms(c)
DAV:   1    -0.339532853174E+02   -0.82192E-07   -0.37238E-05    48   0.584E-02    0.158E-03
DAV:   2    -0.339532854595E+02   -0.14212E-06   -0.18882E-06    48   0.137E-02    0.926E-04
DAV:   3    -0.339532855016E+02   -0.42031E-07   -0.27095E-07    48   0.438E-03    0.536E-04
DAV:   4    -0.339532855161E+02   -0.14529E-07   -0.84797E-08    48   0.201E-03    0.203E-04
DAV:   5    -0.339532855178E+02   -0.17221E-08   -0.44070E-08    48   0.958E-04    0.919E-05
DAV:   6    -0.339532855179E+02   -0.12733E-09   -0.33459E-08    48   0.509E-04
  72 F= -.33953286E+02 E0= -.33953286E+02  d E =-.283409E-06
       N       E                     dE             d eps       ncg     rms          rms(c)
DAV:   1    -0.339532855462E+02   -0.28439E-07   -0.56619E-05    48   0.722E-02    0.196E-03
DAV:   2    -0.339532857707E+02   -0.22442E-06   -0.28665E-06    48   0.170E-02    0.113E-03
DAV:   3    -0.339532858334E+02   -0.62779E-07   -0.39378E-07    48   0.538E-03    0.652E-04
DAV:   4    -0.339532858544E+02   -0.20945E-07   -0.11295E-07    48   0.247E-03    0.240E-04
DAV:   5    -0.339532858560E+02   -0.16355E-08   -0.52558E-08    48   0.117E-03    0.113E-04
DAV:   6    -0.339532858555E+02    0.49113E-09   -0.36498E-08    48   0.620E-04
  73 F= -.33953286E+02 E0= -.33953286E+02  d E =-.337598E-06
       N       E                     dE             d eps       ncg     rms          rms(c)
DAV:   1    -0.339532857825E+02    0.73539E-07   -0.85790E-05    48   0.890E-02    0.243E-03
DAV:   2    -0.339532861300E+02   -0.34753E-06   -0.43383E-06    48   0.209E-02    0.140E-03
DAV:   3    -0.339532862220E+02   -0.92032E-07   -0.57865E-07    48   0.662E-03    0.803E-04
DAV:   4    -0.339532862522E+02   -0.30132E-07   -0.15534E-07    48   0.303E-03    0.295E-04
DAV:   5    -0.339532862543E+02   -0.21407E-08   -0.65188E-08    48   0.144E-03    0.140E-04
DAV:   6    -0.339532862535E+02    0.80263E-09   -0.40841E-08    48   0.758E-04
  74 F= -.33953286E+02 E0= -.33953286E+02  d E =-.397980E-06
