 vasp.5.4.1 24Jun15 (build Jan 13 2020 12:58:22) complex                        
  
 executed on           IFC91_ompi date 2020.02.05  18:18:08
 running on   15 total cores
 each image running on    1 cores
 distrk:  each k-point on    1 cores,    1 groups
 distr:  one band on NCORES_PER_BAND=   1 cores,    1 groups


--------------------------------------------------------------------------------------------------------


 INCAR:
 POTCAR:    PAW_PBE H 15Jun2001                   
 POTCAR:    PAW_PBE C 08Apr2002                   
 POTCAR:    PAW_PBE N 08Apr2002                   
 POTCAR:    PAW_PBE H 15Jun2001                   
   VRHFIN =H: ultrasoft test                                                    
   LEXCH  = PE                                                                  
   EATOM  =    12.4884 eV,    0.9179 Ry                                         
                                                                                
   TITEL  = PAW_PBE H 15Jun2001                                                 
   LULTRA =        F    use ultrasoft PP ?                                      
   IUNSCR =        0    unscreen: 0-lin 1-nonlin 2-no                           
   RPACOR =    0.000    partial core radius                                     
   POMASS =    1.000; ZVAL   =    1.000    mass and valenz                      
   RCORE  =    1.100    outmost cutoff radius                                   
   RWIGS  =    0.700; RWIGS  =    0.370    wigner-seitz radius (au A)           
   ENMAX  =  250.000; ENMIN  =  200.000 eV                                      
   RCLOC  =    0.701    cutoff for local pot                                    
   LCOR   =        T    correct aug charges                                     
   LPAW   =        T    paw PP                                                  
   EAUG   =  400.000                                                            
   RMAX   =    1.123    core radius for proj-oper                               
   RAUG   =    1.200    factor for augmentation sphere                          
   RDEP   =    1.112    radius for radial grids                                 
   RDEPT  =    0.926    core radius for aug-charge                              
                                                                                
   Atomic configuration                                                         
    2 entries                                                                   
     n  l   j            E        occ.                                          
     1  0  0.50        -6.4927   1.0000                                         
     2  1  0.50        -3.4015   0.0000                                         
   Description                                                                  
     l       E           TYP  RCUT    TYP  RCUT                                 
     0     -6.4927494     23  1.100                                             
     0      6.8029130     23  1.100                                             
     1     -4.0817478     23  1.100                                             
  local pseudopotential read in
  atomic valenz-charges read in
  non local Contribution for L=           0  read in
    real space projection operators read in
  non local Contribution for L=           0  read in
    real space projection operators read in
  non local Contribution for L=           1  read in
    real space projection operators read in
    PAW grid and wavefunctions read in
 
   number of l-projection  operators is LMAX  =           3
   number of lm-projection operators is LMMAX =           5
 
 POTCAR:    PAW_PBE C 08Apr2002                   
   VRHFIN =C: s2p2                                                              
   LEXCH  = PE                                                                  
   EATOM  =   147.1560 eV,   10.8157 Ry                                         
                                                                                
   TITEL  = PAW_PBE C 08Apr2002                                                 
   LULTRA =        F    use ultrasoft PP ?                                      
   IUNSCR =        1    unscreen: 0-lin 1-nonlin 2-no                           
   RPACOR =    1.200    partial core radius                                     
   POMASS =   12.011; ZVAL   =    4.000    mass and valenz                      
   RCORE  =    1.500    outmost cutoff radius                                   
   RWIGS  =    1.630; RWIGS  =    0.863    wigner-seitz radius (au A)           
   ENMAX  =  400.000; ENMIN  =  300.000 eV                                      
   ICORE  =        2    local potential                                         
   LCOR   =        T    correct aug charges                                     
   LPAW   =        T    paw PP                                                  
   EAUG   =  644.873                                                            
   DEXC   =    0.000                                                            
   RMAX   =    1.529    core radius for proj-oper                               
   RAUG   =    1.300    factor for augmentation sphere                          
   RDEP   =    1.501    radius for radial grids                                 
   RDEPT  =    1.300    core radius for aug-charge                              
                                                                                
   Atomic configuration                                                         
    4 entries                                                                   
     n  l   j            E        occ.                                          
     1  0  0.50      -273.3789   2.0000                                         
     2  0  0.50       -13.7508   2.0000                                         
     2  1  0.50        -5.2854   2.0000                                         
     3  2  1.50        -5.4423   0.0000                                         
   Description                                                                  
     l       E           TYP  RCUT    TYP  RCUT                                 
     0    -13.7508458     23  1.200                                             
     0     -8.2022199     23  1.200                                             
     1     -5.2854383     23  1.500                                             
     1     34.0145650     23  1.500                                             
     2     -5.4423304      7  1.500                                             
  local pseudopotential read in
  partial core-charges read in
  partial kinetic energy density read in
  atomic valenz-charges read in
  non local Contribution for L=           0  read in
    real space projection operators read in
  non local Contribution for L=           0  read in
    real space projection operators read in
  non local Contribution for L=           1  read in
    real space projection operators read in
  non local Contribution for L=           1  read in
    real space projection operators read in
    PAW grid and wavefunctions read in
 
   number of l-projection  operators is LMAX  =           4
   number of lm-projection operators is LMMAX =           8
 
 POTCAR:    PAW_PBE N 08Apr2002                   
   VRHFIN =N: s2p3                                                              
   LEXCH  = PE                                                                  
   EATOM  =   264.5486 eV,   19.4438 Ry                                         
                                                                                
   TITEL  = PAW_PBE N 08Apr2002                                                 
   LULTRA =        F    use ultrasoft PP ?                                      
   IUNSCR =        1    unscreen: 0-lin 1-nonlin 2-no                           
   RPACOR =    1.200    partial core radius                                     
   POMASS =   14.001; ZVAL   =    5.000    mass and valenz                      
   RCORE  =    1.500    outmost cutoff radius                                   
   RWIGS  =    1.400; RWIGS  =    0.741    wigner-seitz radius (au A)           
   ENMAX  =  400.000; ENMIN  =  300.000 eV                                      
   ICORE  =        2    local potential                                         
   LCOR   =        T    correct aug charges                                     
   LPAW   =        T    paw PP                                                  
   EAUG   =  627.112                                                            
   DEXC   =    0.000                                                            
   RMAX   =    1.529    core radius for proj-oper                               
   RAUG   =    1.300    factor for augmentation sphere                          
   RDEP   =    1.514    radius for radial grids                                 
   RDEPT  =    1.338    core radius for aug-charge                              
                                                                                
   Atomic configuration                                                         
    4 entries                                                                   
     n  l   j            E        occ.                                          
     1  0  0.50      -384.7179   2.0000                                         
     2  0  0.50       -18.5828   2.0000                                         
     2  1  0.50        -7.0898   3.0000                                         
     3  2  1.50        -6.8029   0.0000                                         
   Description                                                                  
     l       E           TYP  RCUT    TYP  RCUT                                 
     0    -18.5828119     23  1.200                                             
     0    -13.5018863     23  1.200                                             
     1     -7.0897853     23  1.500                                             
     1      9.5240782     23  1.500                                             
     2     -6.8029130      7  1.500                                             
  local pseudopotential read in
  partial core-charges read in
  partial kinetic energy density read in
  atomic valenz-charges read in
  non local Contribution for L=           0  read in
    real space projection operators read in
  non local Contribution for L=           0  read in
    real space projection operators read in
  non local Contribution for L=           1  read in
    real space projection operators read in
  non local Contribution for L=           1  read in
    real space projection operators read in
    PAW grid and wavefunctions read in
 
   number of l-projection  operators is LMAX  =           4
   number of lm-projection operators is LMMAX =           8
 

 ----------------------------------------------------------------------------- 
|                                                                             |
|  ADVICE TO THIS USER RUNNING 'VASP/VAMP'   (HEAR YOUR MASTER'S VOICE ...):  |
|                                                                             |
|      You have a (more or less) 'small supercell' and for smaller cells      |
|      it is recommended  to use the reciprocal-space projection scheme!      |
|      The real space optimization is not  efficient for small cells and it   |
|      is also less accurate ...                                              |
|      Therefore set LREAL=.FALSE. in the  INCAR file                         |
|                                                                             |
 ----------------------------------------------------------------------------- 

 Optimization of the real space projectors (new method)

 maximal supplied QI-value         = 34.20
 optimisation between [QCUT,QGAM] = [  9.92, 20.18] = [ 27.55,114.04] Ry 
 Optimized for a Real-space Cutoff    1.26 Angstroem

   l    n(q)    QCUT    max X(q) W(low)/X(q) W(high)/X(q)  e(spline) 
   0      8     9.919    19.460    0.50E-03    0.23E-03    0.29E-06
   0      8     9.919    12.209    0.48E-03    0.23E-03    0.28E-06
   1      7     9.919     4.655    0.17E-03    0.75E-03    0.30E-06
 Optimization of the real space projectors (new method)

 maximal supplied QI-value         = 25.13
 optimisation between [QCUT,QGAM] = [ 10.05, 20.36] = [ 28.30,116.06] Ry 
 Optimized for a Real-space Cutoff    1.30 Angstroem

   l    n(q)    QCUT    max X(q) W(low)/X(q) W(high)/X(q)  e(spline) 
   0      8    10.053   115.676    0.49E-03    0.72E-03    0.18E-06
   0      8    10.053    87.132    0.49E-03    0.71E-03    0.18E-06
   1      7    10.053     4.429    0.32E-03    0.31E-03    0.18E-06
   1      7    10.053     2.733    0.23E-03    0.19E-03    0.20E-06
 Optimization of the real space projectors (new method)

 maximal supplied QI-value         = 25.13
 optimisation between [QCUT,QGAM] = [ 10.05, 20.36] = [ 28.30,116.06] Ry 
 Optimized for a Real-space Cutoff    1.65 Angstroem

   l    n(q)    QCUT    max X(q) W(low)/X(q) W(high)/X(q)  e(spline) 
   0     10    10.053    79.467    0.76E-04    0.72E-04    0.56E-06
   0     10    10.053    66.151    0.76E-04    0.72E-04    0.55E-06
   1     10    10.053     8.350    0.25E-03    0.92E-03    0.41E-05
   1     10    10.053     5.531    0.27E-03    0.10E-02    0.45E-05
  PAW_PBE H 15Jun2001                   :
 energy of atom  1       EATOM=  -12.4884
 kinetic energy error for atom=    0.0098 (will be added to EATOM!!)
  PAW_PBE C 08Apr2002                   :
 energy of atom  2       EATOM= -147.1560
 kinetic energy error for atom=    0.0288 (will be added to EATOM!!)
  PAW_PBE N 08Apr2002                   :
 energy of atom  3       EATOM= -264.5486
 kinetic energy error for atom=    0.0736 (will be added to EATOM!!)
 
 
 POSCAR: H3 C2 N1                                
  positions in direct lattice
  velocities in cartesian coordinates
 exchange correlation table for  LEXCH =        8
   RHO(1)=    0.500       N(1)  =     2000
   RHO(2)=  100.500       N(2)  =     4000

 VTST: version 3.2, (02/03/18)

 CHAIN: initializing optimizer
 
 OPT: Using FIRE optimizer
 OPT: FIRE, Init
 OPT: FIRE, MAXMOVE       0.20000
 OPT: FIRE, TIMESTEP      0.10000
 OPT: FIRE, FTIMEMAX      1.00000
 OPT: FIRE, FTIMEINC      1.10000
 OPT: FIRE, FTIMEDEC      0.50000
 OPT: FIRE, FALPHADEC     0.99000
 OPT: FIRE, FALPHA        0.10000
 OPT: FIRE, FNMIN         5
 
 CHAIN: Read ICHAIN            0
 CHAIN: Running the NEB
 NEB:          SPRING     -5.000000
 NEB:          LCLIMB      T
 NEB:     LTANGENTOLD      F
 NEB:           LDNEB      F
 NEB:        LDNEBORG      F
 NEB:        LNEBCELL      F
 NEB:          EFIRST      0.000000
 NEB:           ELAST      0.000000
 
 POSCAR: H3 C2 N1                                
  positions in direct lattice
  No initial velocities read in
 
 POSCAR: H3 C2 N1                                
  positions in direct lattice
  No initial velocities read in
 


--------------------------------------------------------------------------------------------------------


 ion  position               nearest neighbor table
   1  0.476  0.466  0.507-   4 1.09
   2  0.476  0.511  0.467-   4 1.09
   3  0.476  0.523  0.526-   4 1.10
   4  0.487  0.500  0.500-   2 1.09   1 1.09   3 1.10   5 1.79   6 1.80
   5  0.543  0.487  0.485-   6 1.21   4 1.79
   6  0.543  0.514  0.515-   5 1.21   4 1.80
 
  LATTYP: Found a simple cubic cell.
 ALAT       =    30.0000000000
  
  Lattice vectors:
  
 A1 = (  30.0000000000,   0.0000000000,   0.0000000000)
 A2 = (   0.0000000000,  30.0000000000,   0.0000000000)
 A3 = (   0.0000000000,   0.0000000000,  30.0000000000)


Analysis of symmetry for initial positions (statically):
=====================================================================
 Subroutine PRICEL returns:
 Original cell was already a primitive cell.
 

 Routine SETGRP: Setting up the symmetry group for a 
 simple cubic supercell.


 Subroutine GETGRP returns: Found  1 space group operations
 (whereof  1 operations were pure point group operations)
 out of a pool of 48 trial point group operations.


The static configuration has the point symmetry C_1 .


Analysis of symmetry for dynamics (positions and initial velocities):
=====================================================================
 Subroutine PRICEL returns:
 Original cell was already a primitive cell.
 

 Routine SETGRP: Setting up the symmetry group for a 
 simple cubic supercell.


 Subroutine GETGRP returns: Found  1 space group operations
 (whereof  1 operations were pure point group operations)
 out of a pool of 48 trial point group operations.


The dynamic configuration has the point symmetry C_1 .
 
 
 KPOINTS: Mo2C                                    

Automatic generation of k-mesh.
Space group operators:
 irot       det(A)        alpha          n_x          n_y          n_z        tau_x        tau_y        tau_z
    1     1.000000     0.000000     1.000000     0.000000     0.000000     0.000000     0.000000     0.000000
 
 Subroutine IBZKPT returns following result:
 ===========================================
 
 Found      4 irreducible k-points:
 
 Following reciprocal coordinates:
            Coordinates               Weight
  0.250000  0.250000  0.250000      2.000000
 -0.250000  0.250000  0.250000      2.000000
  0.250000 -0.250000  0.250000      2.000000
 -0.250000 -0.250000  0.250000      2.000000
 
 Following cartesian coordinates:
            Coordinates               Weight
  0.008333  0.008333  0.008333      2.000000
 -0.008333  0.008333  0.008333      2.000000
  0.008333 -0.008333  0.008333      2.000000
 -0.008333 -0.008333  0.008333      2.000000
 


--------------------------------------------------------------------------------------------------------




 Dimension of arrays:
   k-points           NKPTS =      4   k-points in BZ     NKDIM =      4   number of bands    NBANDS=     12
   number of dos      NEDOS =    301   number of ions     NIONS =      6
   non local maximal  LDIM  =      4   non local SUM 2l+1 LMDIM =      8
   total plane-waves  NPLWV = ******
   max r-space proj   IRMAX =   2395   max aug-charges    IRDMAX=   1738
   dimension x,y,z NGX =   150 NGY =  150 NGZ =  150
   dimension x,y,z NGXF=   300 NGYF=  300 NGZF=  300
   support grid    NGXF=   300 NGYF=  300 NGZF=  300
   ions per type =               3   2   1
 NGX,Y,Z   is equivalent  to a cutoff of   8.31,  8.31,  8.31 a.u.
 NGXF,Y,Z  is equivalent  to a cutoff of  16.62, 16.62, 16.62 a.u.


 I would recommend the setting:
   dimension x,y,z NGX =   147 NGY =  147 NGZ =  147
 SYSTEM =  unknown system                          
 POSCAR =  H3 C2 N1                                

 Startparameter for this run:
   NWRITE =      2    write-flag & timer
   PREC   = normal    normal or accurate (medium, high low for compatibility)
   ISTART =      0    job   : 0-new  1-cont  2-samecut
   ICHARG =      2    charge: 1-file 2-atom 10-const
   ISPIN  =      1    spin polarized calculation?
   LNONCOLLINEAR =      F non collinear calculations
   LSORBIT =      F    spin-orbit coupling
   INIWAV =      1    electr: 0-lowe 1-rand  2-diag
   LASPH  =      F    aspherical Exc in radial PAW
   METAGGA=      F    non-selfconsistent MetaGGA calc.

 Electronic Relaxation 1
   ENCUT  =  400.0 eV  29.40 Ry    5.42 a.u.  48.92 48.92 48.92*2*pi/ulx,y,z
   ENINI  =  400.0     initial cutoff
   ENAUG  =  644.9 eV  augmentation charge cutoff
   NELM   =    500;   NELMIN=  6; NELMDL= -5     # of ELM steps 
   EDIFF  = 0.1E-03   stopping-criterion for ELM
   LREAL  =      T    real-space projection
   NLSPLINE    = F    spline interpolate recip. space projectors
   LCOMPAT=      F    compatible to vasp.4.4
   GGA_COMPAT  = T    GGA compatible to vasp.4.4-vasp.4.6
   LMAXPAW     = -100 max onsite density
   LMAXMIX     =    2 max onsite mixed and CHGCAR
   VOSKOWN=      0    Vosko Wilk Nusair interpolation
   ROPT   =   -0.00050  -0.00050  -0.00050
 Ionic relaxation
   EDIFFG = -.1E+00   stopping-criterion for IOM
   NSW    =    300    number of steps for IOM
   NBLOCK =      1;   KBLOCK =    300    inner block; outer block 
   IBRION =      3    ionic relax: 0-MD 1-quasi-New 2-CG
   NFREE  =      0    steps in history (QN), initial steepest desc. (CG)
   ISIF   =      2    stress and relaxation
   IWAVPR =     11    prediction:  0-non 1-charg 2-wave 3-comb
   ISYM   =      2    0-nonsym 1-usesym 2-fastsym
   LCORR  =      T    Harris-Foulkes like correction to forces

   POTIM  = 0.0000    time-step for ionic-motion
   TEIN   =    0.0    initial temperature
   TEBEG  =    0.0;   TEEND  =   0.0 temperature during run
   SMASS  =   2.00    Nose mass-parameter (am)
   estimated Nose-frequenzy (Omega)   =  0.12E+10 period in steps =  0.00 mass=   0.137E-25a.u.
   SCALEE = 1.0000    scale energy and forces
   NPACO  =    256;   APACO  = 16.0  distance and # of slots for P.C.
   PSTRESS=    0.0 pullay stress

  Mass of Ions in am
   POMASS =   1.00 12.01 14.00
  Ionic Valenz
   ZVAL   =   1.00  4.00  5.00
  Atomic Wigner-Seitz radii
   RWIGS  =  -1.00 -1.00 -1.00
  virtual crystal weights 
   VCA    =   1.00  1.00  1.00
   NELECT =      16.0000    total number of electrons
   NUPDOWN=      -1.0000    fix difference up-down

 DOS related values:
   EMIN   =  10.00;   EMAX   =-10.00  energy-range for DOS
   EFERMI =   0.00
   ISMEAR =     0;   SIGMA  =   0.20  broadening in eV -4-tet -1-fermi 0-gaus

 Electronic relaxation 2 (details)
   IALGO  =     38    algorithm
   LDIAG  =      T    sub-space diagonalisation (order eigenvalues)
   LSUBROT=      F    optimize rotation matrix (better conditioning)
   TURBO    =      0    0=normal 1=particle mesh
   IRESTART =      0    0=no restart 2=restart with 2 vectors
   NREBOOT  =      0    no. of reboots
   NMIN     =      0    reboot dimension
   EREF     =   0.00    reference energy to select bands
   IMIX   =      4    mixing-type and parameters
     AMIX     =   0.40;   BMIX     =  1.00
     AMIX_MAG =   1.60;   BMIX_MAG =  1.00
     AMIN     =   0.10
     WC   =   100.;   INIMIX=   1;  MIXPRE=   1;  MAXMIX= -45

 Intra band minimization:
   WEIMIN = 0.0010     energy-eigenvalue tresh-hold
   EBREAK =  0.21E-05  absolut break condition
   DEPER  =   0.30     relativ break condition  

   TIME   =   0.40     timestep for ELM

  volume/ion in A,a.u.               =    4500.00     30367.50
  Fermi-wavevector in a.u.,A,eV,Ry     =   0.137508  0.259852  0.257264  0.018908
  Thomas-Fermi vector in A             =   0.790710
 
 Write flags
   LWAVE  =      F    write WAVECAR
   LCHARG =      F    write CHGCAR
   LVTOT  =      F    write LOCPOT, total local potential
   LVHAR  =      F    write LOCPOT, Hartree potential only
   LELF   =      F    write electronic localiz. function (ELF)
   LORBIT =      0    0 simple, 1 ext, 2 COOP (PROOUT)


 Dipole corrections
   LMONO  =      F    monopole corrections only (constant potential shift)
   LDIPOL =      F    correct potential (dipole corrections)
   IDIPOL =      0    1-x, 2-y, 3-z, 4-all directions 
   EPSILON=  1.0000000 bulk dielectric constant

 Exchange correlation treatment:
   GGA     =    PE    GGA type
   LEXCH   =     8    internal setting for exchange type
   VOSKOWN=      0    Vosko Wilk Nusair interpolation
   LHFCALC =     F    Hartree Fock is set to
   LHFONE  =     F    Hartree Fock one center treatment
   AEXX    =    0.0000 exact exchange contribution

 Linear response parameters
   LEPSILON=     F    determine dielectric tensor
   LRPA    =     F    only Hartree local field effects (RPA)
   LNABLA  =     F    use nabla operator in PAW spheres
   LVEL    =     F    velocity operator in full k-point grid
   LINTERFAST=   F  fast interpolation
   KINTER  =     0    interpolate to denser k-point grid
   CSHIFT  =0.1000    complex shift for real part using Kramers Kronig
   OMEGAMAX=  -1.0    maximum frequency
   DEG_THRESHOLD= 0.2000000E-02 threshold for treating states as degnerate
   RTIME   =    0.100 relaxation time in fs

 Orbital magnetization related:
   ORBITALMAG=     F  switch on orbital magnetization
   LCHIMAG   =     F  perturbation theory with respect to B field
   DQ        =  0.001000  dq finite difference perturbation B field



--------------------------------------------------------------------------------------------------------


 quickmin algorithm: (dynamic with friction)
 charge density and potential will be updated during run
 non-spin polarized calculation
 Variant of blocked Davidson
 Davidson routine will perform the subspace rotation
 perform sub-space diagonalisation
    after iterative eigenvector-optimisation
 modified Broyden-mixing scheme, WC =      100.0
 initial mixing is a Kerker type mixing with AMIX =  0.4000 and BMIX =      1.0000
 Hartree-type preconditioning will be used
 using additional bands            4
 real space projection scheme for non local part
 use partial core corrections
 calculate Harris-corrections to forces 
   (improved forces if not selfconsistent)
 use gradient corrections 
 use of overlap-Matrix (Vanderbilt PP)
 Gauss-broadening in eV      SIGMA  =   0.20


--------------------------------------------------------------------------------------------------------


  energy-cutoff  :      400.00
  volume of cell :    27000.00
      direct lattice vectors                 reciprocal lattice vectors
    30.000000000  0.000000000  0.000000000     0.033333333  0.000000000  0.000000000
     0.000000000 30.000000000  0.000000000     0.000000000  0.033333333  0.000000000
     0.000000000  0.000000000 30.000000000     0.000000000  0.000000000  0.033333333

  length of vectors
    30.000000000 30.000000000 30.000000000     0.033333333  0.033333333  0.033333333


 
 k-points in units of 2pi/SCALE and weight: Mo2C                                    
   0.00833333  0.00833333  0.00833333       0.250
  -0.00833333  0.00833333  0.00833333       0.250
   0.00833333 -0.00833333  0.00833333       0.250
  -0.00833333 -0.00833333  0.00833333       0.250
 
 k-points in reciprocal lattice and weights: Mo2C                                    
   0.25000000  0.25000000  0.25000000       0.250
  -0.25000000  0.25000000  0.25000000       0.250
   0.25000000 -0.25000000  0.25000000       0.250
  -0.25000000 -0.25000000  0.25000000       0.250
 
 position of ions in fractional coordinates (direct lattice) 
   0.47600507  0.46556813  0.50730594
   0.47575917  0.51125002  0.46682704
   0.47553306  0.52255078  0.52562345
   0.48665226  0.49950091  0.49951729
   0.54340656  0.48714386  0.48536726
   0.54266634  0.51397510  0.51533902
 
 position of ions in cartesian coordinates  (Angst):
  14.28015224 13.96704375 15.21917814
  14.27277516 15.33750068 14.00481129
  14.26599176 15.67652335 15.76870346
  14.59956775 14.98502725 14.98551858
  16.30219674 14.61431592 14.56101782
  16.27999017 15.41925314 15.46017068
 


--------------------------------------------------------------------------------------------------------


 k-point  1 :   0.2500 0.2500 0.2500  plane waves:  490454
 k-point  2 :  -0.2500 0.2500 0.2500  plane waves:  490454
 k-point  3 :   0.2500-0.2500 0.2500  plane waves:  490454
 k-point  4 :  -0.2500-0.2500 0.2500  plane waves:  490454

 maximum and minimum number of plane-waves per node :    490454   490454

 maximum number of plane-waves:    490454
 maximum index in each direction: 
   IXMAX=   49   IYMAX=   49   IZMAX=   48
   IXMIN=  -49   IYMIN=  -49   IZMIN=  -49

 WARNING: aliasing errors must be expected set NGX to 198 to avoid them
 WARNING: aliasing errors must be expected set NGY to 198 to avoid them
 WARNING: aliasing errors must be expected set NGZ to 196 to avoid them
 aliasing errors are usually negligible using standard VASP settings
 and one can safely disregard these warnings

 serial   3D FFT for wavefunctions
 parallel 3D FFT for charge:
    minimum data exchange during FFTs selected (reduces bandwidth)


 total amount of memory used by VASP on root node  3203890. kBytes
========================================================================

   base      :      30000. kBytes
   nonlr-proj:        694. kBytes
   fftplans  :     924480. kBytes
   grid      :    1872000. kBytes
   one-center:         18. kBytes
   wavefun   :     376698. kBytes
 
     INWAV:  cpu time    0.0010: real time    0.0005
 Broyden mixing: mesh for mixing (old mesh)
   NGX = 97   NGY = 97   NGZ = 97
  (NGX  =300   NGY  =300   NGZ  =300)
  gives a total of 912673 points

 initial charge density was supplied:
 charge density of overlapping atoms calculated
 number of electron      16.0000000 magnetization 
 keeping initial charge density in first step


--------------------------------------------------------------------------------------------------------


 Maximum index for non-local projection operator         2275
 Maximum index for augmentation-charges         1498 (set IRDMAX)


--------------------------------------------------------------------------------------------------------


 First call to EWALD:  gamma=   0.059
 Maximum number of real-space cells 3x 3x 3
 Maximum number of reciprocal cells 3x 3x 3

 FEWALD executed in parallel
    FEWALD:  cpu time    0.0020: real time    0.0020


----------------------------------------- Iteration    1(   1)  ---------------------------------------


    POTLOK:  cpu time   30.5594: real time   30.6351
    SETDIJ:  cpu time    0.0060: real time    0.0065
     EDDAV:  cpu time  140.6126: real time  140.9908
       DOS:  cpu time    0.0000: real time    0.0003
    --------------------------------------------
      LOOP:  cpu time  171.1820: real time  171.6373

 eigenvalue-minimisations  :   160
 total energy-change (2. order) : 0.1072773E+03  (-0.2129259E+03)
 number of electron      16.0000000 magnetization 
 augmentation part       16.0000000 magnetization 

 Free energy of the ion-electron system (eV)
  ---------------------------------------------------
  alpha Z        PSCENC =         0.04144063
  Ewald energy   TEWEN  =       702.12366378
  -Hartree energ DENC   =     -1123.52639062
  -exchange      EXHF   =         0.00000000
  -V(xc)+E(xc)   XCENC  =        51.11595109
  PAW double counting   =       428.37890668     -430.73533574
  entropy T*S    EENTRO =        -0.23648432
  eigenvalues    EBANDS =      -116.04975759
  atomic energy  EATOM  =       596.16534815
  Solvation  Ediel_sol  =         0.00000000
  ---------------------------------------------------
  free energy    TOTEN  =       107.27734206 eV

  energy without entropy =      107.51382639  energy(sigma->0) =      107.39558423


--------------------------------------------------------------------------------------------------------




----------------------------------------- Iteration    1(   2)  ---------------------------------------


     EDDAV:  cpu time  163.6791: real time  164.0748
       DOS:  cpu time    0.0010: real time    0.0002
    --------------------------------------------
      LOOP:  cpu time  163.6811: real time  164.0787

 eigenvalue-minimisations  :   192
 total energy-change (2. order) :-0.1064247E+03  (-0.1024955E+03)
 number of electron      16.0000000 magnetization 
 augmentation part       16.0000000 magnetization 

 Free energy of the ion-electron system (eV)
  ---------------------------------------------------
  alpha Z        PSCENC =         0.04144063
  Ewald energy   TEWEN  =       702.12366378
  -Hartree energ DENC   =     -1123.52639062
  -exchange      EXHF   =         0.00000000
  -V(xc)+E(xc)   XCENC  =        51.11595109
  PAW double counting   =       428.37890668     -430.73533574
  entropy T*S    EENTRO =         0.00000000
  eigenvalues    EBANDS =      -222.71097554
  atomic energy  EATOM  =       596.16534815
  Solvation  Ediel_sol  =         0.00000000
  ---------------------------------------------------
  free energy    TOTEN  =         0.85260844 eV

  energy without entropy =        0.85260844  energy(sigma->0) =        0.85260844


--------------------------------------------------------------------------------------------------------




----------------------------------------- Iteration    1(   3)  ---------------------------------------


     EDDAV:  cpu time  115.3305: real time  115.6119
       DOS:  cpu time    0.0000: real time    0.0002
    --------------------------------------------
      LOOP:  cpu time  115.3325: real time  115.6172

 eigenvalue-minimisations  :   120
 total energy-change (2. order) :-0.3415307E+02  (-0.3406994E+02)
 number of electron      16.0000000 magnetization 
 augmentation part       16.0000000 magnetization 

 Free energy of the ion-electron system (eV)
  ---------------------------------------------------
  alpha Z        PSCENC =         0.04144063
  Ewald energy   TEWEN  =       702.12366378
  -Hartree energ DENC   =     -1123.52639062
  -exchange      EXHF   =         0.00000000
  -V(xc)+E(xc)   XCENC  =        51.11595109
  PAW double counting   =       428.37890668     -430.73533574
  entropy T*S    EENTRO =         0.00000000
  eigenvalues    EBANDS =      -256.86404329
  atomic energy  EATOM  =       596.16534815
  Solvation  Ediel_sol  =         0.00000000
  ---------------------------------------------------
  free energy    TOTEN  =       -33.30045932 eV

  energy without entropy =      -33.30045932  energy(sigma->0) =      -33.30045932


--------------------------------------------------------------------------------------------------------




----------------------------------------- Iteration    1(   4)  ---------------------------------------


     EDDAV:  cpu time  116.9242: real time  117.2073
       DOS:  cpu time    0.0000: real time    0.0002
    --------------------------------------------
      LOOP:  cpu time  116.9252: real time  117.2116

 eigenvalue-minimisations  :   128
 total energy-change (2. order) :-0.3411620E+01  (-0.3380800E+01)
 number of electron      16.0000000 magnetization 
 augmentation part       16.0000000 magnetization 

 Free energy of the ion-electron system (eV)
  ---------------------------------------------------
  alpha Z        PSCENC =         0.04144063
  Ewald energy   TEWEN  =       702.12366378
  -Hartree energ DENC   =     -1123.52639062
  -exchange      EXHF   =         0.00000000
  -V(xc)+E(xc)   XCENC  =        51.11595109
  PAW double counting   =       428.37890668     -430.73533574
  entropy T*S    EENTRO =         0.00000000
  eigenvalues    EBANDS =      -260.27566342
  atomic energy  EATOM  =       596.16534815
  Solvation  Ediel_sol  =         0.00000000
  ---------------------------------------------------
  free energy    TOTEN  =       -36.71207945 eV

  energy without entropy =      -36.71207945  energy(sigma->0) =      -36.71207945


--------------------------------------------------------------------------------------------------------




----------------------------------------- Iteration    1(   5)  ---------------------------------------


     EDDAV:  cpu time  118.7899: real time  119.0775
       DOS:  cpu time    0.0000: real time    0.0002
    CHARGE:  cpu time    9.2006: real time    9.2227
    MIXING:  cpu time    0.8179: real time    0.8202
    --------------------------------------------
      LOOP:  cpu time  128.8094: real time  129.1250

 eigenvalue-minimisations  :   132
 total energy-change (2. order) :-0.1090644E+00  (-0.1067761E+00)
 number of electron      15.9999989 magnetization 
 augmentation part        0.4267998 magnetization 

 Broyden mixing:
  rms(total) = 0.10284E+01    rms(broyden)= 0.10263E+01
  rms(prec ) = 0.10585E+01
  weight for this iteration     100.00

 Free energy of the ion-electron system (eV)
  ---------------------------------------------------
  alpha Z        PSCENC =         0.04144063
  Ewald energy   TEWEN  =       702.12366378
  -Hartree energ DENC   =     -1123.52639062
  -exchange      EXHF   =         0.00000000
  -V(xc)+E(xc)   XCENC  =        51.11595109
  PAW double counting   =       428.37890668     -430.73533574
  entropy T*S    EENTRO =         0.00000000
  eigenvalues    EBANDS =      -260.38472778
  atomic energy  EATOM  =       596.16534815
  Solvation  Ediel_sol  =         0.00000000
  ---------------------------------------------------
  free energy    TOTEN  =       -36.82114381 eV

  energy without entropy =      -36.82114381  energy(sigma->0) =      -36.82114381


--------------------------------------------------------------------------------------------------------




----------------------------------------- Iteration    1(   6)  ---------------------------------------


    POTLOK:  cpu time   29.4435: real time   29.5131
    SETDIJ:  cpu time    0.0070: real time    0.0067
     EDDAV:  cpu time   98.3920: real time   98.6209
       DOS:  cpu time    0.0000: real time    0.0002
    CHARGE:  cpu time    9.5595: real time    9.5830
    MIXING:  cpu time    0.9369: real time    0.9396
    --------------------------------------------
      LOOP:  cpu time  138.3400: real time  138.6681

 eigenvalue-minimisations  :   112
 total energy-change (2. order) : 0.2217540E+01  (-0.3413390E+00)
 number of electron      15.9999989 magnetization 
 augmentation part        0.3906843 magnetization 

 Broyden mixing:
  rms(total) = 0.55730E+00    rms(broyden)= 0.55718E+00
  rms(prec ) = 0.57144E+00
  weight for this iteration     100.00

 eigenvalues of (default mixing * dielectric matrix)
  average eigenvalue GAMMA=   1.7256
  1.7256

 Free energy of the ion-electron system (eV)
  ---------------------------------------------------
  alpha Z        PSCENC =         0.04144063
  Ewald energy   TEWEN  =       702.12366378
  -Hartree energ DENC   =     -1149.13617443
  -exchange      EXHF   =         0.00000000
  -V(xc)+E(xc)   XCENC  =        52.58340415
  PAW double counting   =       673.16436753     -675.76240258
  entropy T*S    EENTRO =         0.00000000
  eigenvalues    EBANDS =      -233.78325099
  atomic energy  EATOM  =       596.16534815
  Solvation  Ediel_sol  =         0.00000000
  ---------------------------------------------------
  free energy    TOTEN  =       -34.60360376 eV

  energy without entropy =      -34.60360376  energy(sigma->0) =      -34.60360376


--------------------------------------------------------------------------------------------------------




----------------------------------------- Iteration    1(   7)  ---------------------------------------


    POTLOK:  cpu time   31.5172: real time   31.5936
    SETDIJ:  cpu time    0.0070: real time    0.0066
     EDDAV:  cpu time  121.9855: real time  122.2796
       DOS:  cpu time    0.0000: real time    0.0002
    CHARGE:  cpu time    9.3446: real time    9.3667
    MIXING:  cpu time    0.9919: real time    0.9942
    --------------------------------------------
      LOOP:  cpu time  163.8491: real time  164.2465

 eigenvalue-minimisations  :   128
 total energy-change (2. order) : 0.6034818E+00  (-0.1596549E+00)
 number of electron      15.9999990 magnetization 
 augmentation part        0.3807677 magnetization 

 Broyden mixing:
  rms(total) = 0.19547E+00    rms(broyden)= 0.19541E+00
  rms(prec ) = 0.20026E+00
  weight for this iteration     100.00

 eigenvalues of (default mixing * dielectric matrix)
  average eigenvalue GAMMA=   1.6162
  1.1098  2.1226

 Free energy of the ion-electron system (eV)
  ---------------------------------------------------
  alpha Z        PSCENC =         0.04144063
  Ewald energy   TEWEN  =       702.12366378
  -Hartree energ DENC   =     -1169.20210281
  -exchange      EXHF   =         0.00000000
  -V(xc)+E(xc)   XCENC  =        53.82677593
  PAW double counting   =      1000.98447958    -1003.71874138
  entropy T*S    EENTRO =         0.00000000
  eigenvalues    EBANDS =      -214.22098582
  atomic energy  EATOM  =       596.16534815
  Solvation  Ediel_sol  =         0.00000000
  ---------------------------------------------------
  free energy    TOTEN  =       -34.00012195 eV

  energy without entropy =      -34.00012195  energy(sigma->0) =      -34.00012195


--------------------------------------------------------------------------------------------------------




----------------------------------------- Iteration    1(   8)  ---------------------------------------


    POTLOK:  cpu time   30.7333: real time   30.8080
    SETDIJ:  cpu time    0.0060: real time    0.0066
     EDDAV:  cpu time  122.2134: real time  122.5088
       DOS:  cpu time    0.0000: real time    0.0002
    CHARGE:  cpu time    9.3596: real time    9.3828
    MIXING:  cpu time    1.1258: real time    1.1279
    --------------------------------------------
      LOOP:  cpu time  163.4422: real time  163.8396

 eigenvalue-minimisations  :   128
 total energy-change (2. order) : 0.5268239E-01  (-0.9127589E-02)
 number of electron      15.9999990 magnetization 
 augmentation part        0.3737562 magnetization 

 Broyden mixing:
  rms(total) = 0.72914E-01    rms(broyden)= 0.72893E-01
  rms(prec ) = 0.76653E-01
  weight for this iteration     100.00

 eigenvalues of (default mixing * dielectric matrix)
  average eigenvalue GAMMA=   1.5828
  2.3387  0.8278  1.5820

 Free energy of the ion-electron system (eV)
  ---------------------------------------------------
  alpha Z        PSCENC =         0.04144063
  Ewald energy   TEWEN  =       702.12366378
  -Hartree energ DENC   =     -1174.17652184
  -exchange      EXHF   =         0.00000000
  -V(xc)+E(xc)   XCENC  =        54.15641824
  PAW double counting   =      1130.86926372    -1133.60163485
  entropy T*S    EENTRO =         0.00000000
  eigenvalues    EBANDS =      -209.52541740
  atomic energy  EATOM  =       596.16534815
  Solvation  Ediel_sol  =         0.00000000
  ---------------------------------------------------
  free energy    TOTEN  =       -33.94743955 eV

  energy without entropy =      -33.94743955  energy(sigma->0) =      -33.94743955


--------------------------------------------------------------------------------------------------------




----------------------------------------- Iteration    1(   9)  ---------------------------------------


    POTLOK:  cpu time   30.3694: real time   30.4437
    SETDIJ:  cpu time    0.0070: real time    0.0068
     EDDAV:  cpu time  118.0481: real time  118.3340
       DOS:  cpu time    0.0000: real time    0.0002
    CHARGE:  cpu time    9.5585: real time    9.5832
    MIXING:  cpu time    1.1368: real time    1.1394
    --------------------------------------------
      LOOP:  cpu time  159.1218: real time  159.5127

 eigenvalue-minimisations  :   128
 total energy-change (2. order) : 0.1332909E-01  (-0.1841641E-02)
 number of electron      15.9999990 magnetization 
 augmentation part        0.3748619 magnetization 

 Broyden mixing:
  rms(total) = 0.21139E-01    rms(broyden)= 0.21131E-01
  rms(prec ) = 0.25993E-01
  weight for this iteration     100.00

 eigenvalues of (default mixing * dielectric matrix)
  average eigenvalue GAMMA=   1.5125
  2.2177  1.8210  0.8787  1.1325

 Free energy of the ion-electron system (eV)
  ---------------------------------------------------
  alpha Z        PSCENC =         0.04144063
  Ewald energy   TEWEN  =       702.12366378
  -Hartree energ DENC   =     -1175.48021502
  -exchange      EXHF   =         0.00000000
  -V(xc)+E(xc)   XCENC  =        54.22441385
  PAW double counting   =      1173.54680559    -1176.25343549
  entropy T*S    EENTRO =         0.00000000
  eigenvalues    EBANDS =      -208.30213196
  atomic energy  EATOM  =       596.16534815
  Solvation  Ediel_sol  =         0.00000000
  ---------------------------------------------------
  free energy    TOTEN  =       -33.93411046 eV

  energy without entropy =      -33.93411046  energy(sigma->0) =      -33.93411046


--------------------------------------------------------------------------------------------------------




----------------------------------------- Iteration    1(  10)  ---------------------------------------


    POTLOK:  cpu time   30.2964: real time   30.3720
    SETDIJ:  cpu time    0.0070: real time    0.0068
     EDDAV:  cpu time  121.4245: real time  121.7225
       DOS:  cpu time    0.0000: real time    0.0002
    CHARGE:  cpu time    9.3226: real time    9.3451
    MIXING:  cpu time    1.3458: real time    1.3494
    --------------------------------------------
      LOOP:  cpu time  162.3973: real time  162.8008

 eigenvalue-minimisations  :   128
 total energy-change (2. order) : 0.3748822E-03  (-0.3610135E-03)
 number of electron      15.9999990 magnetization 
 augmentation part        0.3756832 magnetization 

 Broyden mixing:
  rms(total) = 0.11778E-01    rms(broyden)= 0.11774E-01
  rms(prec ) = 0.16676E-01
  weight for this iteration     100.00

 eigenvalues of (default mixing * dielectric matrix)
  average eigenvalue GAMMA=   1.4772
  2.1278  2.1278  1.3966  0.8670  0.8670

 Free energy of the ion-electron system (eV)
  ---------------------------------------------------
  alpha Z        PSCENC =         0.04144063
  Ewald energy   TEWEN  =       702.12366378
  -Hartree energ DENC   =     -1176.36497657
  -exchange      EXHF   =         0.00000000
  -V(xc)+E(xc)   XCENC  =        54.23956348
  PAW double counting   =      1170.44255557    -1173.14438843
  entropy T*S    EENTRO =         0.00000000
  eigenvalues    EBANDS =      -207.43694219
  atomic energy  EATOM  =       596.16534815
  Solvation  Ediel_sol  =         0.00000000
  ---------------------------------------------------
  free energy    TOTEN  =       -33.93373558 eV

  energy without entropy =      -33.93373558  energy(sigma->0) =      -33.93373558


--------------------------------------------------------------------------------------------------------




----------------------------------------- Iteration    1(  11)  ---------------------------------------


    POTLOK:  cpu time   29.0496: real time   29.1198
    SETDIJ:  cpu time    0.0060: real time    0.0064
     EDDAV:  cpu time  121.0416: real time  121.3357
       DOS:  cpu time    0.0000: real time    0.0002
    CHARGE:  cpu time    9.1286: real time    9.1511
    MIXING:  cpu time    1.5288: real time    1.5316
    --------------------------------------------
      LOOP:  cpu time  160.7566: real time  161.1495

 eigenvalue-minimisations  :   128
 total energy-change (2. order) :-0.1174919E-02  (-0.1007678E-03)
 number of electron      15.9999990 magnetization 
 augmentation part        0.3750966 magnetization 

 Broyden mixing:
  rms(total) = 0.78002E-02    rms(broyden)= 0.77991E-02
  rms(prec ) = 0.11932E-01
  weight for this iteration     100.00

 eigenvalues of (default mixing * dielectric matrix)
  average eigenvalue GAMMA=   1.6642
  2.9755  2.5230  1.3099  1.3099  0.9336  0.9336

 Free energy of the ion-electron system (eV)
  ---------------------------------------------------
  alpha Z        PSCENC =         0.04144063
  Ewald energy   TEWEN  =       702.12366378
  -Hartree energ DENC   =     -1177.35431896
  -exchange      EXHF   =         0.00000000
  -V(xc)+E(xc)   XCENC  =        54.26687347
  PAW double counting   =      1167.96819677    -1170.66919815
  entropy T*S    EENTRO =         0.00000000
  eigenvalues    EBANDS =      -206.47691620
  atomic energy  EATOM  =       596.16534815
  Solvation  Ediel_sol  =         0.00000000
  ---------------------------------------------------
  free energy    TOTEN  =       -33.93491050 eV

  energy without entropy =      -33.93491050  energy(sigma->0) =      -33.93491050


--------------------------------------------------------------------------------------------------------




----------------------------------------- Iteration    1(  12)  ---------------------------------------


    POTLOK:  cpu time   30.1634: real time   30.2362
    SETDIJ:  cpu time    0.0060: real time    0.0063
     EDDAV:  cpu time  117.7001: real time  117.9861
       DOS:  cpu time    0.0000: real time    0.0002
    CHARGE:  cpu time    9.4106: real time    9.4345
    MIXING:  cpu time    1.5078: real time    1.5126
    --------------------------------------------
      LOOP:  cpu time  158.7909: real time  159.1804

 eigenvalue-minimisations  :   128
 total energy-change (2. order) :-0.4289910E-02  (-0.2239498E-03)
 number of electron      15.9999990 magnetization 
 augmentation part        0.3748275 magnetization 

 Broyden mixing:
  rms(total) = 0.38993E-02    rms(broyden)= 0.38965E-02
  rms(prec ) = 0.61922E-02
  weight for this iteration     100.00

 eigenvalues of (default mixing * dielectric matrix)
  average eigenvalue GAMMA=   1.7911
  3.8625  2.1691  2.1043  1.4144  0.9221  0.9221  1.1435

 Free energy of the ion-electron system (eV)
  ---------------------------------------------------
  alpha Z        PSCENC =         0.04144063
  Ewald energy   TEWEN  =       702.12366378
  -Hartree energ DENC   =     -1178.82094209
  -exchange      EXHF   =         0.00000000
  -V(xc)+E(xc)   XCENC  =        54.29963276
  PAW double counting   =      1164.06062387    -1166.75800828
  entropy T*S    EENTRO =         0.00000000
  eigenvalues    EBANDS =      -205.05095924
  atomic energy  EATOM  =       596.16534815
  Solvation  Ediel_sol  =         0.00000000
  ---------------------------------------------------
  free energy    TOTEN  =       -33.93920041 eV

  energy without entropy =      -33.93920041  energy(sigma->0) =      -33.93920041


--------------------------------------------------------------------------------------------------------




----------------------------------------- Iteration    1(  13)  ---------------------------------------


    POTLOK:  cpu time   30.8013: real time   30.8756
    SETDIJ:  cpu time    0.0060: real time    0.0065
     EDDAV:  cpu time  139.9907: real time  140.3282
       DOS:  cpu time    0.0000: real time    0.0002
    CHARGE:  cpu time    9.3396: real time    9.3624
    MIXING:  cpu time    1.6997: real time    1.7039
    --------------------------------------------
      LOOP:  cpu time  181.8404: real time  182.2815

 eigenvalue-minimisations  :   160
 total energy-change (2. order) :-0.5514032E-02  (-0.1264708E-03)
 number of electron      15.9999990 magnetization 
 augmentation part        0.3746156 magnetization 

 Broyden mixing:
  rms(total) = 0.27117E-02    rms(broyden)= 0.27099E-02
  rms(prec ) = 0.38830E-02
  weight for this iteration     100.00

 eigenvalues of (default mixing * dielectric matrix)
  average eigenvalue GAMMA=   1.8693
  4.7734  2.5570  2.2048  1.4748  1.2740  0.9301  0.9301  0.8106

 Free energy of the ion-electron system (eV)
  ---------------------------------------------------
  alpha Z        PSCENC =         0.04144063
  Ewald energy   TEWEN  =       702.12366378
  -Hartree energ DENC   =     -1179.51692978
  -exchange      EXHF   =         0.00000000
  -V(xc)+E(xc)   XCENC  =        54.30997344
  PAW double counting   =      1163.73842772    -1166.43642448
  entropy T*S    EENTRO =         0.00000000
  eigenvalues    EBANDS =      -204.37021390
  atomic energy  EATOM  =       596.16534815
  Solvation  Ediel_sol  =         0.00000000
  ---------------------------------------------------
  free energy    TOTEN  =       -33.94471444 eV

  energy without entropy =      -33.94471444  energy(sigma->0) =      -33.94471444


--------------------------------------------------------------------------------------------------------




----------------------------------------- Iteration    1(  14)  ---------------------------------------


    POTLOK:  cpu time   31.1623: real time   31.2376
    SETDIJ:  cpu time    0.0060: real time    0.0067
     EDDAV:  cpu time  115.9274: real time  116.2071
       DOS:  cpu time    0.0000: real time    0.0002
    CHARGE:  cpu time    8.9966: real time    9.0179
    MIXING:  cpu time    1.7817: real time    1.7875
    --------------------------------------------
      LOOP:  cpu time  157.8750: real time  158.2615

 eigenvalue-minimisations  :   128
 total energy-change (2. order) :-0.3242949E-02  (-0.3278892E-04)
 number of electron      15.9999990 magnetization 
 augmentation part        0.3746091 magnetization 

 Broyden mixing:
  rms(total) = 0.15004E-02    rms(broyden)= 0.15002E-02
  rms(prec ) = 0.22492E-02
  weight for this iteration     100.00

 eigenvalues of (default mixing * dielectric matrix)
  average eigenvalue GAMMA=   1.9178
  5.0480  2.9360  2.2585  1.7941  1.2835  1.2835  0.9177  0.9177  0.8209

 Free energy of the ion-electron system (eV)
  ---------------------------------------------------
  alpha Z        PSCENC =         0.04144063
  Ewald energy   TEWEN  =       702.12366378
  -Hartree energ DENC   =     -1179.71926265
  -exchange      EXHF   =         0.00000000
  -V(xc)+E(xc)   XCENC  =        54.30480731
  PAW double counting   =      1162.20747924    -1164.90522251
  entropy T*S    EENTRO =         0.00000000
  eigenvalues    EBANDS =      -204.16621135
  atomic energy  EATOM  =       596.16534815
  Solvation  Ediel_sol  =         0.00000000
  ---------------------------------------------------
  free energy    TOTEN  =       -33.94795739 eV

  energy without entropy =      -33.94795739  energy(sigma->0) =      -33.94795739


--------------------------------------------------------------------------------------------------------




----------------------------------------- Iteration    1(  15)  ---------------------------------------


    POTLOK:  cpu time   31.4912: real time   31.5689
    SETDIJ:  cpu time    0.0070: real time    0.0069
     EDDAV:  cpu time  118.0151: real time  118.3013
       DOS:  cpu time    0.0000: real time    0.0002
    CHARGE:  cpu time    9.1516: real time    9.1730
    MIXING:  cpu time    2.0737: real time    2.0789
    --------------------------------------------
      LOOP:  cpu time  160.7396: real time  161.1338

 eigenvalue-minimisations  :   128
 total energy-change (2. order) :-0.2370311E-02  (-0.1898859E-04)
 number of electron      15.9999990 magnetization 
 augmentation part        0.3745964 magnetization 

 Broyden mixing:
  rms(total) = 0.87344E-03    rms(broyden)= 0.87333E-03
  rms(prec ) = 0.13629E-02
  weight for this iteration     100.00

 eigenvalues of (default mixing * dielectric matrix)
  average eigenvalue GAMMA=   2.0708
  6.6038  3.3352  2.3444  1.9689  1.4821  1.3162  0.9399  0.9399  0.8889  0.8889

 Free energy of the ion-electron system (eV)
  ---------------------------------------------------
  alpha Z        PSCENC =         0.04144063
  Ewald energy   TEWEN  =       702.12366378
  -Hartree energ DENC   =     -1179.77326765
  -exchange      EXHF   =         0.00000000
  -V(xc)+E(xc)   XCENC  =        54.30067644
  PAW double counting   =      1162.69012408    -1165.38777634
  entropy T*S    EENTRO =         0.00000000
  eigenvalues    EBANDS =      -204.11053680
  atomic energy  EATOM  =       596.16534815
  Solvation  Ediel_sol  =         0.00000000
  ---------------------------------------------------
  free energy    TOTEN  =       -33.95032770 eV

  energy without entropy =      -33.95032770  energy(sigma->0) =      -33.95032770


--------------------------------------------------------------------------------------------------------




----------------------------------------- Iteration    1(  16)  ---------------------------------------


    POTLOK:  cpu time   28.5577: real time   28.6247
    SETDIJ:  cpu time    0.0080: real time    0.0073
     EDDAV:  cpu time  117.4192: real time  117.6972
       DOS:  cpu time    0.0000: real time    0.0002
    CHARGE:  cpu time    6.6870: real time    6.7020
    MIXING:  cpu time    1.3878: real time    1.3909
    --------------------------------------------
      LOOP:  cpu time  154.0616: real time  154.4268

 eigenvalue-minimisations  :   128
 total energy-change (2. order) :-0.1514566E-02  (-0.1341600E-04)
 number of electron      15.9999990 magnetization 
 augmentation part        0.3745849 magnetization 

 Broyden mixing:
  rms(total) = 0.51891E-03    rms(broyden)= 0.51870E-03
  rms(prec ) = 0.75509E-03
  weight for this iteration     100.00

 eigenvalues of (default mixing * dielectric matrix)
  average eigenvalue GAMMA=   2.2328
  7.3741  3.9750  2.5629  2.5629  1.5396  1.4482  1.4482  0.9392  0.9392  0.9351
  0.8362

 Free energy of the ion-electron system (eV)
  ---------------------------------------------------
  alpha Z        PSCENC =         0.04144063
  Ewald energy   TEWEN  =       702.12366378
  -Hartree energ DENC   =     -1179.85159564
  -exchange      EXHF   =         0.00000000
  -V(xc)+E(xc)   XCENC  =        54.29906985
  PAW double counting   =      1162.79471678    -1165.49238033
  entropy T*S    EENTRO =         0.00000000
  eigenvalues    EBANDS =      -204.03210549
  atomic energy  EATOM  =       596.16534815
  Solvation  Ediel_sol  =         0.00000000
  ---------------------------------------------------
  free energy    TOTEN  =       -33.95184227 eV

  energy without entropy =      -33.95184227  energy(sigma->0) =      -33.95184227


--------------------------------------------------------------------------------------------------------




----------------------------------------- Iteration    1(  17)  ---------------------------------------


    POTLOK:  cpu time   28.3927: real time   28.4620
    SETDIJ:  cpu time    0.0070: real time    0.0066
     EDDAV:  cpu time   94.2437: real time   94.4706
       DOS:  cpu time    0.0000: real time    0.0002
    CHARGE:  cpu time    7.8878: real time    7.9059
    MIXING:  cpu time    2.0947: real time    2.1005
    --------------------------------------------
      LOOP:  cpu time  132.6288: real time  132.9507

 eigenvalue-minimisations  :    96
 total energy-change (2. order) :-0.9362164E-03  (-0.5072604E-05)
 number of electron      15.9999990 magnetization 
 augmentation part        0.3745821 magnetization 

 Broyden mixing:
  rms(total) = 0.28172E-03    rms(broyden)= 0.28165E-03
  rms(prec ) = 0.37153E-03
  weight for this iteration     100.00

 eigenvalues of (default mixing * dielectric matrix)
  average eigenvalue GAMMA=   2.2326
  7.8413  4.3414  2.7880  2.3248  1.8632  1.5996  1.2867  1.0775  0.9389  0.9389
  0.9612  0.8302

 Free energy of the ion-electron system (eV)
  ---------------------------------------------------
  alpha Z        PSCENC =         0.04144063
  Ewald energy   TEWEN  =       702.12366378
  -Hartree energ DENC   =     -1179.85464987
  -exchange      EXHF   =         0.00000000
  -V(xc)+E(xc)   XCENC  =        54.29723904
  PAW double counting   =      1162.79825153    -1165.49580874
  entropy T*S    EENTRO =         0.00000000
  eigenvalues    EBANDS =      -204.02826301
  atomic energy  EATOM  =       596.16534815
  Solvation  Ediel_sol  =         0.00000000
  ---------------------------------------------------
  free energy    TOTEN  =       -33.95277848 eV

  energy without entropy =      -33.95277848  energy(sigma->0) =      -33.95277848


--------------------------------------------------------------------------------------------------------




----------------------------------------- Iteration    1(  18)  ---------------------------------------


    POTLOK:  cpu time   29.8665: real time   29.9397
    SETDIJ:  cpu time    0.0070: real time    0.0069
     EDDAV:  cpu time   92.4619: real time   92.6819
       DOS:  cpu time    0.0000: real time    0.0002
    CHARGE:  cpu time    8.7057: real time    8.7271
    MIXING:  cpu time    2.5106: real time    2.5166
    --------------------------------------------
      LOOP:  cpu time  133.5537: real time  133.8766

 eigenvalue-minimisations  :    96
 total energy-change (2. order) :-0.1942533E-03  (-0.1625147E-05)
 number of electron      15.9999990 magnetization 
 augmentation part        0.3745801 magnetization 

 Broyden mixing:
  rms(total) = 0.16773E-03    rms(broyden)= 0.16772E-03
  rms(prec ) = 0.23244E-03
  weight for this iteration     100.00

 eigenvalues of (default mixing * dielectric matrix)
  average eigenvalue GAMMA=   2.2945
  8.1999  5.0659  2.6617  2.6617  2.2085  1.5383  1.3963  1.3963  1.0719  0.9350
  0.9350  0.9188  0.8391

 Free energy of the ion-electron system (eV)
  ---------------------------------------------------
  alpha Z        PSCENC =         0.04144063
  Ewald energy   TEWEN  =       702.12366378
  -Hartree energ DENC   =     -1179.85589310
  -exchange      EXHF   =         0.00000000
  -V(xc)+E(xc)   XCENC  =        54.29704718
  PAW double counting   =      1162.88611529    -1165.58367504
  entropy T*S    EENTRO =         0.00000000
  eigenvalues    EBANDS =      -204.02701962
  atomic energy  EATOM  =       596.16534815
  Solvation  Ediel_sol  =         0.00000000
  ---------------------------------------------------
  free energy    TOTEN  =       -33.95297274 eV

  energy without entropy =      -33.95297274  energy(sigma->0) =      -33.95297274


--------------------------------------------------------------------------------------------------------




----------------------------------------- Iteration    1(  19)  ---------------------------------------


    POTLOK:  cpu time   30.0024: real time   30.0749
    SETDIJ:  cpu time    0.0070: real time    0.0069
     EDDAV:  cpu time   86.0789: real time   86.2736
       DOS:  cpu time    0.0000: real time    0.0002
    CHARGE:  cpu time    8.9756: real time    8.9967
    MIXING:  cpu time    2.5936: real time    2.6001
    --------------------------------------------
      LOOP:  cpu time  127.6596: real time  127.9571

 eigenvalue-minimisations  :    96
 total energy-change (2. order) :-0.1532142E-03  (-0.8762811E-06)
 number of electron      15.9999990 magnetization 
 augmentation part        0.3745708 magnetization 

 Broyden mixing:
  rms(total) = 0.94642E-04    rms(broyden)= 0.94606E-04
  rms(prec ) = 0.13031E-03
  weight for this iteration     100.00

 eigenvalues of (default mixing * dielectric matrix)
  average eigenvalue GAMMA=   2.3453
  8.7344  5.1827  3.5336  2.5503  2.0307  2.0307  1.5536  1.2981  1.2981  0.9345
  0.9345  1.0095  0.9106  0.8330

 Free energy of the ion-electron system (eV)
  ---------------------------------------------------
  alpha Z        PSCENC =         0.04144063
  Ewald energy   TEWEN  =       702.12366378
  -Hartree energ DENC   =     -1179.85157148
  -exchange      EXHF   =         0.00000000
  -V(xc)+E(xc)   XCENC  =        54.29661799
  PAW double counting   =      1162.80391324    -1165.50150165
  entropy T*S    EENTRO =         0.00000000
  eigenvalues    EBANDS =      -204.03103662
  atomic energy  EATOM  =       596.16534815
  Solvation  Ediel_sol  =         0.00000000
  ---------------------------------------------------
  free energy    TOTEN  =       -33.95312595 eV

  energy without entropy =      -33.95312595  energy(sigma->0) =      -33.95312595


--------------------------------------------------------------------------------------------------------




----------------------------------------- Iteration    1(  20)  ---------------------------------------


    POTLOK:  cpu time   30.7293: real time   30.8025
    SETDIJ:  cpu time    0.0060: real time    0.0065
     EDDAV:  cpu time   91.7001: real time   91.9132
       DOS:  cpu time    0.0000: real time    0.0002
    --------------------------------------------
      LOOP:  cpu time  122.4384: real time  122.7271

 eigenvalue-minimisations  :    96
 total energy-change (2. order) :-0.7625951E-04  (-0.3263259E-06)
 number of electron      15.9999990 magnetization 
 augmentation part        0.3745708 magnetization 

 Free energy of the ion-electron system (eV)
  ---------------------------------------------------
  alpha Z        PSCENC =         0.04144063
  Ewald energy   TEWEN  =       702.12366378
  -Hartree energ DENC   =     -1179.85518098
  -exchange      EXHF   =         0.00000000
  -V(xc)+E(xc)   XCENC  =        54.29651856
  PAW double counting   =      1162.73725838    -1165.43482500
  entropy T*S    EENTRO =         0.00000000
  eigenvalues    EBANDS =      -204.02742574
  atomic energy  EATOM  =       596.16534815
  Solvation  Ediel_sol  =         0.00000000
  ---------------------------------------------------
  free energy    TOTEN  =       -33.95320221 eV

  energy without entropy =      -33.95320221  energy(sigma->0) =      -33.95320221


--------------------------------------------------------------------------------------------------------




 average (electrostatic) potential at core
  the test charge radii are     0.5201  0.6991  0.7089
  (the norm of the test charge is              1.0000)
       1 -43.1714       2 -43.1690       3 -43.2363       4 -60.7408       5 -59.8181
       6 -74.3733
 
 
 
 E-fermi :  -6.2957     XC(G=0):  -0.0895     alpha+bet : -0.0137


 k-point     1 :       0.2500    0.2500    0.2500
  band No.  band energies     occupation 
      1     -24.0869      2.00000
      2     -17.8591      2.00000
      3     -12.4976      2.00000
      4     -11.6618      2.00000
      5     -10.8799      2.00000
      6      -9.4388      2.00000
      7      -8.3407      2.00000
      8      -7.2489      2.00000
      9      -1.7488      0.00000
     10      -0.8920      0.00000
     11      -0.6882      0.00000
     12      -0.2124      0.00000

 k-point     2 :      -0.2500    0.2500    0.2500
  band No.  band energies     occupation 
      1     -24.0869      2.00000
      2     -17.8591      2.00000
      3     -12.4977      2.00000
      4     -11.6618      2.00000
      5     -10.8799      2.00000
      6      -9.4388      2.00000
      7      -8.3407      2.00000
      8      -7.2489      2.00000
      9      -1.7487      0.00000
     10      -0.8920      0.00000
     11      -0.6882      0.00000
     12      -0.2124      0.00000

 k-point     3 :       0.2500   -0.2500    0.2500
  band No.  band energies     occupation 
      1     -24.0869      2.00000
      2     -17.8591      2.00000
      3     -12.4976      2.00000
      4     -11.6618      2.00000
      5     -10.8799      2.00000
      6      -9.4388      2.00000
      7      -8.3407      2.00000
      8      -7.2489      2.00000
      9      -1.7488      0.00000
     10      -0.8920      0.00000
     11      -0.6882      0.00000
     12      -0.2124      0.00000

 k-point     4 :      -0.2500   -0.2500    0.2500
  band No.  band energies     occupation 
      1     -24.0869      2.00000
      2     -17.8591      2.00000
      3     -12.4976      2.00000
      4     -11.6618      2.00000
      5     -10.8799      2.00000
      6      -9.4388      2.00000
      7      -8.3407      2.00000
      8      -7.2489      2.00000
      9      -1.7488      0.00000
     10      -0.8920      0.00000
     11      -0.6882      0.00000
     12      -0.2124      0.00000


--------------------------------------------------------------------------------------------------------


 soft charge-density along one line, spin component           1
         0         1         2         3         4         5         6         7         8         9
 total charge-density along one line
 
 pseudopotential strength for first ion, spin component:           1
 -2.364  -4.077  -0.002   0.000  -0.001
 -4.077  -6.947  -0.005   0.001  -0.002
 -0.002  -0.005  -0.329  -0.001   0.001
  0.000   0.001  -0.001  -0.333   0.000
 -0.001  -0.002   0.001   0.000  -0.333
 total augmentation occupancy for first ion, spin component:           1
  3.546  -0.642   0.427  -0.096   0.136
 -0.642   0.133  -0.078   0.018  -0.026
  0.427  -0.078   0.053  -0.010   0.014
 -0.096   0.018  -0.010   0.011  -0.004
  0.136  -0.026   0.014  -0.004   0.012


------------------------ aborting loop because EDIFF is reached ----------------------------------------


    CHARGE:  cpu time    8.0648: real time    8.0834
    FORLOC:  cpu time    2.6886: real time    2.6941
    FORNL :  cpu time   23.8854: real time   23.9413
    STRESS:  cpu time   71.3242: real time   71.4906
    FORCOR:  cpu time   19.9150: real time   19.9536
    FORHAR:  cpu time    6.8830: real time    6.8969
    MIXING:  cpu time    1.4628: real time    1.4657
    OFIELD:  cpu time    0.0000: real time    0.0000

  FORCE on cell =-STRESS in cart. coord.  units (eV):
  Direction    XX          YY          ZZ          XY          YZ          ZX
  --------------------------------------------------------------------------------------
  Alpha Z     0.04144     0.04144     0.04144
  Ewald     340.03487   166.06648   196.02234     9.21394   135.44690     8.39911
  Hartree   488.25797   339.63564   351.96069     8.30463    55.79817     8.02467
  E(xc)     -59.14111   -59.17176   -59.06920    -0.01434     0.46252    -0.01940
  Local    -987.70916  -672.17994  -712.55497   -17.45685  -182.61480   -16.44687
  n-local   -15.14388   -24.34253   -25.23094     0.35393    -3.98551     0.35854
  augment     0.22951     0.79293     0.81071    -0.02110     0.06771    -0.01663
  Kinetic   232.52992   248.18722   247.04807    -0.38274    -5.17857    -0.30141
  Fock        0.00000     0.00000     0.00000     0.00000     0.00000     0.00000
  -------------------------------------------------------------------------------------
  Total      -0.90044    -0.97053    -0.97186    -0.00252    -0.00358    -0.00199
  in kB      -0.05343    -0.05759    -0.05767    -0.00015    -0.00021    -0.00012
  external pressure =       -0.06 kB  Pullay stress =        0.00 kB


 VOLUME and BASIS-vectors are now :
 -----------------------------------------------------------------------------
  energy-cutoff  :      400.00
  volume of cell :    27000.00
      direct lattice vectors                 reciprocal lattice vectors
    30.000000000  0.000000000  0.000000000     0.033333333  0.000000000  0.000000000
     0.000000000 30.000000000  0.000000000     0.000000000  0.033333333  0.000000000
     0.000000000  0.000000000 30.000000000     0.000000000  0.000000000  0.033333333

  length of vectors
    30.000000000 30.000000000 30.000000000     0.033333333  0.033333333  0.033333333


 FORCES acting on ions
    electron-ion (+dipol)            ewald-force                    non-local-force                 convergence-correction
 -----------------------------------------------------------------------------------------------
   0.323E+02 0.572E+02 -.129E+02   -.340E+02 -.627E+02 0.141E+02   0.172E+01 0.547E+01 -.123E+01   -.325E-04 -.750E-04 0.447E-04
   0.327E+02 -.195E+02 0.550E+02   -.345E+02 0.213E+02 -.603E+02   0.176E+01 -.187E+01 0.528E+01   -.328E-04 0.533E-04 -.693E-04
   0.363E+02 -.373E+02 -.424E+02   -.380E+02 0.409E+02 0.465E+02   0.174E+01 -.363E+01 -.412E+01   0.906E-05 0.712E-04 0.803E-04
   0.100E+03 0.694E+01 0.716E+01   -.108E+03 -.743E+01 -.767E+01   0.768E+01 0.483E+00 0.507E+00   0.202E-03 0.200E-03 0.222E-03
   -.924E+02 0.136E+03 0.153E+03   0.994E+02 -.150E+03 -.169E+03   -.706E+01 0.143E+02 0.160E+02   0.266E-03 0.518E-03 0.576E-03
   -.107E+03 -.135E+03 -.150E+03   0.115E+03 0.158E+03 0.176E+03   -.828E+01 -.231E+02 -.257E+02   0.367E-03 0.254E-03 0.277E-03
 -----------------------------------------------------------------------------------------------
   0.244E+01 0.834E+01 0.926E+01   -.142E-13 0.000E+00 0.000E+00   -.244E+01 -.834E+01 -.928E+01   0.778E-03 0.102E-02 0.113E-02
 
 
 POSITION                                       TOTAL-FORCE (eV/Angst)
 -----------------------------------------------------------------------------------
     14.28015     13.96704     15.21918         0.000532     -0.000055      0.001065
     14.27278     15.33750     14.00481        -0.000777     -0.000882      0.000455
     14.26599     15.67652     15.76870         0.000447      0.000185      0.000201
     14.59957     14.98503     14.98552        -0.000024     -0.000246      0.000245
     16.30220     14.61432     14.56102        -0.000345      0.000362     -0.001181
     16.27999     15.41925     15.46017         0.000167      0.000635     -0.000785
 -----------------------------------------------------------------------------------
    total drift:                                0.000256     -0.007565     -0.015073


--------------------------------------------------------------------------------------------------------



  FREE ENERGIE OF THE ION-ELECTRON SYSTEM (eV)
  ---------------------------------------------------
  free  energy   TOTEN  =       -33.95320221 eV

  energy  without entropy=      -33.95320221  energy(sigma->0) =      -33.95320221
 


--------------------------------------------------------------------------------------------------------


    POTLOK:  cpu time   17.1084: real time   17.1424


--------------------------------------------------------------------------------------------------------


 NEB: the previous image is higher in energy: F
 NEB: the next image is higher in energy    : F
 NEB: image is at an extrema
 NEB: diff energy (min, max):     0.209702    1.196522

 NEB: Tangent
 ----------------------------------------------
     -0.10722     -0.08143     -0.05830
     -0.10595     -0.05212     -0.08625
      0.20970     -0.07923     -0.09080
     -0.01844     -0.15084     -0.16770
     -0.57943      0.15828      0.17752
      0.60177      0.20458      0.22606

 NEB: forces: par spring, perp REAL, dneb     2.604352    0.002466    0.000000
 NEB: distance to prev, next image, angle between     0.767315    0.246445  139.657345
 NEB: projections on to tangent (spring, REAL)    -2.604352    0.000132

 stress matrix after NEB project (eV)
     -0.90044     -0.00252     -0.00199
     -0.00252     -0.97053     -0.00358
     -0.00199     -0.00358     -0.97186
  FORCES: max atom, RMS     0.001284    0.001008
  FORCE total and by dimension    0.002469    0.001228
  Stress total and by dimension    1.642341    0.971864
 
 OPT: Flag T
 OPT: FIRE Step
 OPT: FIRE, TIMESTEP      0.10000
 OPT: FIRE, alpha         0.10000


--------------------------------------------------------------------------------------------------------


    WAVPRE:  cpu time    6.9319: real time    6.9461
 FEWALD executed in parallel
    FEWALD:  cpu time    0.0000: real time    0.0003
    ORTHCH:  cpu time    6.0411: real time    6.0537
     LOOP+:  cpu time 3184.4789: real time 3192.2047


----------------------------------------- Iteration    2(   1)  ---------------------------------------


    POTLOK:  cpu time   21.9247: real time   21.9726
    SETDIJ:  cpu time    0.0060: real time    0.0068
     EDDAV:  cpu time   70.4503: real time   70.5986
       DOS:  cpu time    0.0000: real time    0.0002
    CHARGE:  cpu time    5.9601: real time    5.9722
    MIXING:  cpu time    0.5889: real time    0.5911
    --------------------------------------------
      LOOP:  cpu time   98.9320: real time   99.1450

 eigenvalue-minimisations  :    96
 total energy-change (2. order) :-0.1056729E-03  (-0.1873725E-06)
 number of electron      15.9999990 magnetization 
 augmentation part        0.3745686 magnetization 

 Broyden mixing:
  rms(total) = 0.39057E-04    rms(broyden)= 0.38940E-04
  rms(prec ) = 0.48298E-04
  weight for this iteration     100.00

 Free energy of the ion-electron system (eV)
  ---------------------------------------------------
  alpha Z        PSCENC =         0.04144063
  Ewald energy   TEWEN  =       702.12300136
  -Hartree energ DENC   =     -1179.85384691
  -exchange      EXHF   =         0.00000000
  -V(xc)+E(xc)   XCENC  =        54.29640996
  PAW double counting   =      1162.77946185    -1165.47704012
  entropy T*S    EENTRO =         0.00000000
  eigenvalues    EBANDS =      -204.02800654
  atomic energy  EATOM  =       596.16534815
  Solvation  Ediel_sol  =         0.00000000
  ---------------------------------------------------
  free energy    TOTEN  =       -33.95323163 eV

  energy without entropy =      -33.95323163  energy(sigma->0) =      -33.95323163


--------------------------------------------------------------------------------------------------------




----------------------------------------- Iteration    2(   2)  ---------------------------------------


    POTLOK:  cpu time   21.4677: real time   21.5130
    SETDIJ:  cpu time    0.0060: real time    0.0063
     EDDAV:  cpu time   69.2715: real time   69.4207
       DOS:  cpu time    0.0000: real time    0.0002
    CHARGE:  cpu time    5.8391: real time    5.8526
    MIXING:  cpu time    0.6779: real time    0.6785
    --------------------------------------------
      LOOP:  cpu time   97.2642: real time   97.4759

 eigenvalue-minimisations  :    96
 total energy-change (2. order) :-0.6573404E-05  (-0.3178382E-07)
 number of electron      15.9999990 magnetization 
 augmentation part        0.3745687 magnetization 

 Broyden mixing:
  rms(total) = 0.26914E-04    rms(broyden)= 0.26895E-04
  rms(prec ) = 0.36225E-04
  weight for this iteration     100.00

 eigenvalues of (default mixing * dielectric matrix)
  average eigenvalue GAMMA=   1.2457
  1.2457

 Free energy of the ion-electron system (eV)
  ---------------------------------------------------
  alpha Z        PSCENC =         0.04144063
  Ewald energy   TEWEN  =       702.12300136
  -Hartree energ DENC   =     -1179.85372940
  -exchange      EXHF   =         0.00000000
  -V(xc)+E(xc)   XCENC  =        54.29639202
  PAW double counting   =      1162.77970286    -1165.47727959
  entropy T*S    EENTRO =         0.00000000
  eigenvalues    EBANDS =      -204.02811422
  atomic energy  EATOM  =       596.16534815
  Solvation  Ediel_sol  =         0.00000000
  ---------------------------------------------------
  free energy    TOTEN  =       -33.95323820 eV

  energy without entropy =      -33.95323820  energy(sigma->0) =      -33.95323820


--------------------------------------------------------------------------------------------------------




----------------------------------------- Iteration    2(   3)  ---------------------------------------


    POTLOK:  cpu time   22.8825: real time   22.9351
    SETDIJ:  cpu time    0.0070: real time    0.0064
     EDDAV:  cpu time   75.7465: real time   75.9106
       DOS:  cpu time    0.0000: real time    0.0002
    CHARGE:  cpu time    6.6030: real time    6.6173
    MIXING:  cpu time    0.7249: real time    0.7257
    --------------------------------------------
      LOOP:  cpu time  105.9659: real time  106.1993

 eigenvalue-minimisations  :    96
 total energy-change (2. order) :-0.7355843E-05  (-0.7942365E-08)
 number of electron      15.9999990 magnetization 
 augmentation part        0.3745683 magnetization 

 Broyden mixing:
  rms(total) = 0.17963E-04    rms(broyden)= 0.17955E-04
  rms(prec ) = 0.26583E-04
  weight for this iteration     100.00

 eigenvalues of (default mixing * dielectric matrix)
  average eigenvalue GAMMA=   1.6861
  1.1251  2.2470

 Free energy of the ion-electron system (eV)
  ---------------------------------------------------
  alpha Z        PSCENC =         0.04144063
  Ewald energy   TEWEN  =       702.12300136
  -Hartree energ DENC   =     -1179.85371838
  -exchange      EXHF   =         0.00000000
  -V(xc)+E(xc)   XCENC  =        54.29637827
  PAW double counting   =      1162.77759014    -1165.47516553
  entropy T*S    EENTRO =         0.00000000
  eigenvalues    EBANDS =      -204.02812019
  atomic energy  EATOM  =       596.16534815
  Solvation  Ediel_sol  =         0.00000000
  ---------------------------------------------------
  free energy    TOTEN  =       -33.95324555 eV

  energy without entropy =      -33.95324555  energy(sigma->0) =      -33.95324555


--------------------------------------------------------------------------------------------------------




----------------------------------------- Iteration    2(   4)  ---------------------------------------


    POTLOK:  cpu time   21.0508: real time   21.0960
    SETDIJ:  cpu time    0.0060: real time    0.0063
[...]
  ---------------------------------------------------
  free energy    TOTEN  =       -33.95328578 eV

  energy without entropy =      -33.95328578  energy(sigma->0) =      -33.95328578


--------------------------------------------------------------------------------------------------------




----------------------------------------- Iteration   74(   2)  ---------------------------------------


    POTLOK:  cpu time   24.1673: real time   24.2170
    SETDIJ:  cpu time    0.0070: real time    0.0066
     EDDAV:  cpu time   37.2223: real time   37.3007
       DOS:  cpu time    0.0000: real time    0.0002
    CHARGE:  cpu time    5.1792: real time    5.1895
    MIXING:  cpu time    0.6139: real time    0.6149
    --------------------------------------------
      LOOP:  cpu time   67.1908: real time   67.3340

 eigenvalue-minimisations  :    48
 total energy-change (2. order) :-0.3475259E-06  (-0.4338350E-06)
 number of electron      15.9999988 magnetization 
 augmentation part        0.3745697 magnetization 

 Broyden mixing:
  rms(total) = 0.13970E-03    rms(broyden)= 0.13931E-03
  rms(prec ) = 0.14111E-03
  weight for this iteration     100.00

 eigenvalues of (default mixing * dielectric matrix)
  average eigenvalue GAMMA=   1.3733
  1.3733

 Free energy of the ion-electron system (eV)
  ---------------------------------------------------
  alpha Z        PSCENC =         0.04144063
  Ewald energy   TEWEN  =       702.12090638
  -Hartree energ DENC   =     -1179.85131427
  -exchange      EXHF   =         0.00000000
  -V(xc)+E(xc)   XCENC  =        54.29631987
  PAW double counting   =      1162.77387240    -1165.47144682
  entropy T*S    EENTRO =         0.00000000
  eigenvalues    EBANDS =      -204.02841247
  atomic energy  EATOM  =       596.16534815
  Solvation  Ediel_sol  =         0.00000000
  ---------------------------------------------------
  free energy    TOTEN  =       -33.95328613 eV

  energy without entropy =      -33.95328613  energy(sigma->0) =      -33.95328613


--------------------------------------------------------------------------------------------------------




----------------------------------------- Iteration   74(   3)  ---------------------------------------


    POTLOK:  cpu time   22.6126: real time   22.6585
    SETDIJ:  cpu time    0.0060: real time    0.0062
     EDDAV:  cpu time   36.1035: real time   36.1746
       DOS:  cpu time    0.0000: real time    0.0002
    CHARGE:  cpu time    4.9622: real time    4.9713
    MIXING:  cpu time    0.6239: real time    0.6266
    --------------------------------------------
      LOOP:  cpu time   64.3102: real time   64.4415

 eigenvalue-minimisations  :    48
 total energy-change (2. order) :-0.9203222E-07  (-0.5786520E-07)
 number of electron      15.9999988 magnetization 
 augmentation part        0.3745708 magnetization 

 Broyden mixing:
  rms(total) = 0.80271E-04    rms(broyden)= 0.80177E-04
  rms(prec ) = 0.81312E-04
  weight for this iteration     100.00

 eigenvalues of (default mixing * dielectric matrix)
  average eigenvalue GAMMA=   1.5774
  1.0545  2.1004

 Free energy of the ion-electron system (eV)
  ---------------------------------------------------
  alpha Z        PSCENC =         0.04144063
  Ewald energy   TEWEN  =       702.12090638
  -Hartree energ DENC   =     -1179.85124075
  -exchange      EXHF   =         0.00000000
  -V(xc)+E(xc)   XCENC  =        54.29631544
  PAW double counting   =      1162.78014822    -1165.47772518
  entropy T*S    EENTRO =         0.00000000
  eigenvalues    EBANDS =      -204.02847911
  atomic energy  EATOM  =       596.16534815
  Solvation  Ediel_sol  =         0.00000000
  ---------------------------------------------------
  free energy    TOTEN  =       -33.95328622 eV

  energy without entropy =      -33.95328622  energy(sigma->0) =      -33.95328622


--------------------------------------------------------------------------------------------------------




----------------------------------------- Iteration   74(   4)  ---------------------------------------


    POTLOK:  cpu time   22.9565: real time   23.0010
    SETDIJ:  cpu time    0.0070: real time    0.0066
     EDDAV:  cpu time   35.1397: real time   35.2091
       DOS:  cpu time    0.0000: real time    0.0002
    CHARGE:  cpu time    5.0222: real time    5.0326
    MIXING:  cpu time    0.6889: real time    0.6905
    --------------------------------------------
      LOOP:  cpu time   63.8183: real time   63.9438

 eigenvalue-minimisations  :    48
 total energy-change (2. order) :-0.3013156E-07  (-0.1553420E-07)
 number of electron      15.9999988 magnetization 
 augmentation part        0.3745703 magnetization 

 Broyden mixing:
  rms(total) = 0.29527E-04    rms(broyden)= 0.29481E-04
  rms(prec ) = 0.29841E-04
  weight for this iteration     100.00

 eigenvalues of (default mixing * dielectric matrix)
  average eigenvalue GAMMA=   1.6297
  2.3462  0.9087  1.6342

 Free energy of the ion-electron system (eV)
  ---------------------------------------------------
  alpha Z        PSCENC =         0.04144063
  Ewald energy   TEWEN  =       702.12090638
  -Hartree energ DENC   =     -1179.85146113
  -exchange      EXHF   =         0.00000000
  -V(xc)+E(xc)   XCENC  =        54.29632495
  PAW double counting   =      1162.78106055    -1165.47864107
  entropy T*S    EENTRO =         0.00000000
  eigenvalues    EBANDS =      -204.02826471
  atomic energy  EATOM  =       596.16534815
  Solvation  Ediel_sol  =         0.00000000
  ---------------------------------------------------
  free energy    TOTEN  =       -33.95328625 eV

  energy without entropy =      -33.95328625  energy(sigma->0) =      -33.95328625


--------------------------------------------------------------------------------------------------------




----------------------------------------- Iteration   74(   5)  ---------------------------------------


    POTLOK:  cpu time   24.4773: real time   24.5265
    SETDIJ:  cpu time    0.0070: real time    0.0063
     EDDAV:  cpu time   34.8167: real time   34.8859
       DOS:  cpu time    0.0000: real time    0.0002
    CHARGE:  cpu time    5.0182: real time    5.0287
    MIXING:  cpu time    0.7389: real time    0.7401
    --------------------------------------------
      LOOP:  cpu time   65.0591: real time   65.1940

 eigenvalue-minimisations  :    48
 total energy-change (2. order) :-0.2140723E-08  (-0.6518786E-08)
 number of electron      15.9999988 magnetization 
 augmentation part        0.3745699 magnetization 

 Broyden mixing:
  rms(total) = 0.13958E-04    rms(broyden)= 0.13936E-04
  rms(prec ) = 0.14229E-04
  weight for this iteration     100.00

 eigenvalues of (default mixing * dielectric matrix)
  average eigenvalue GAMMA=   1.6864
  2.4419  2.4419  0.9397  0.9222

 Free energy of the ion-electron system (eV)
  ---------------------------------------------------
  alpha Z        PSCENC =         0.04144063
  Ewald energy   TEWEN  =       702.12090638
  -Hartree energ DENC   =     -1179.85154594
  -exchange      EXHF   =         0.00000000
  -V(xc)+E(xc)   XCENC  =        54.29632873
  PAW double counting   =      1162.77916567    -1165.47674606
  entropy T*S    EENTRO =         0.00000000
  eigenvalues    EBANDS =      -204.02818382
  atomic energy  EATOM  =       596.16534815
  Solvation  Ediel_sol  =         0.00000000
  ---------------------------------------------------
  free energy    TOTEN  =       -33.95328625 eV

  energy without entropy =      -33.95328625  energy(sigma->0) =      -33.95328625


--------------------------------------------------------------------------------------------------------




----------------------------------------- Iteration   74(   6)  ---------------------------------------


    POTLOK:  cpu time   24.6952: real time   24.7456
    SETDIJ:  cpu time    0.0070: real time    0.0063
     EDDAV:  cpu time   34.7797: real time   34.8492
       DOS:  cpu time    0.0000: real time    0.0002
    --------------------------------------------
      LOOP:  cpu time   59.4830: real time   59.6074

 eigenvalue-minimisations  :    48
 total energy-change (2. order) : 0.8026291E-09  (-0.4084092E-08)
 number of electron      15.9999988 magnetization 
 augmentation part        0.3745699 magnetization 

 Free energy of the ion-electron system (eV)
  ---------------------------------------------------
  alpha Z        PSCENC =         0.04144063
  Ewald energy   TEWEN  =       702.12090638
  -Hartree energ DENC   =     -1179.85152329
  -exchange      EXHF   =         0.00000000
  -V(xc)+E(xc)   XCENC  =        54.29632765
  PAW double counting   =      1162.77725516    -1165.47483435
  entropy T*S    EENTRO =         0.00000000
  eigenvalues    EBANDS =      -204.02820659
  atomic energy  EATOM  =       596.16534815
  Solvation  Ediel_sol  =         0.00000000
  ---------------------------------------------------
  free energy    TOTEN  =       -33.95328625 eV

  energy without entropy =      -33.95328625  energy(sigma->0) =      -33.95328625


--------------------------------------------------------------------------------------------------------




 average (electrostatic) potential at core
  the test charge radii are     0.5201  0.6991  0.7089
  (the norm of the test charge is              1.0000)
       1 -43.1708       2 -43.1695       3 -43.2363       4 -60.7408       5 -59.8180
       6 -74.3736
 
 
 
 E-fermi :  -6.2943     XC(G=0):  -0.0615     alpha+bet : -0.0137


 k-point     1 :       0.2500    0.2500    0.2500
  band No.  band energies     occupation 
      1     -24.0870      2.00000
      2     -17.8591      2.00000
      3     -12.4976      2.00000
      4     -11.6618      2.00000
      5     -10.8800      2.00000
      6      -9.4389      2.00000
      7      -8.3408      2.00000
      8      -7.2490      2.00000
      9      -1.7489      0.00000
     10      -0.8918      0.00000
     11      -0.6884      0.00000
     12      -0.2105      0.00000

 k-point     2 :      -0.2500    0.2500    0.2500
  band No.  band energies     occupation 
      1     -24.0870      2.00000
      2     -17.8591      2.00000
      3     -12.4976      2.00000
      4     -11.6618      2.00000
      5     -10.8799      2.00000
      6      -9.4389      2.00000
      7      -8.3408      2.00000
      8      -7.2490      2.00000
      9      -1.7489      0.00000
     10      -0.8918      0.00000
     11      -0.6884      0.00000
     12      -0.2105      0.00000

 k-point     3 :       0.2500   -0.2500    0.2500
  band No.  band energies     occupation 
      1     -24.0870      2.00000
      2     -17.8591      2.00000
      3     -12.4976      2.00000
      4     -11.6618      2.00000
      5     -10.8799      2.00000
      6      -9.4389      2.00000
      7      -8.3408      2.00000
      8      -7.2490      2.00000
      9      -1.7489      0.00000
     10      -0.8918      0.00000
     11      -0.6884      0.00000
     12      -0.2105      0.00000

 k-point     4 :      -0.2500   -0.2500    0.2500
  band No.  band energies     occupation 
      1     -24.0870      2.00000
      2     -17.8591      2.00000
      3     -12.4976      2.00000
      4     -11.6618      2.00000
      5     -10.8799      2.00000
      6      -9.4389      2.00000
      7      -8.3408      2.00000
      8      -7.2490      2.00000
      9      -1.7489      0.00000
     10      -0.8918      0.00000
     11      -0.6884      0.00000
     12      -0.2105      0.00000


--------------------------------------------------------------------------------------------------------


 soft charge-density along one line, spin component           1
         0         1         2         3         4         5         6         7         8         9
 total charge-density along one line
 
 pseudopotential strength for first ion, spin component:           1
 -2.364  -4.077  -0.002   0.000  -0.001
 -4.077  -6.947  -0.005   0.001  -0.002
 -0.002  -0.005  -0.329  -0.001   0.001
  0.000   0.001  -0.001  -0.333   0.000
 -0.001  -0.002   0.001   0.000  -0.333
 total augmentation occupancy for first ion, spin component:           1
  3.546  -0.642   0.427  -0.097   0.135
 -0.642   0.133  -0.078   0.018  -0.026
  0.427  -0.078   0.053  -0.010   0.014
 -0.097   0.018  -0.010   0.011  -0.004
  0.135  -0.026   0.014  -0.004   0.012


------------------------ aborting loop because EDIFF is reached ----------------------------------------


    CHARGE:  cpu time    5.2782: real time    5.2889
    FORLOC:  cpu time    2.3336: real time    2.3373
    FORNL :  cpu time   16.7814: real time   16.8153
    STRESS:  cpu time   51.2382: real time   51.3408
    FORCOR:  cpu time   21.4117: real time   21.4524
    FORHAR:  cpu time    6.9319: real time    6.9460
    MIXING:  cpu time    0.7669: real time    0.7674
    OFIELD:  cpu time    0.0000: real time    0.0000

  FORCE on cell =-STRESS in cart. coord.  units (eV):
  Direction    XX          YY          ZZ          XY          YZ          ZX
  --------------------------------------------------------------------------------------
  Alpha Z     0.04144     0.04144     0.04144
  Ewald     340.06928   165.99221   196.05943     9.73023   135.41361     7.89119
  Hartree   488.29406   339.61228   351.94511     8.56697    55.77376     7.58318
  E(xc)     -59.14108   -59.17194   -59.06863    -0.01300     0.46251    -0.01936
  Local    -987.78035  -672.08875  -712.56862   -18.20423  -182.55818   -15.51872
  n-local   -15.13980   -24.33954   -25.23298     0.34822    -3.98605     0.32985
  augment     0.22947     0.79311     0.81114    -0.02126     0.06787    -0.01493
  Kinetic   232.52866   248.19196   247.04429    -0.40888    -5.17670    -0.25381
  Fock        0.00000     0.00000     0.00000     0.00000     0.00000     0.00000
  -------------------------------------------------------------------------------------
  Total      -0.89832    -0.96923    -0.96882    -0.00195    -0.00318    -0.00261
  in kB      -0.05331    -0.05751    -0.05749    -0.00012    -0.00019    -0.00015
  external pressure =       -0.06 kB  Pullay stress =        0.00 kB


 VOLUME and BASIS-vectors are now :
 -----------------------------------------------------------------------------
  energy-cutoff  :      400.00
  volume of cell :    27000.00
      direct lattice vectors                 reciprocal lattice vectors
    30.000000000  0.000000000  0.000000000     0.033333333  0.000000000  0.000000000
     0.000000000 30.000000000  0.000000000     0.000000000  0.033333333  0.000000000
     0.000000000  0.000000000 30.000000000     0.000000000  0.000000000  0.033333333

  length of vectors
    30.000000000 30.000000000 30.000000000     0.033333333  0.033333333  0.033333333


 FORCES acting on ions
    electron-ion (+dipol)            ewald-force                    non-local-force                 convergence-correction
 -----------------------------------------------------------------------------------------------
   0.322E+02 0.572E+02 -.131E+02   -.339E+02 -.627E+02 0.143E+02   0.171E+01 0.547E+01 -.125E+01   0.321E-05 0.176E-05 0.130E-04
   0.329E+02 -.194E+02 0.550E+02   -.347E+02 0.212E+02 -.603E+02   0.178E+01 -.186E+01 0.527E+01   -.421E-05 0.392E-05 0.806E-05
   0.362E+02 -.373E+02 -.424E+02   -.379E+02 0.410E+02 0.465E+02   0.173E+01 -.364E+01 -.412E+01   0.481E-05 -.259E-05 0.973E-05
   0.100E+03 0.701E+01 0.686E+01   -.108E+03 -.751E+01 -.734E+01   0.768E+01 0.491E+00 0.481E+00   0.114E-04 0.318E-05 0.726E-04
   -.920E+02 0.136E+03 0.153E+03   0.990E+02 -.150E+03 -.169E+03   -.702E+01 0.143E+02 0.160E+02   0.101E-04 0.336E-05 0.883E-04
   -.107E+03 -.135E+03 -.150E+03   0.115E+03 0.158E+03 0.176E+03   -.834E+01 -.231E+02 -.257E+02   -.160E-04 -.193E-04 0.695E-04
 -----------------------------------------------------------------------------------------------
   0.246E+01 0.833E+01 0.927E+01   0.142E-13 0.000E+00 0.000E+00   -.246E+01 -.834E+01 -.928E+01   0.928E-05 -.969E-05 0.261E-03
 
 
 POSITION                                       TOTAL-FORCE (eV/Angst)
 -----------------------------------------------------------------------------------
     14.28153     13.96695     15.22319         0.000225     -0.000009      0.000724
     14.26945     15.33527     14.00644        -0.000521     -0.000363      0.000217
     14.26794     15.67749     15.76966         0.000370      0.000227      0.000108
     14.59952     14.98472     14.98676        -0.000066     -0.000025      0.000124
     16.30110     14.61530     14.55693        -0.000420     -0.000503     -0.001161
     16.28113     15.41993     15.45641         0.000412      0.000672     -0.000012
 -----------------------------------------------------------------------------------
    total drift:                               -0.000138     -0.009091     -0.014666


--------------------------------------------------------------------------------------------------------



  FREE ENERGIE OF THE ION-ELECTRON SYSTEM (eV)
  ---------------------------------------------------
  free  energy   TOTEN  =       -33.95328625 eV

  energy  without entropy=      -33.95328625  energy(sigma->0) =      -33.95328625
 
 d Force = 0.3681093E-06[ 0.355E-06, 0.381E-06]  d Energy = 0.3979800E-06-0.299E-07
 d Force =-0.3363880E-02[-0.336E-02,-0.337E-02]  d Ewald  =-0.3363880E-02-0.110E-09


--------------------------------------------------------------------------------------------------------


    POTLOK:  cpu time   20.3699: real time   20.4099


--------------------------------------------------------------------------------------------------------


 NEB: the previous image is higher in energy: F
 NEB: the next image is higher in energy    : F
 NEB: image is at an extrema
 NEB: diff energy (min, max):     0.213586    1.653983

 NEB: Tangent
 ----------------------------------------------
     -0.06454     -0.08047     -0.06595
     -0.06390     -0.05797     -0.08625
      0.14729     -0.08145     -0.09309
     -0.01687     -0.13227     -0.14717
     -0.60768      0.10910      0.12698
      0.60566      0.24314      0.26544

 NEB: forces: par spring, perp REAL, dneb     4.315666    0.001856    0.000000
 NEB: distance to prev, next image, angle between     1.111637    0.248504  123.785235
 NEB: projections on to tangent (spring, REAL)    -4.315666    0.000449

 stress matrix after NEB project (eV)
     -0.89832     -0.00195     -0.00261
     -0.00195     -0.96923     -0.00318
     -0.00261     -0.00318     -0.96882
  FORCES: max atom, RMS     0.001415    0.000779
  FORCE total and by dimension    0.001909    0.001275
  Stress total and by dimension    1.638606    0.969225
 OPT: skip step - force has converged


--------------------------------------------------------------------------------------------------------


  
 reached required accuracy - stopping structural energy minimisation
     LOOP+:  cpu time  579.5699: real time  580.8576
    4ORBIT:  cpu time    0.0000: real time    0.0000

 total amount of memory used by VASP on root node  3203890. kBytes
========================================================================

   base      :      30000. kBytes
   nonlr-proj:        694. kBytes
   fftplans  :     924480. kBytes
   grid      :    1872000. kBytes
   one-center:         18. kBytes
   wavefun   :     376698. kBytes
 
  
  
 General timing and accounting informations for this job:
 ========================================================
  
                  Total CPU time used (sec):    49563.934
                            User time (sec):    48887.066
                          System time (sec):      676.867
                         Elapsed time (sec):    49851.774
  
                   Maximum memory used (kb):     4762448.
                   Average memory used (kb):           0.
  
                          Minor page faults:      7302076
                          Major page faults:            8
                 Voluntary context switches:         8948
