unknown system                          
           1
    30.000000    0.000000    0.000000
     0.000000   30.000000    0.000000
     0.000000    0.000000   30.000000
   H    C    N 
   3   2   1
Direct configuration=     1
   0.47600526  0.46556811  0.50730630
   0.47575892  0.51124973  0.46682720
   0.47553319  0.52255085  0.52562352
   0.48665225  0.49950084  0.49951738
   0.54340649  0.48714397  0.48536685
   0.54266634  0.51397530  0.51533874
Direct configuration=     2
   0.47600562  0.46556804  0.50730703
   0.47575840  0.51124918  0.46682747
   0.47553344  0.52255096  0.52562366
   0.48665226  0.49950074  0.49951762
   0.54340638  0.48714428  0.48536615
   0.54266635  0.51397559  0.51533807
Direct configuration=     3
   0.47600616  0.46556790  0.50730814
   0.47575761  0.51124837  0.46682784
   0.47553379  0.52255113  0.52562384
   0.48665229  0.49950063  0.49951799
   0.54340623  0.48714480  0.48536516
   0.54266638  0.51397598  0.51533702
Direct configuration=     4
   0.47600687  0.46556770  0.50730962
   0.47575655  0.51124731  0.46682832
   0.47553425  0.52255137  0.52562410
   0.48665233  0.49950047  0.49951848
   0.54340605  0.48714539  0.48536377
   0.54266642  0.51397657  0.51533571
Direct configuration=     5
   0.47600777  0.46556747  0.50731146
   0.47575521  0.51124599  0.46682892
   0.47553479  0.52255168  0.52562442
   0.48665235  0.49950024  0.49951904
   0.54340585  0.48714610  0.48536204
   0.54266650  0.51397733  0.51533412
Direct configuration=     6
   0.47600890  0.46556722  0.50731368
   0.47575365  0.51124443  0.46682968
   0.47553541  0.52255206  0.52562484
   0.48665239  0.49949998  0.49951973
   0.54340556  0.48714703  0.48535996
   0.54266655  0.51397808  0.51533211
Direct configuration=     7
   0.47601043  0.46556693  0.50731656
   0.47575166  0.51124242  0.46683071
   0.47553619  0.52255255  0.52562538
   0.48665243  0.49949967  0.49952066
   0.54340514  0.48714820  0.48535717
   0.54266660  0.51397903  0.51532952
Direct configuration=     8
   0.47601244  0.46556655  0.50732026
   0.47574908  0.51123987  0.46683202
   0.47553716  0.52255317  0.52562604
   0.48665246  0.49949933  0.49952188
   0.54340460  0.48714962  0.48535349
   0.54266673  0.51398026  0.51532631
Direct configuration=     9
   0.47601497  0.46556604  0.50732493
   0.47574570  0.51123666  0.46683365
   0.47553838  0.52255397  0.52562685
   0.48665246  0.49949889  0.49952339
   0.54340386  0.48715166  0.48534915
   0.54266709  0.51398158  0.51532204
Direct configuration=    10
   0.47601809  0.46556542  0.50733074
   0.47574135  0.51123267  0.46683566
   0.47553984  0.52255504  0.52562788
   0.48665240  0.49949827  0.49952519
   0.54340303  0.48715342  0.48534299
   0.54266775  0.51398398  0.51531754
Direct configuration=    11
   0.47602177  0.46556464  0.50733789
   0.47573606  0.51122796  0.46683823
   0.47554184  0.52255635  0.52562928
   0.48665259  0.49949758  0.49952749
   0.54340099  0.48715791  0.48533753
   0.54266922  0.51398437  0.51530958
Direct configuration=    12
   0.47602191  0.46556468  0.50733816
   0.47573591  0.51122783  0.46683840
   0.47554189  0.52255643  0.52562938
   0.48665251  0.49949759  0.49952761
   0.54340110  0.48715655  0.48533560
   0.54266914  0.51398572  0.51531086
Direct configuration=    13
   0.47602193  0.46556467  0.50733822
   0.47573586  0.51122780  0.46683843
   0.47554192  0.52255644  0.52562939
   0.48665251  0.49949759  0.49952763
   0.54340106  0.48715663  0.48533558
   0.54266918  0.51398567  0.51531074
Direct configuration=    14
   0.47602198  0.46556467  0.50733835
   0.47573576  0.51122773  0.46683848
   0.47554198  0.52255647  0.52562942
   0.48665251  0.49949757  0.49952768
   0.54340097  0.48715678  0.48533554
   0.54266925  0.51398559  0.51531053
Direct configuration=    15
   0.47602206  0.46556466  0.50733854
   0.47573560  0.51122762  0.46683857
   0.47554207  0.52255650  0.52562947
   0.48665252  0.49949755  0.49952774
   0.54340085  0.48715696  0.48533541
   0.54266936  0.51398551  0.51531025
Direct configuration=    16
   0.47602216  0.46556465  0.50733880
   0.47573540  0.51122748  0.46683870
   0.47554219  0.52255656  0.52562954
   0.48665252  0.49949753  0.49952783
   0.54340070  0.48715713  0.48533518
   0.54266949  0.51398546  0.51530995
Direct configuration=    17
   0.47602228  0.46556464  0.50733913
   0.47573515  0.51122731  0.46683885
   0.47554233  0.52255662  0.52562963
   0.48665252  0.49949750  0.49952794
   0.54340053  0.48715726  0.48533480
   0.54266964  0.51398546  0.51530965
Direct configuration=    18
   0.47602243  0.46556463  0.50733951
   0.47573486  0.51122711  0.46683903
   0.47554250  0.52255670  0.52562973
   0.48665251  0.49949747  0.49952808
   0.54340035  0.48715736  0.48533429
   0.54266982  0.51398553  0.51530936
Direct configuration=    19
   0.47602262  0.46556462  0.50734001
   0.47573448  0.51122684  0.46683926
   0.47554271  0.52255681  0.52562987
   0.48665250  0.49949743  0.49952825
   0.54340011  0.48715746  0.48533359
   0.54267003  0.51398564  0.51530902
Direct configuration=    20
   0.47602287  0.46556460  0.50734065
   0.47573398  0.51122651  0.46683956
   0.47554300  0.52255695  0.52563005
   0.48665250  0.49949737  0.49952846
   0.54339981  0.48715762  0.48533273
   0.54267031  0.51398576  0.51530855
Direct configuration=    21
   0.47602317  0.46556457  0.50734146
   0.47573333  0.51122608  0.46683993
   0.47554337  0.52255713  0.52563028
   0.48665249  0.49949730  0.49952873
   0.54339942  0.48715792  0.48533175
   0.54267068  0.51398582  0.51530785
Direct configuration=    22
   0.47602354  0.46556452  0.50734249
   0.47573250  0.51122554  0.46684038
   0.47554385  0.52255735  0.52563056
   0.48665249  0.49949720  0.49952906
   0.54339892  0.48715840  0.48533065
   0.54267116  0.51398579  0.51530685
Direct configuration=    23
   0.47602400  0.46556446  0.50734377
   0.47573144  0.51122487  0.46684095
   0.47554447  0.52255763  0.52563091
   0.48665249  0.49949708  0.49952947
   0.54339831  0.48715900  0.48532927
   0.54267174  0.51398577  0.51530561
Direct configuration=    24
   0.47602456  0.46556438  0.50734538
   0.47573011  0.51122403  0.46684165
   0.47554526  0.52255799  0.52563136
   0.48665247  0.49949693  0.49952998
   0.54339763  0.48715957  0.48532737
   0.54267243  0.51398590  0.51530425
Direct configuration=    25
   0.47602526  0.46556430  0.50734738
   0.47572842  0.51122300  0.46684253
   0.47554626  0.52255843  0.52563191
   0.48665243  0.49949675  0.49953061
   0.54339686  0.48716016  0.48532490
   0.54267323  0.51398617  0.51530267
Direct configuration=    26
   0.47602609  0.46556419  0.50734983
   0.47572630  0.51122172  0.46684358
   0.47554755  0.52255897  0.52563258
   0.48665239  0.49949651  0.49953135
   0.54339589  0.48716111  0.48532215
   0.54267426  0.51398631  0.51530050
Direct configuration=    27
   0.47602708  0.46556406  0.50735286
   0.47572362  0.51122014  0.46684488
   0.47554920  0.52255964  0.52563338
   0.48665232  0.49949621  0.49953224
   0.54339475  0.48716238  0.48531893
   0.54267548  0.51398639  0.51529771
Direct configuration=    28
   0.47602829  0.46556394  0.50735655
   0.47572031  0.51121822  0.46684647
   0.47555123  0.52256047  0.52563437
   0.48665223  0.49949587  0.49953333
   0.54339362  0.48716344  0.48531454
   0.54267678  0.51398687  0.51529474
Direct configuration=    29
   0.47602971  0.46556380  0.50736101
   0.47571622  0.51121588  0.46684840
   0.47555378  0.52256148  0.52563554
   0.48665216  0.49949545  0.49953462
   0.54339226  0.48716515  0.48530980
   0.54267833  0.51398704  0.51529062
Direct configuration=    30
   0.47603145  0.46556369  0.50736643
   0.47571124  0.51121306  0.46685075
   0.47555685  0.52256276  0.52563697
   0.48665208  0.49949501  0.49953624
   0.54339096  0.48716658  0.48530350
   0.54267988  0.51398771  0.51528611
Direct configuration=    31
   0.47603350  0.46556356  0.50737289
   0.47570527  0.51120968  0.46685356
   0.47556056  0.52256429  0.52563867
   0.48665209  0.49949449  0.49953818
   0.54338922  0.48716919  0.48529715
   0.54268182  0.51398760  0.51527954
Direct configuration=    32
   0.47603602  0.46556359  0.50738044
   0.47569859  0.51120583  0.46685701
   0.47556454  0.52256622  0.52564077
   0.48665196  0.49949410  0.49954065
   0.54338817  0.48716902  0.48528648
   0.54268317  0.51399003  0.51527465
Direct configuration=    33
   0.47603603  0.46556353  0.50738058
   0.47569840  0.51120571  0.46685703
   0.47556472  0.52256622  0.52564076
   0.48665204  0.49949404  0.49954064
   0.54338767  0.48717067  0.48528812
   0.54268360  0.51398864  0.51527288
Direct configuration=    34
   0.47603605  0.46556353  0.50738063
   0.47569837  0.51120569  0.46685705
   0.47556474  0.52256623  0.52564077
   0.48665204  0.49949404  0.49954066
   0.54338766  0.48717066  0.48528805
   0.54268360  0.51398866  0.51527284
Direct configuration=    35
   0.47603608  0.46556353  0.50738072
   0.47569830  0.51120565  0.46685709
   0.47556477  0.52256626  0.52564080
   0.48665204  0.49949404  0.49954070
   0.54338764  0.48717064  0.48528793
   0.54268361  0.51398868  0.51527275
Direct configuration=    36
   0.47603614  0.46556354  0.50738086
   0.47569820  0.51120558  0.46685716
   0.47556483  0.52256631  0.52564084
   0.48665204  0.49949404  0.49954076
   0.54338762  0.48717063  0.48528776
   0.54268363  0.51398871  0.51527261
Direct configuration=    37
   0.47603621  0.46556355  0.50738105
   0.47569807  0.51120549  0.46685725
   0.47556490  0.52256636  0.52564090
   0.48665204  0.49949405  0.49954083
   0.54338758  0.48717062  0.48528754
   0.54268366  0.51398873  0.51527242
Direct configuration=    38
   0.47603630  0.46556356  0.50738129
   0.47569790  0.51120537  0.46685737
   0.47556499  0.52256644  0.52564097
   0.48665204  0.49949405  0.49954093
   0.54338753  0.48717062  0.48528728
   0.54268369  0.51398876  0.51527216
Direct configuration=    39
   0.47603641  0.46556358  0.50738156
   0.47569770  0.51120524  0.46685749
   0.47556510  0.52256652  0.52564105
   0.48665202  0.49949405  0.49954107
   0.54338747  0.48717064  0.48528698
   0.54268375  0.51398878  0.51527184
Direct configuration=    40
   0.47603656  0.46556359  0.50738191
   0.47569745  0.51120507  0.46685765
   0.47556526  0.52256663  0.52564115
   0.48665197  0.49949405  0.49954128
   0.54338738  0.48717067  0.48528659
   0.54268384  0.51398880  0.51527142
Direct configuration=    41
   0.47603675  0.46556360  0.50738236
   0.47569712  0.51120484  0.46685786
   0.47556546  0.52256678  0.52564127
   0.48665190  0.49949403  0.49954154
   0.54338727  0.48717071  0.48528610
   0.54268396  0.51398883  0.51527087
Direct configuration=    42
   0.47603699  0.46556361  0.50738293
   0.47569671  0.51120455  0.46685812
   0.47556572  0.52256698  0.52564144
   0.48665179  0.49949402  0.49954187
   0.54338712  0.48717076  0.48528545
   0.54268412  0.51398889  0.51527019
Direct configuration=    43
   0.47603728  0.46556360  0.50738366
   0.47569620  0.51120417  0.46685848
   0.47556605  0.52256725  0.52564167
   0.48665167  0.49949401  0.49954224
   0.54338694  0.48717079  0.48528461
   0.54268433  0.51398899  0.51526935
Direct configuration=    44
   0.47603763  0.46556356  0.50738458
   0.47569554  0.51120368  0.46685894
   0.47556645  0.52256760  0.52564198
   0.48665153  0.49949401  0.49954264
   0.54338671  0.48717084  0.48528355
   0.54268460  0.51398912  0.51526830
Direct configuration=    45
   0.47603805  0.46556348  0.50738574
   0.47569471  0.51120307  0.46685952
   0.47556695  0.52256805  0.52564239
   0.48665141  0.49949402  0.49954309
   0.54338639  0.48717092  0.48528226
   0.54268494  0.51398927  0.51526699
Direct configuration=    46
   0.47603855  0.46556340  0.50738720
   0.47569364  0.51120231  0.46686022
   0.47556758  0.52256860  0.52564291
   0.48665132  0.49949400  0.49954363
   0.54338598  0.48717106  0.48528070
   0.54268539  0.51398944  0.51526533
Direct configuration=    47
   0.47603916  0.46556333  0.50738902
   0.47569225  0.51120138  0.46686103
   0.47556839  0.52256924  0.52564352
   0.48665127  0.49949395  0.49954433
   0.54338544  0.48717122  0.48527877
   0.54268595  0.51398968  0.51526332
Direct configuration=    48
   0.47603990  0.46556333  0.50739127
   0.47569047  0.51120024  0.46686199
   0.47556944  0.52256994  0.52564420
   0.48665126  0.49949386  0.49954524
   0.54338475  0.48717139  0.48527638
   0.54268664  0.51399004  0.51526092
Direct configuration=    49
   0.47604077  0.46556340  0.50739405
   0.47568822  0.51119883  0.46686318
   0.47557081  0.52257070  0.52564496
   0.48665127  0.49949377  0.49954628
   0.54338388  0.48717166  0.48527356
   0.54268751  0.51399045  0.51525797
Direct configuration=    50
   0.47604181  0.46556354  0.50739749
   0.47568542  0.51119707  0.46686474
   0.47557259  0.52257155  0.52564585
   0.48665127  0.49949367  0.49954733
   0.54338279  0.48717201  0.48527018
   0.54268858  0.51399096  0.51525442
Direct configuration=    51
   0.47604304  0.46556376  0.50740172
   0.47568189  0.51119494  0.46686660
   0.47557485  0.52257256  0.52564692
   0.48665129  0.49949348  0.49954846
   0.54338150  0.48717238  0.48526606
   0.54268988  0.51399170  0.51525024
Direct configuration=    52
   0.47604448  0.46556400  0.50740687
   0.47567746  0.51119243  0.46686860
   0.47557773  0.52257375  0.52564814
   0.48665138  0.49949313  0.49954991
   0.54337989  0.48717308  0.48526146
   0.54269153  0.51399241  0.51524501
Direct configuration=    53
   0.47604617  0.46556415  0.50741310
   0.47567211  0.51118948  0.46687094
   0.47558117  0.52257530  0.52564967
   0.48665141  0.49949285  0.49955164
   0.54337830  0.48717301  0.48525507
   0.54269330  0.51399401  0.51523957
Direct configuration=    54
   0.47604775  0.46556409  0.50742018
   0.47566566  0.51118592  0.46687359
   0.47558543  0.52257700  0.52565130
   0.48665125  0.49949223  0.49955318
   0.54337564  0.48717588  0.48525086
   0.54269673  0.51399368  0.51523089
Direct configuration=    55
   0.47604782  0.46556418  0.50742037
   0.47566555  0.51118586  0.46687374
   0.47558543  0.52257712  0.52565139
   0.48665112  0.49949227  0.49955334
   0.54337611  0.48717424  0.48524883
   0.54269642  0.51399513  0.51523233
Direct configuration=    56
   0.47604782  0.46556418  0.50742041
   0.47566551  0.51118584  0.46687375
   0.47558546  0.52257713  0.52565140
   0.48665112  0.49949226  0.49955335
   0.54337608  0.48717430  0.48524884
   0.54269647  0.51399510  0.51523224
Direct configuration=    57
   0.47604782  0.46556418  0.50742049
   0.47566542  0.51118579  0.46687378
   0.47558553  0.52257715  0.52565141
   0.48665110  0.49949223  0.49955337
   0.54337603  0.48717440  0.48524885
   0.54269656  0.51399505  0.51523209
Direct configuration=    58
   0.47604782  0.46556418  0.50742061
   0.47566529  0.51118571  0.46687383
   0.47558562  0.52257719  0.52565142
   0.48665108  0.49949220  0.49955341
   0.54337596  0.48717451  0.48524883
   0.54269669  0.51399501  0.51523189
Direct configuration=    59
   0.47604783  0.46556418  0.50742078
   0.47566511  0.51118561  0.46687390
   0.47558574  0.52257725  0.52565145
   0.48665106  0.49949217  0.49955346
   0.54337588  0.48717461  0.48524874
   0.54269684  0.51399500  0.51523166
Direct configuration=    60
   0.47604784  0.46556417  0.50742099
   0.47566489  0.51118549  0.46687400
   0.47558589  0.52257732  0.52565148
   0.48665102  0.49949213  0.49955353
   0.54337581  0.48717467  0.48524856
   0.54269701  0.51399503  0.51523145
Direct configuration=    61
   0.47604785  0.46556417  0.50742123
   0.47566464  0.51118534  0.46687411
   0.47558606  0.52257740  0.52565153
   0.48665098  0.49949209  0.49955360
   0.54337573  0.48717469  0.48524828
   0.54269719  0.51399512  0.51523124
Direct configuration=    62
   0.47604787  0.46556417  0.50742156
   0.47566432  0.51118515  0.46687425
   0.47558628  0.52257751  0.52565159
   0.48665094  0.49949204  0.49955370
   0.54337565  0.48717468  0.48524789
   0.54269741  0.51399525  0.51523101
Direct configuration=    63
   0.47604789  0.46556416  0.50742198
   0.47566390  0.51118491  0.46687444
   0.47558656  0.52257766  0.52565168
   0.48665089  0.49949199  0.49955381
   0.54337553  0.48717469  0.48524741
   0.54269769  0.51399541  0.51523068
Direct configuration=    64
   0.47604793  0.46556414  0.50742251
   0.47566337  0.51118460  0.46687468
   0.47558691  0.52257784  0.52565179
   0.48665084  0.49949192  0.49955395
   0.54337535  0.48717477  0.48524688
   0.54269806  0.51399554  0.51523020
Direct configuration=    65
   0.47604797  0.46556411  0.50742318
   0.47566271  0.51118422  0.46687496
   0.47558737  0.52257807  0.52565192
   0.48665080  0.49949183  0.49955411
   0.54337509  0.48717497  0.48524633
   0.54269851  0.51399561  0.51522950
Direct configuration=    66
   0.47604804  0.46556409  0.50742402
   0.47566188  0.51118373  0.46687531
   0.47558795  0.52257835  0.52565210
   0.48665077  0.49949172  0.49955433
   0.54337476  0.48717523  0.48524565
   0.54269906  0.51399569  0.51522859
Direct configuration=    67
   0.47604814  0.46556409  0.50742509
   0.47566086  0.51118314  0.46687574
   0.47558867  0.52257869  0.52565232
   0.48665075  0.49949159  0.49955461
   0.54337439  0.48717541  0.48524466
   0.54269965  0.51399588  0.51522758
Direct configuration=    68
   0.47604831  0.46556412  0.50742643
   0.47565962  0.51118242  0.46687628
   0.47558955  0.52257912  0.52565260
   0.48665073  0.49949145  0.49955497
   0.54337398  0.48717548  0.48524327
   0.54270026  0.51399621  0.51522644
Direct configuration=    69
   0.47604856  0.46556417  0.50742809
   0.47565811  0.51118153  0.46687695
   0.47559065  0.52257964  0.52565294
   0.48665073  0.49949129  0.49955542
   0.54337344  0.48717570  0.48524172
   0.54270098  0.51399647  0.51522488
Direct configuration=    70
   0.47604890  0.46556426  0.50743017
   0.47565628  0.51118044  0.46687778
   0.47559203  0.52258025  0.52565335
   0.48665073  0.49949112  0.49955595
   0.54337272  0.48717610  0.48523998
   0.54270180  0.51399663  0.51522278
Direct configuration=    71
   0.47604940  0.46556442  0.50743273
   0.47565412  0.51117913  0.46687880
   0.47559365  0.52258101  0.52565388
   0.48665073  0.49949098  0.49955661
   0.54337201  0.48717622  0.48523748
   0.54270254  0.51399705  0.51522050
Direct configuration=    72
   0.47605010  0.46556462  0.50743590
   0.47565151  0.51117757  0.46688001
   0.47559561  0.52258196  0.52565453
   0.48665074  0.49949082  0.49955746
   0.54337116  0.48717645  0.48523459
   0.54270334  0.51399738  0.51521751
Direct configuration=    73
   0.47605105  0.46556486  0.50743981
   0.47564837  0.51117570  0.46688145
   0.47559792  0.52258316  0.52565536
   0.48665076  0.49949068  0.49955852
   0.54337016  0.48717675  0.48523115
   0.54270419  0.51399764  0.51521371
Direct configuration=    74
   0.47605105  0.46556486  0.50743981
   0.47564837  0.51117570  0.46688145
   0.47559792  0.52258316  0.52565536
   0.48665076  0.49949068  0.49955852
   0.54337016  0.48717675  0.48523115
   0.54270419  0.51399764  0.51521371
