   6   6   0   0
  0.4500000E+04  0.3000000E-08  0.3000000E-08  0.3000000E-08  0.0000000E+00
  1.000000000000000E-004
  CAR 
 unknown system                          
      2.03007039    -26.21983210  301     -6.35036618      1.00000000
    -26.220  0.0000E+00  0.0000E+00
    -26.126  0.0000E+00  0.0000E+00
    -26.031  0.0000E+00  0.0000E+00
    -25.937  0.0000E+00  0.0000E+00
    -25.843  0.0000E+00  0.0000E+00
    -25.749  0.0000E+00  0.0000E+00
    -25.655  0.0000E+00  0.0000E+00
    -25.561  0.0000E+00  0.0000E+00
    -25.467  0.0000E+00  0.0000E+00
    -25.372  0.1179E-16  0.1110E-17
    -25.278  0.2547E-14  0.2409E-15
    -25.184  0.3249E-12  0.3083E-13
    -25.090  0.2678E-10  0.2553E-11
    -24.996  0.1428E-08  0.1370E-09
    -24.902  0.4932E-07  0.4782E-08
    -24.807  0.1104E-05  0.1088E-06
    -24.713  0.1604E-04  0.1620E-05
    -24.619  0.1514E-03  0.1588E-04
    -24.525  0.9297E-03  0.1034E-03
    -24.431  0.3716E-02  0.4533E-03
    -24.337  0.9677E-02  0.1365E-02
    -24.242  0.1643E-01  0.2912E-02
    -24.148  0.1820E-01  0.4625E-02
    -24.054  0.1315E-01  0.5863E-02
    -23.960  0.6194E-02  0.6447E-02
    -23.866  0.1902E-02  0.6626E-02
    -23.772  0.3804E-03  0.6662E-02
    -23.677  0.4951E-04  0.6666E-02
    -23.583  0.4188E-05  0.6667E-02
    -23.489  0.2301E-06  0.6667E-02
    -23.395  0.8197E-08  0.6667E-02
    -23.301  0.1892E-09  0.6667E-02
    -23.207  0.2827E-11  0.6667E-02
    -23.112  0.2731E-13  0.6667E-02
    -23.018  0.1729E-15  0.6667E-02
    -22.924  0.0000E+00  0.6667E-02
    -22.830  0.0000E+00  0.6667E-02
    -22.736  0.0000E+00  0.6667E-02
    -22.642  0.0000E+00  0.6667E-02
    -22.547  0.0000E+00  0.6667E-02
    -22.453  0.0000E+00  0.6667E-02
    -22.359  0.0000E+00  0.6667E-02
    -22.265  0.0000E+00  0.6667E-02
    -22.171  0.0000E+00  0.6667E-02
    -22.077  0.0000E+00  0.6667E-02
    -21.982  0.0000E+00  0.6667E-02
    -21.888  0.0000E+00  0.6667E-02
    -21.794  0.0000E+00  0.6667E-02
    -21.700  0.0000E+00  0.6667E-02
    -21.606  0.0000E+00  0.6667E-02
    -21.512  0.0000E+00  0.6667E-02
    -21.417  0.0000E+00  0.6667E-02
    -21.323  0.0000E+00  0.6667E-02
    -21.229  0.0000E+00  0.6667E-02
    -21.135  0.0000E+00  0.6667E-02
    -21.041  0.0000E+00  0.6667E-02
    -20.947  0.0000E+00  0.6667E-02
    -20.852  0.0000E+00  0.6667E-02
    -20.758  0.0000E+00  0.6667E-02
    -20.664  0.0000E+00  0.6667E-02
    -20.570  0.0000E+00  0.6667E-02
    -20.476  0.0000E+00  0.6667E-02
    -20.382  0.0000E+00  0.6667E-02
    -20.287  0.0000E+00  0.6667E-02
    -20.193  0.0000E+00  0.6667E-02
    -20.099  0.0000E+00  0.6667E-02
    -20.005  0.0000E+00  0.6667E-02
    -19.911  0.0000E+00  0.6667E-02
    -19.817  0.0000E+00  0.6667E-02
    -19.722  0.0000E+00  0.6667E-02
    -19.628  0.0000E+00  0.6667E-02
    -19.534  0.0000E+00  0.6667E-02
    -19.440  0.0000E+00  0.6667E-02
    -19.346  0.0000E+00  0.6667E-02
    -19.252  0.2240E-15  0.6667E-02
    -19.157  0.3471E-13  0.6667E-02
    -19.063  0.3516E-11  0.6667E-02
    -18.969  0.2304E-09  0.6667E-02
    -18.875  0.9767E-08  0.6667E-02
    -18.781  0.2683E-06  0.6667E-02
    -18.687  0.4781E-05  0.6667E-02
    -18.592  0.5532E-04  0.6672E-02
    -18.498  0.4161E-03  0.6712E-02
    -18.404  0.2037E-02  0.6903E-02
    -18.310  0.6494E-02  0.7515E-02
    -18.216  0.1349E-01  0.8786E-02
    -18.122  0.1829E-01  0.1051E-01
    -18.027  0.1617E-01  0.1203E-01
    -17.933  0.9322E-02  0.1291E-01
    -17.839  0.3505E-02  0.1324E-01
    -17.745  0.8585E-03  0.1332E-01
    -17.651  0.1369E-03  0.1333E-01
    -17.557  0.1420E-04  0.1333E-01
    -17.462  0.9565E-06  0.1333E-01
    -17.368  0.4182E-07  0.1333E-01
    -17.274  0.1185E-08  0.1333E-01
    -17.180  0.2175E-10  0.1333E-01
    -17.086  0.2582E-12  0.1333E-01
    -16.992  0.1981E-14  0.1333E-01
    -16.897  0.1572E-16  0.1333E-01
    -16.803  0.0000E+00  0.1333E-01
    -16.709  0.0000E+00  0.1333E-01
    -16.615  0.0000E+00  0.1333E-01
    -16.521  0.0000E+00  0.1333E-01
    -16.427  0.0000E+00  0.1333E-01
    -16.332  0.0000E+00  0.1333E-01
    -16.238  0.0000E+00  0.1333E-01
    -16.144  0.0000E+00  0.1333E-01
    -16.050  0.0000E+00  0.1333E-01
    -15.956  0.0000E+00  0.1333E-01
    -15.862  0.0000E+00  0.1333E-01
    -15.767  0.0000E+00  0.1333E-01
    -15.673  0.0000E+00  0.1333E-01
    -15.579  0.0000E+00  0.1333E-01
    -15.485  0.0000E+00  0.1333E-01
    -15.391  0.0000E+00  0.1333E-01
    -15.297  0.0000E+00  0.1333E-01
    -15.202  0.0000E+00  0.1333E-01
    -15.108  0.0000E+00  0.1333E-01
    -15.014  0.0000E+00  0.1333E-01
    -14.920  0.0000E+00  0.1333E-01
    -14.826  0.0000E+00  0.1333E-01
    -14.732  0.0000E+00  0.1333E-01
    -14.637  0.0000E+00  0.1333E-01
    -14.543  0.0000E+00  0.1333E-01
    -14.449  0.0000E+00  0.1333E-01
    -14.355  0.0000E+00  0.1333E-01
    -14.261  0.3930E-17  0.1333E-01
    -14.167  0.5738E-15  0.1333E-01
    -14.072  0.8329E-13  0.1333E-01
    -13.978  0.7791E-11  0.1333E-01
    -13.884  0.4714E-09  0.1333E-01
    -13.790  0.1846E-07  0.1333E-01
    -13.696  0.4687E-06  0.1333E-01
    -13.602  0.7719E-05  0.1333E-01
    -13.507  0.8255E-04  0.1334E-01
    -13.413  0.5741E-03  0.1340E-01
    -13.319  0.2598E-02  0.1364E-01
    -13.225  0.7661E-02  0.1436E-01
    -13.131  0.1473E-01  0.1575E-01
    -13.037  0.1846E-01  0.1749E-01
    -12.942  0.1510E-01  0.1891E-01
    -12.848  0.8051E-02  0.1967E-01
    -12.754  0.2799E-02  0.1993E-01
    -12.660  0.6341E-03  0.1999E-01
    -12.566  0.9349E-04  0.2000E-01
    -12.472  0.8962E-05  0.2000E-01
    -12.377  0.5581E-06  0.2000E-01
    -12.283  0.2493E-07  0.2000E-01
    -12.189  0.8047E-07  0.2000E-01
    -12.095  0.1746E-05  0.2000E-01
    -12.001  0.2499E-04  0.2000E-01
    -11.907  0.2351E-03  0.2002E-01
    -11.812  0.1458E-02  0.2016E-01
    -11.718  0.5987E-02  0.2073E-01
    -11.624  0.1633E-01  0.2226E-01
    -11.530  0.2965E-01  0.2506E-01
    -11.436  0.3593E-01  0.2844E-01
    -11.342  0.2907E-01  0.3118E-01
    -11.247  0.1569E-01  0.3265E-01
    -11.153  0.5640E-02  0.3318E-01
    -11.059  0.1346E-02  0.3331E-01
    -10.965  0.2126E-03  0.3333E-01
    -10.871  0.2215E-04  0.3333E-01
    -10.777  0.1516E-05  0.3333E-01
    -10.682  0.6791E-07  0.3333E-01
    -10.588  0.1986E-08  0.3333E-01
    -10.494  0.3783E-10  0.3333E-01
    -10.400  0.4680E-12  0.3333E-01
    -10.306  0.3759E-14  0.3333E-01
    -10.212  0.1572E-16  0.3333E-01
    -10.117  0.1847E-15  0.3333E-01
    -10.023  0.2918E-13  0.3333E-01
     -9.929  0.3003E-11  0.3333E-01
     -9.835  0.1998E-09  0.3333E-01
     -9.741  0.8604E-08  0.3333E-01
     -9.647  0.2401E-06  0.3333E-01
     -9.552  0.4345E-05  0.3333E-01
     -9.458  0.5106E-04  0.3334E-01
     -9.364  0.3900E-03  0.3338E-01
     -9.270  0.1938E-02  0.3356E-01
     -9.176  0.6276E-02  0.3415E-01
     -9.082  0.1324E-01  0.3540E-01
     -8.987  0.1822E-01  0.3711E-01
     -8.893  0.1636E-01  0.3865E-01
     -8.799  0.9582E-02  0.3955E-01
     -8.705  0.3695E-02  0.3990E-01
     -8.611  0.1220E-02  0.4002E-01
     -8.517  0.1776E-02  0.4019E-01
     -8.422  0.5574E-02  0.4071E-01
     -8.328  0.1236E-01  0.4187E-01
     -8.234  0.1793E-01  0.4356E-01
     -8.140  0.1697E-01  0.4516E-01
     -8.046  0.1047E-01  0.4615E-01
     -7.952  0.4213E-02  0.4654E-01
     -7.857  0.1111E-02  0.4665E-01
     -7.763  0.2551E-03  0.4667E-01
     -7.669  0.5035E-03  0.4672E-01
     -7.575  0.2281E-02  0.4693E-01
     -7.481  0.7013E-02  0.4759E-01
     -7.387  0.1407E-01  0.4892E-01
     -7.292  0.1840E-01  0.5065E-01
     -7.198  0.1570E-01  0.5213E-01
     -7.104  0.8737E-02  0.5295E-01
     -7.010  0.3170E-02  0.5325E-01
     -6.916  0.7494E-03  0.5332E-01
     -6.822  0.1153E-03  0.5333E-01
     -6.727  0.1154E-04  0.5333E-01
     -6.633  0.7501E-06  0.5333E-01
     -6.539  0.3164E-07  0.5333E-01
     -6.445  0.8649E-09  0.5333E-01
     -6.351  0.1531E-10  0.5333E-01
     -6.257  0.1753E-12  0.5333E-01
     -6.162  0.1297E-14  0.5333E-01
     -6.068  0.7860E-17  0.5333E-01
     -5.974  0.0000E+00  0.5333E-01
     -5.880  0.0000E+00  0.5333E-01
     -5.786  0.0000E+00  0.5333E-01
     -5.692  0.0000E+00  0.5333E-01
     -5.597  0.0000E+00  0.5333E-01
     -5.503  0.0000E+00  0.5333E-01
     -5.409  0.0000E+00  0.5333E-01
     -5.315  0.0000E+00  0.5333E-01
     -5.221  0.0000E+00  0.5333E-01
     -5.127  0.0000E+00  0.5333E-01
     -5.032  0.0000E+00  0.5333E-01
     -4.938  0.0000E+00  0.5333E-01
     -4.844  0.0000E+00  0.5333E-01
     -4.750  0.0000E+00  0.5333E-01
     -4.656  0.0000E+00  0.5333E-01
     -4.562  0.0000E+00  0.5333E-01
     -4.467  0.0000E+00  0.5333E-01
     -4.373  0.0000E+00  0.5333E-01
     -4.279  0.0000E+00  0.5333E-01
     -4.185  0.0000E+00  0.5333E-01
     -4.091  0.0000E+00  0.5333E-01
     -3.997  0.0000E+00  0.5333E-01
     -3.902  0.0000E+00  0.5333E-01
     -3.808  0.1572E-16  0.5333E-01
     -3.714  0.2727E-14  0.5333E-01
     -3.620  0.3460E-12  0.5333E-01
     -3.526  0.2835E-10  0.5333E-01
     -3.432  0.1503E-08  0.5333E-01
     -3.337  0.5160E-07  0.5333E-01
     -3.243  0.1149E-05  0.5333E-01
     -3.149  0.1659E-04  0.5334E-01
     -3.055  0.1557E-03  0.5335E-01
     -2.961  0.9501E-03  0.5344E-01
     -2.867  0.3775E-02  0.5379E-01
     -2.772  0.9775E-02  0.5472E-01
     -2.678  0.1650E-01  0.5627E-01
     -2.584  0.1817E-01  0.5798E-01
     -2.490  0.1305E-01  0.5921E-01
     -2.396  0.6113E-02  0.5978E-01
     -2.302  0.1866E-02  0.5996E-01
     -2.207  0.3711E-03  0.6000E-01
     -2.113  0.4801E-04  0.6000E-01
     -2.019  0.4038E-05  0.6000E-01
     -1.925  0.2209E-06  0.6000E-01
     -1.831  0.2366E-07  0.6000E-01
     -1.737  0.4102E-06  0.6000E-01
     -1.642  0.6882E-05  0.6000E-01
     -1.548  0.7502E-04  0.6001E-01
     -1.454  0.5317E-03  0.6006E-01
     -1.360  0.2453E-02  0.6029E-01
     -1.266  0.7370E-02  0.6098E-01
     -1.172  0.1444E-01  0.6234E-01
     -1.077  0.1844E-01  0.6408E-01
     -0.983  0.1537E-01  0.6553E-01
     -0.889  0.8370E-02  0.6631E-01
     -0.795  0.3113E-02  0.6661E-01
     -0.701  0.1620E-02  0.6676E-01
     -0.607  0.3840E-02  0.6712E-01
     -0.512  0.9727E-02  0.6804E-01
     -0.418  0.1651E-01  0.6959E-01
     -0.324  0.1858E-01  0.7134E-01
     -0.230  0.1504E-01  0.7276E-01
     -0.136  0.1243E-01  0.7393E-01
     -0.042  0.1512E-01  0.7535E-01
      0.053  0.1860E-01  0.7710E-01
      0.147  0.1642E-01  0.7865E-01
      0.241  0.9598E-02  0.7955E-01
      0.335  0.3666E-02  0.7990E-01
      0.429  0.9128E-03  0.7998E-01
      0.523  0.1480E-03  0.8000E-01
      0.618  0.1560E-04  0.8000E-01
      0.712  0.1069E-05  0.8000E-01
      0.806  0.4751E-07  0.8000E-01
      0.900  0.1369E-08  0.8000E-01
      0.994  0.2555E-10  0.8000E-01
      1.088  0.3085E-12  0.8000E-01
      1.183  0.2405E-14  0.8000E-01
      1.277  0.1572E-16  0.8000E-01
      1.371  0.0000E+00  0.8000E-01
      1.465  0.0000E+00  0.8000E-01
      1.559  0.0000E+00  0.8000E-01
      1.653  0.0000E+00  0.8000E-01
      1.748  0.0000E+00  0.8000E-01
      1.842  0.0000E+00  0.8000E-01
      1.936  0.0000E+00  0.8000E-01
      2.030  0.0000E+00  0.8000E-01
