    6    6  300    1
  0.4500000E+04  0.3000000E-08  0.3000000E-08  0.3000000E-08  0.0000000E+00
  1.000000000000000E-004
  CAR 
 unknown system                          
     16      4     12
 
  0.2500000E+00  0.2500000E+00  0.2500000E+00  0.2500000E+00
    1      -24.219832   1.000000
    2      -18.148695   1.000000
    3      -13.080892   1.000000
    4      -11.518778   1.000000
    5      -11.451446   1.000000
    6       -9.011181   1.000000
    7       -8.246266   1.000000
    8       -7.327373   1.000000
    9       -2.657031   0.000000
   10       -1.117598   0.000000
   11       -0.396212   0.000000
   12        0.026704   0.000000
 
 -0.2500000E+00  0.2500000E+00  0.2500000E+00  0.2500000E+00
    1      -24.219831   1.000000
    2      -18.148695   1.000000
    3      -13.080897   1.000000
    4      -11.518772   1.000000
    5      -11.451441   1.000000
    6       -9.011185   1.000000
    7       -8.246267   1.000000
    8       -7.327376   1.000000
    9       -2.657016   0.000000
   10       -1.117606   0.000000
   11       -0.396211   0.000000
   12        0.029302   0.000000
 
  0.2500000E+00 -0.2500000E+00  0.2500000E+00  0.2500000E+00
    1      -24.219832   1.000000
    2      -18.148695   1.000000
    3      -13.080892   1.000000
    4      -11.518778   1.000000
    5      -11.451447   1.000000
    6       -9.011185   1.000000
    7       -8.246283   1.000000
    8       -7.327371   1.000000
    9       -2.657017   0.000000
   10       -1.117608   0.000000
   11       -0.396210   0.000000
   12        0.029835   0.000000
 
 -0.2500000E+00 -0.2500000E+00  0.2500000E+00  0.2500000E+00
    1      -24.219832   1.000000
    2      -18.148695   1.000000
    3      -13.080894   1.000000
    4      -11.518783   1.000000
    5      -11.451443   1.000000
    6       -9.011189   1.000000
    7       -8.246278   1.000000
    8       -7.327372   1.000000
    9       -2.657016   0.000000
   10       -1.117608   0.000000
   11       -0.396210   0.000000
   12        0.030070   0.000000
