 vasp.5.4.1 24Jun15 (build Jan 13 2020 12:58:22) complex                        
  
 executed on           IFC91_ompi date 2020.02.03  02:42:24
 running on   15 total cores
 each image running on    1 cores
 distrk:  each k-point on    1 cores,    1 groups
 distr:  one band on NCORES_PER_BAND=   1 cores,    1 groups


--------------------------------------------------------------------------------------------------------


 INCAR:
 POTCAR:    PAW_PBE H 15Jun2001                   
 POTCAR:    PAW_PBE C 08Apr2002                   
 POTCAR:    PAW_PBE N 08Apr2002                   
 POTCAR:    PAW_PBE H 15Jun2001                   
   VRHFIN =H: ultrasoft test                                                    
   LEXCH  = PE                                                                  
   EATOM  =    12.4884 eV,    0.9179 Ry                                         
                                                                                
   TITEL  = PAW_PBE H 15Jun2001                                                 
   LULTRA =        F    use ultrasoft PP ?                                      
   IUNSCR =        0    unscreen: 0-lin 1-nonlin 2-no                           
   RPACOR =    0.000    partial core radius                                     
   POMASS =    1.000; ZVAL   =    1.000    mass and valenz                      
   RCORE  =    1.100    outmost cutoff radius                                   
   RWIGS  =    0.700; RWIGS  =    0.370    wigner-seitz radius (au A)           
   ENMAX  =  250.000; ENMIN  =  200.000 eV                                      
   RCLOC  =    0.701    cutoff for local pot                                    
   LCOR   =        T    correct aug charges                                     
   LPAW   =        T    paw PP                                                  
   EAUG   =  400.000                                                            
   RMAX   =    1.123    core radius for proj-oper                               
   RAUG   =    1.200    factor for augmentation sphere                          
   RDEP   =    1.112    radius for radial grids                                 
   RDEPT  =    0.926    core radius for aug-charge                              
                                                                                
   Atomic configuration                                                         
    2 entries                                                                   
     n  l   j            E        occ.                                          
     1  0  0.50        -6.4927   1.0000                                         
     2  1  0.50        -3.4015   0.0000                                         
   Description                                                                  
     l       E           TYP  RCUT    TYP  RCUT                                 
     0     -6.4927494     23  1.100                                             
     0      6.8029130     23  1.100                                             
     1     -4.0817478     23  1.100                                             
  local pseudopotential read in
  atomic valenz-charges read in
  non local Contribution for L=           0  read in
    real space projection operators read in
  non local Contribution for L=           0  read in
    real space projection operators read in
  non local Contribution for L=           1  read in
    real space projection operators read in
    PAW grid and wavefunctions read in
 
   number of l-projection  operators is LMAX  =           3
   number of lm-projection operators is LMMAX =           5
 
 POTCAR:    PAW_PBE C 08Apr2002                   
   VRHFIN =C: s2p2                                                              
   LEXCH  = PE                                                                  
   EATOM  =   147.1560 eV,   10.8157 Ry                                         
                                                                                
   TITEL  = PAW_PBE C 08Apr2002                                                 
   LULTRA =        F    use ultrasoft PP ?                                      
   IUNSCR =        1    unscreen: 0-lin 1-nonlin 2-no                           
   RPACOR =    1.200    partial core radius                                     
   POMASS =   12.011; ZVAL   =    4.000    mass and valenz                      
   RCORE  =    1.500    outmost cutoff radius                                   
   RWIGS  =    1.630; RWIGS  =    0.863    wigner-seitz radius (au A)           
   ENMAX  =  400.000; ENMIN  =  300.000 eV                                      
   ICORE  =        2    local potential                                         
   LCOR   =        T    correct aug charges                                     
   LPAW   =        T    paw PP                                                  
   EAUG   =  644.873                                                            
   DEXC   =    0.000                                                            
   RMAX   =    1.529    core radius for proj-oper                               
   RAUG   =    1.300    factor for augmentation sphere                          
   RDEP   =    1.501    radius for radial grids                                 
   RDEPT  =    1.300    core radius for aug-charge                              
                                                                                
   Atomic configuration                                                         
    4 entries                                                                   
     n  l   j            E        occ.                                          
     1  0  0.50      -273.3789   2.0000                                         
     2  0  0.50       -13.7508   2.0000                                         
     2  1  0.50        -5.2854   2.0000                                         
     3  2  1.50        -5.4423   0.0000                                         
   Description                                                                  
     l       E           TYP  RCUT    TYP  RCUT                                 
     0    -13.7508458     23  1.200                                             
     0     -8.2022199     23  1.200                                             
     1     -5.2854383     23  1.500                                             
     1     34.0145650     23  1.500                                             
     2     -5.4423304      7  1.500                                             
  local pseudopotential read in
  partial core-charges read in
  partial kinetic energy density read in
  atomic valenz-charges read in
  non local Contribution for L=           0  read in
    real space projection operators read in
  non local Contribution for L=           0  read in
    real space projection operators read in
  non local Contribution for L=           1  read in
    real space projection operators read in
  non local Contribution for L=           1  read in
    real space projection operators read in
    PAW grid and wavefunctions read in
 
   number of l-projection  operators is LMAX  =           4
   number of lm-projection operators is LMMAX =           8
 
 POTCAR:    PAW_PBE N 08Apr2002                   
   VRHFIN =N: s2p3                                                              
   LEXCH  = PE                                                                  
   EATOM  =   264.5486 eV,   19.4438 Ry                                         
                                                                                
   TITEL  = PAW_PBE N 08Apr2002                                                 
   LULTRA =        F    use ultrasoft PP ?                                      
   IUNSCR =        1    unscreen: 0-lin 1-nonlin 2-no                           
   RPACOR =    1.200    partial core radius                                     
   POMASS =   14.001; ZVAL   =    5.000    mass and valenz                      
   RCORE  =    1.500    outmost cutoff radius                                   
   RWIGS  =    1.400; RWIGS  =    0.741    wigner-seitz radius (au A)           
   ENMAX  =  400.000; ENMIN  =  300.000 eV                                      
   ICORE  =        2    local potential                                         
   LCOR   =        T    correct aug charges                                     
   LPAW   =        T    paw PP                                                  
   EAUG   =  627.112                                                            
   DEXC   =    0.000                                                            
   RMAX   =    1.529    core radius for proj-oper                               
   RAUG   =    1.300    factor for augmentation sphere                          
   RDEP   =    1.514    radius for radial grids                                 
   RDEPT  =    1.338    core radius for aug-charge                              
                                                                                
   Atomic configuration                                                         
    4 entries                                                                   
     n  l   j            E        occ.                                          
     1  0  0.50      -384.7179   2.0000                                         
     2  0  0.50       -18.5828   2.0000                                         
     2  1  0.50        -7.0898   3.0000                                         
     3  2  1.50        -6.8029   0.0000                                         
   Description                                                                  
     l       E           TYP  RCUT    TYP  RCUT                                 
     0    -18.5828119     23  1.200                                             
     0    -13.5018863     23  1.200                                             
     1     -7.0897853     23  1.500                                             
     1      9.5240782     23  1.500                                             
     2     -6.8029130      7  1.500                                             
  local pseudopotential read in
  partial core-charges read in
  partial kinetic energy density read in
  atomic valenz-charges read in
  non local Contribution for L=           0  read in
    real space projection operators read in
  non local Contribution for L=           0  read in
    real space projection operators read in
  non local Contribution for L=           1  read in
    real space projection operators read in
  non local Contribution for L=           1  read in
    real space projection operators read in
    PAW grid and wavefunctions read in
 
   number of l-projection  operators is LMAX  =           4
   number of lm-projection operators is LMMAX =           8
 

 ----------------------------------------------------------------------------- 
|                                                                             |
|  ADVICE TO THIS USER RUNNING 'VASP/VAMP'   (HEAR YOUR MASTER'S VOICE ...):  |
|                                                                             |
|      You have a (more or less) 'small supercell' and for smaller cells      |
|      it is recommended  to use the reciprocal-space projection scheme!      |
|      The real space optimization is not  efficient for small cells and it   |
|      is also less accurate ...                                              |
|      Therefore set LREAL=.FALSE. in the  INCAR file                         |
|                                                                             |
 ----------------------------------------------------------------------------- 

 Optimization of the real space projectors (new method)

 maximal supplied QI-value         = 34.20
 optimisation between [QCUT,QGAM] = [  9.92, 20.18] = [ 27.55,114.04] Ry 
 Optimized for a Real-space Cutoff    1.26 Angstroem

   l    n(q)    QCUT    max X(q) W(low)/X(q) W(high)/X(q)  e(spline) 
   0      8     9.919    19.460    0.50E-03    0.23E-03    0.29E-06
   0      8     9.919    12.209    0.48E-03    0.23E-03    0.28E-06
   1      7     9.919     4.655    0.17E-03    0.75E-03    0.30E-06
 Optimization of the real space projectors (new method)

 maximal supplied QI-value         = 25.13
 optimisation between [QCUT,QGAM] = [ 10.05, 20.36] = [ 28.30,116.06] Ry 
 Optimized for a Real-space Cutoff    1.30 Angstroem

   l    n(q)    QCUT    max X(q) W(low)/X(q) W(high)/X(q)  e(spline) 
   0      8    10.053   115.676    0.49E-03    0.72E-03    0.18E-06
   0      8    10.053    87.132    0.49E-03    0.71E-03    0.18E-06
   1      7    10.053     4.429    0.32E-03    0.31E-03    0.18E-06
   1      7    10.053     2.733    0.23E-03    0.19E-03    0.20E-06
 Optimization of the real space projectors (new method)

 maximal supplied QI-value         = 25.13
 optimisation between [QCUT,QGAM] = [ 10.05, 20.36] = [ 28.30,116.06] Ry 
 Optimized for a Real-space Cutoff    1.65 Angstroem

   l    n(q)    QCUT    max X(q) W(low)/X(q) W(high)/X(q)  e(spline) 
   0     10    10.053    79.467    0.76E-04    0.72E-04    0.56E-06
   0     10    10.053    66.151    0.76E-04    0.72E-04    0.55E-06
   1     10    10.053     8.350    0.25E-03    0.92E-03    0.41E-05
   1     10    10.053     5.531    0.27E-03    0.10E-02    0.45E-05
  PAW_PBE H 15Jun2001                   :
 energy of atom  1       EATOM=  -12.4884
 kinetic energy error for atom=    0.0098 (will be added to EATOM!!)
  PAW_PBE C 08Apr2002                   :
 energy of atom  2       EATOM= -147.1560
 kinetic energy error for atom=    0.0288 (will be added to EATOM!!)
  PAW_PBE N 08Apr2002                   :
 energy of atom  3       EATOM= -264.5486
 kinetic energy error for atom=    0.0736 (will be added to EATOM!!)
 
 
 POSCAR: H3 C2 N1                                
  positions in direct lattice
  velocities in cartesian coordinates
 exchange correlation table for  LEXCH =        8
   RHO(1)=    0.500       N(1)  =     2000
   RHO(2)=  100.500       N(2)  =     4000

 VTST: version 3.2, (02/03/18)

 CHAIN: initializing optimizer
 
 OPT: Using FIRE optimizer
 OPT: FIRE, Init
 OPT: FIRE, MAXMOVE       0.20000
 OPT: FIRE, TIMESTEP      0.10000
 OPT: FIRE, FTIMEMAX      1.00000
 OPT: FIRE, FTIMEINC      1.10000
 OPT: FIRE, FTIMEDEC      0.50000
 OPT: FIRE, FALPHADEC     0.99000
 OPT: FIRE, FALPHA        0.10000
 OPT: FIRE, FNMIN         5
 
 CHAIN: Read ICHAIN            0
 CHAIN: Running the NEB
 NEB:          SPRING     -5.000000
 NEB:          LCLIMB      T
 NEB:     LTANGENTOLD      F
 NEB:           LDNEB      F
 NEB:        LDNEBORG      F
 NEB:        LNEBCELL      F
 NEB:          EFIRST      0.000000
 NEB:           ELAST      0.000000
 
 POSCAR: H3 C2 N1                                
  positions in direct lattice
  No initial velocities read in
 
 POSCAR: H3 C2 N1                                
  positions in direct lattice
  No initial velocities read in
 


--------------------------------------------------------------------------------------------------------


 ion  position               nearest neighbor table
   1  0.475  0.468  0.507-   4 1.10
   2  0.478  0.511  0.467-   4 1.10
   3  0.469  0.525  0.525-   4 1.08
   4  0.485  0.502  0.502-   3 1.08   1 1.10   2 1.10   6 1.49
   5  0.557  0.485  0.487-   6 1.20
   6  0.534  0.507  0.511-   5 1.20   4 1.49
 
  LATTYP: Found a simple cubic cell.
 ALAT       =    30.0000000000
  
  Lattice vectors:
  
 A1 = (  30.0000000000,   0.0000000000,   0.0000000000)
 A2 = (   0.0000000000,  30.0000000000,   0.0000000000)
 A3 = (   0.0000000000,   0.0000000000,  30.0000000000)


Analysis of symmetry for initial positions (statically):
=====================================================================
 Subroutine PRICEL returns:
 Original cell was already a primitive cell.
 

 Routine SETGRP: Setting up the symmetry group for a 
 simple cubic supercell.


 Subroutine GETGRP returns: Found  1 space group operations
 (whereof  1 operations were pure point group operations)
 out of a pool of 48 trial point group operations.


The static configuration has the point symmetry C_1 .


Analysis of symmetry for dynamics (positions and initial velocities):
=====================================================================
 Subroutine PRICEL returns:
 Original cell was already a primitive cell.
 

 Routine SETGRP: Setting up the symmetry group for a 
 simple cubic supercell.


 Subroutine GETGRP returns: Found  1 space group operations
 (whereof  1 operations were pure point group operations)
 out of a pool of 48 trial point group operations.


The dynamic configuration has the point symmetry C_1 .
 
 
 KPOINTS: Mo2C                                    

Automatic generation of k-mesh.
Space group operators:
 irot       det(A)        alpha          n_x          n_y          n_z        tau_x        tau_y        tau_z
    1     1.000000     0.000000     1.000000     0.000000     0.000000     0.000000     0.000000     0.000000
 
 Subroutine IBZKPT returns following result:
 ===========================================
 
 Found      4 irreducible k-points:
 
 Following reciprocal coordinates:
            Coordinates               Weight
  0.250000  0.250000  0.250000      2.000000
 -0.250000  0.250000  0.250000      2.000000
  0.250000 -0.250000  0.250000      2.000000
 -0.250000 -0.250000  0.250000      2.000000
 
 Following cartesian coordinates:
            Coordinates               Weight
  0.008333  0.008333  0.008333      2.000000
 -0.008333  0.008333  0.008333      2.000000
  0.008333 -0.008333  0.008333      2.000000
 -0.008333 -0.008333  0.008333      2.000000
 


--------------------------------------------------------------------------------------------------------




 Dimension of arrays:
   k-points           NKPTS =      4   k-points in BZ     NKDIM =      4   number of bands    NBANDS=     12
   number of dos      NEDOS =    301   number of ions     NIONS =      6
   non local maximal  LDIM  =      4   non local SUM 2l+1 LMDIM =      8
   total plane-waves  NPLWV = ******
   max r-space proj   IRMAX =   2395   max aug-charges    IRDMAX=   1738
   dimension x,y,z NGX =   150 NGY =  150 NGZ =  150
   dimension x,y,z NGXF=   300 NGYF=  300 NGZF=  300
   support grid    NGXF=   300 NGYF=  300 NGZF=  300
   ions per type =               3   2   1
 NGX,Y,Z   is equivalent  to a cutoff of   8.31,  8.31,  8.31 a.u.
 NGXF,Y,Z  is equivalent  to a cutoff of  16.62, 16.62, 16.62 a.u.


 I would recommend the setting:
   dimension x,y,z NGX =   147 NGY =  147 NGZ =  147
 SYSTEM =  unknown system                          
 POSCAR =  H3 C2 N1                                

 Startparameter for this run:
   NWRITE =      2    write-flag & timer
   PREC   = normal    normal or accurate (medium, high low for compatibility)
   ISTART =      0    job   : 0-new  1-cont  2-samecut
   ICHARG =      2    charge: 1-file 2-atom 10-const
   ISPIN  =      1    spin polarized calculation?
   LNONCOLLINEAR =      F non collinear calculations
   LSORBIT =      F    spin-orbit coupling
   INIWAV =      1    electr: 0-lowe 1-rand  2-diag
   LASPH  =      F    aspherical Exc in radial PAW
   METAGGA=      F    non-selfconsistent MetaGGA calc.

 Electronic Relaxation 1
   ENCUT  =  400.0 eV  29.40 Ry    5.42 a.u.  48.92 48.92 48.92*2*pi/ulx,y,z
   ENINI  =  400.0     initial cutoff
   ENAUG  =  644.9 eV  augmentation charge cutoff
   NELM   =    500;   NELMIN=  6; NELMDL= -5     # of ELM steps 
   EDIFF  = 0.1E-03   stopping-criterion for ELM
   LREAL  =      T    real-space projection
   NLSPLINE    = F    spline interpolate recip. space projectors
   LCOMPAT=      F    compatible to vasp.4.4
   GGA_COMPAT  = T    GGA compatible to vasp.4.4-vasp.4.6
   LMAXPAW     = -100 max onsite density
   LMAXMIX     =    2 max onsite mixed and CHGCAR
   VOSKOWN=      0    Vosko Wilk Nusair interpolation
   ROPT   =   -0.00050  -0.00050  -0.00050
 Ionic relaxation
   EDIFFG = -.1E+00   stopping-criterion for IOM
   NSW    =    300    number of steps for IOM
   NBLOCK =      1;   KBLOCK =    300    inner block; outer block 
   IBRION =      3    ionic relax: 0-MD 1-quasi-New 2-CG
   NFREE  =      0    steps in history (QN), initial steepest desc. (CG)
   ISIF   =      2    stress and relaxation
   IWAVPR =     11    prediction:  0-non 1-charg 2-wave 3-comb
   ISYM   =      2    0-nonsym 1-usesym 2-fastsym
   LCORR  =      T    Harris-Foulkes like correction to forces

   POTIM  = 0.0000    time-step for ionic-motion
   TEIN   =    0.0    initial temperature
   TEBEG  =    0.0;   TEEND  =   0.0 temperature during run
   SMASS  =   2.00    Nose mass-parameter (am)
   estimated Nose-frequenzy (Omega)   =  0.12E+10 period in steps =  0.00 mass=   0.137E-25a.u.
   SCALEE = 1.0000    scale energy and forces
   NPACO  =    256;   APACO  = 16.0  distance and # of slots for P.C.
   PSTRESS=    0.0 pullay stress

  Mass of Ions in am
   POMASS =   1.00 12.01 14.00
  Ionic Valenz
   ZVAL   =   1.00  4.00  5.00
  Atomic Wigner-Seitz radii
   RWIGS  =  -1.00 -1.00 -1.00
  virtual crystal weights 
   VCA    =   1.00  1.00  1.00
   NELECT =      16.0000    total number of electrons
   NUPDOWN=      -1.0000    fix difference up-down

 DOS related values:
   EMIN   =  10.00;   EMAX   =-10.00  energy-range for DOS
   EFERMI =   0.00
   ISMEAR =     0;   SIGMA  =   0.20  broadening in eV -4-tet -1-fermi 0-gaus

 Electronic relaxation 2 (details)
   IALGO  =     38    algorithm
   LDIAG  =      T    sub-space diagonalisation (order eigenvalues)
   LSUBROT=      F    optimize rotation matrix (better conditioning)
   TURBO    =      0    0=normal 1=particle mesh
   IRESTART =      0    0=no restart 2=restart with 2 vectors
   NREBOOT  =      0    no. of reboots
   NMIN     =      0    reboot dimension
   EREF     =   0.00    reference energy to select bands
   IMIX   =      4    mixing-type and parameters
     AMIX     =   0.40;   BMIX     =  1.00
     AMIX_MAG =   1.60;   BMIX_MAG =  1.00
     AMIN     =   0.10
     WC   =   100.;   INIMIX=   1;  MIXPRE=   1;  MAXMIX= -45

 Intra band minimization:
   WEIMIN = 0.0010     energy-eigenvalue tresh-hold
   EBREAK =  0.21E-05  absolut break condition
   DEPER  =   0.30     relativ break condition  

   TIME   =   0.40     timestep for ELM

  volume/ion in A,a.u.               =    4500.00     30367.50
  Fermi-wavevector in a.u.,A,eV,Ry     =   0.137508  0.259852  0.257264  0.018908
  Thomas-Fermi vector in A             =   0.790710
 
 Write flags
   LWAVE  =      F    write WAVECAR
   LCHARG =      F    write CHGCAR
   LVTOT  =      F    write LOCPOT, total local potential
   LVHAR  =      F    write LOCPOT, Hartree potential only
   LELF   =      F    write electronic localiz. function (ELF)
   LORBIT =      0    0 simple, 1 ext, 2 COOP (PROOUT)


 Dipole corrections
   LMONO  =      F    monopole corrections only (constant potential shift)
   LDIPOL =      F    correct potential (dipole corrections)
   IDIPOL =      0    1-x, 2-y, 3-z, 4-all directions 
   EPSILON=  1.0000000 bulk dielectric constant

 Exchange correlation treatment:
   GGA     =    PE    GGA type
   LEXCH   =     8    internal setting for exchange type
   VOSKOWN=      0    Vosko Wilk Nusair interpolation
   LHFCALC =     F    Hartree Fock is set to
   LHFONE  =     F    Hartree Fock one center treatment
   AEXX    =    0.0000 exact exchange contribution

 Linear response parameters
   LEPSILON=     F    determine dielectric tensor
   LRPA    =     F    only Hartree local field effects (RPA)
   LNABLA  =     F    use nabla operator in PAW spheres
   LVEL    =     F    velocity operator in full k-point grid
   LINTERFAST=   F  fast interpolation
   KINTER  =     0    interpolate to denser k-point grid
   CSHIFT  =0.1000    complex shift for real part using Kramers Kronig
   OMEGAMAX=  -1.0    maximum frequency
   DEG_THRESHOLD= 0.2000000E-02 threshold for treating states as degnerate
   RTIME   =    0.100 relaxation time in fs

 Orbital magnetization related:
   ORBITALMAG=     F  switch on orbital magnetization
   LCHIMAG   =     F  perturbation theory with respect to B field
   DQ        =  0.001000  dq finite difference perturbation B field



--------------------------------------------------------------------------------------------------------


 quickmin algorithm: (dynamic with friction)
 charge density and potential will be updated during run
 non-spin polarized calculation
 Variant of blocked Davidson
 Davidson routine will perform the subspace rotation
 perform sub-space diagonalisation
    after iterative eigenvector-optimisation
 modified Broyden-mixing scheme, WC =      100.0
 initial mixing is a Kerker type mixing with AMIX =  0.4000 and BMIX =      1.0000
 Hartree-type preconditioning will be used
 using additional bands            4
 real space projection scheme for non local part
 use partial core corrections
 calculate Harris-corrections to forces 
   (improved forces if not selfconsistent)
 use gradient corrections 
 use of overlap-Matrix (Vanderbilt PP)
 Gauss-broadening in eV      SIGMA  =   0.20


--------------------------------------------------------------------------------------------------------


  energy-cutoff  :      400.00
  volume of cell :    27000.00
      direct lattice vectors                 reciprocal lattice vectors
    30.000000000  0.000000000  0.000000000     0.033333333  0.000000000  0.000000000
     0.000000000 30.000000000  0.000000000     0.000000000  0.033333333  0.000000000
     0.000000000  0.000000000 30.000000000     0.000000000  0.000000000  0.033333333

  length of vectors
    30.000000000 30.000000000 30.000000000     0.033333333  0.033333333  0.033333333


 
 k-points in units of 2pi/SCALE and weight: Mo2C                                    
   0.00833333  0.00833333  0.00833333       0.250
  -0.00833333  0.00833333  0.00833333       0.250
   0.00833333 -0.00833333  0.00833333       0.250
  -0.00833333 -0.00833333  0.00833333       0.250
 
 k-points in reciprocal lattice and weights: Mo2C                                    
   0.25000000  0.25000000  0.25000000       0.250
  -0.25000000  0.25000000  0.25000000       0.250
   0.25000000 -0.25000000  0.25000000       0.250
  -0.25000000 -0.25000000  0.25000000       0.250
 
 position of ions in fractional coordinates (direct lattice) 
   0.47491014  0.46766453  0.50746388
   0.47807577  0.51128066  0.46700091
   0.46880799  0.52494292  0.52475286
   0.48521593  0.50239990  0.50188242
   0.55702041  0.48540505  0.48672963
   0.53392127  0.50699642  0.51100100
 
 position of ions in cartesian coordinates  (Angst):
  14.24730418 14.02993603 15.22391629
  14.34227300 15.33841967 14.01002738
  14.06423968 15.74828751 15.74258583
  14.55647794 15.07199694 15.05647247
  16.71061228 14.56215155 14.60188881
  16.01763813 15.20989273 15.33002991
 


--------------------------------------------------------------------------------------------------------


 k-point  1 :   0.2500 0.2500 0.2500  plane waves:  490454
 k-point  2 :  -0.2500 0.2500 0.2500  plane waves:  490454
 k-point  3 :   0.2500-0.2500 0.2500  plane waves:  490454
 k-point  4 :  -0.2500-0.2500 0.2500  plane waves:  490454

 maximum and minimum number of plane-waves per node :    490454   490454

 maximum number of plane-waves:    490454
 maximum index in each direction: 
   IXMAX=   49   IYMAX=   49   IZMAX=   48
   IXMIN=  -49   IYMIN=  -49   IZMIN=  -49

 WARNING: aliasing errors must be expected set NGX to 198 to avoid them
 WARNING: aliasing errors must be expected set NGY to 198 to avoid them
 WARNING: aliasing errors must be expected set NGZ to 196 to avoid them
 aliasing errors are usually negligible using standard VASP settings
 and one can safely disregard these warnings

 serial   3D FFT for wavefunctions
 parallel 3D FFT for charge:
    minimum data exchange during FFTs selected (reduces bandwidth)


 total amount of memory used by VASP on root node  3203889. kBytes
========================================================================

   base      :      30000. kBytes
   nonlr-proj:        693. kBytes
   fftplans  :     924480. kBytes
   grid      :    1872000. kBytes
   one-center:         18. kBytes
   wavefun   :     376698. kBytes
 
     INWAV:  cpu time    0.0010: real time    0.0005
 Broyden mixing: mesh for mixing (old mesh)
   NGX = 97   NGY = 97   NGZ = 97
  (NGX  =300   NGY  =300   NGZ  =300)
  gives a total of 912673 points

 initial charge density was supplied:
 charge density of overlapping atoms calculated
 number of electron      16.0000000 magnetization 
 keeping initial charge density in first step


--------------------------------------------------------------------------------------------------------


 Maximum index for non-local projection operator         2274
 Maximum index for augmentation-charges         1495 (set IRDMAX)


--------------------------------------------------------------------------------------------------------


 First call to EWALD:  gamma=   0.059
 Maximum number of real-space cells 3x 3x 3
 Maximum number of reciprocal cells 3x 3x 3

 FEWALD executed in parallel
    FEWALD:  cpu time    0.0020: real time    0.0020


----------------------------------------- Iteration    1(   1)  ---------------------------------------


    POTLOK:  cpu time   27.4308: real time   27.4912
    SETDIJ:  cpu time    0.0060: real time    0.0066
     EDDAV:  cpu time  118.1330: real time  118.3927
       DOS:  cpu time    0.0000: real time    0.0003
    --------------------------------------------
      LOOP:  cpu time  145.5749: real time  145.8967

 eigenvalue-minimisations  :   160
 total energy-change (2. order) : 0.1105753E+03  (-0.2137927E+03)
 number of electron      16.0000000 magnetization 
 augmentation part       16.0000000 magnetization 

 Free energy of the ion-electron system (eV)
  ---------------------------------------------------
  alpha Z        PSCENC =         0.04144063
  Ewald energy   TEWEN  =       709.18916147
  -Hartree energ DENC   =     -1126.60213594
  -exchange      EXHF   =         0.00000000
  -V(xc)+E(xc)   XCENC  =        51.30659475
  PAW double counting   =       428.37890668     -430.73533574
  entropy T*S    EENTRO =        -0.20476379
  eigenvalues    EBANDS =      -116.96388854
  atomic energy  EATOM  =       596.16534815
  Solvation  Ediel_sol  =         0.00000000
  ---------------------------------------------------
  free energy    TOTEN  =       110.57532768 eV

  energy without entropy =      110.78009146  energy(sigma->0) =      110.67770957


--------------------------------------------------------------------------------------------------------




----------------------------------------- Iteration    1(   2)  ---------------------------------------


     EDDAV:  cpu time  142.6603: real time  142.9737
       DOS:  cpu time    0.0000: real time    0.0001
    --------------------------------------------
      LOOP:  cpu time  142.6613: real time  142.9774

 eigenvalue-minimisations  :   192
 total energy-change (2. order) :-0.1147277E+03  (-0.1117341E+03)
 number of electron      16.0000000 magnetization 
 augmentation part       16.0000000 magnetization 

 Free energy of the ion-electron system (eV)
  ---------------------------------------------------
  alpha Z        PSCENC =         0.04144063
  Ewald energy   TEWEN  =       709.18916147
  -Hartree energ DENC   =     -1126.60213594
  -exchange      EXHF   =         0.00000000
  -V(xc)+E(xc)   XCENC  =        51.30659475
  PAW double counting   =       428.37890668     -430.73533574
  entropy T*S    EENTRO =         0.00000000
  eigenvalues    EBANDS =      -231.89630283
  atomic energy  EATOM  =       596.16534815
  Solvation  Ediel_sol  =         0.00000000
  ---------------------------------------------------
  free energy    TOTEN  =        -4.15232283 eV

  energy without entropy =       -4.15232283  energy(sigma->0) =       -4.15232283


--------------------------------------------------------------------------------------------------------




----------------------------------------- Iteration    1(   3)  ---------------------------------------


     EDDAV:  cpu time  111.5450: real time  111.7934
       DOS:  cpu time    0.0000: real time    0.0001
    --------------------------------------------
      LOOP:  cpu time  111.5470: real time  111.7974

 eigenvalue-minimisations  :   136
 total energy-change (2. order) :-0.3063391E+02  (-0.3042448E+02)
 number of electron      16.0000000 magnetization 
 augmentation part       16.0000000 magnetization 

 Free energy of the ion-electron system (eV)
  ---------------------------------------------------
  alpha Z        PSCENC =         0.04144063
  Ewald energy   TEWEN  =       709.18916147
  -Hartree energ DENC   =     -1126.60213594
  -exchange      EXHF   =         0.00000000
  -V(xc)+E(xc)   XCENC  =        51.30659475
  PAW double counting   =       428.37890668     -430.73533574
  entropy T*S    EENTRO =         0.00000000
  eigenvalues    EBANDS =      -262.53021518
  atomic energy  EATOM  =       596.16534815
  Solvation  Ediel_sol  =         0.00000000
  ---------------------------------------------------
  free energy    TOTEN  =       -34.78623518 eV

  energy without entropy =      -34.78623518  energy(sigma->0) =      -34.78623518


--------------------------------------------------------------------------------------------------------




----------------------------------------- Iteration    1(   4)  ---------------------------------------


     EDDAV:  cpu time   99.0219: real time   99.2415
       DOS:  cpu time    0.0000: real time    0.0002
    --------------------------------------------
      LOOP:  cpu time   99.0229: real time   99.2451

 eigenvalue-minimisations  :   116
 total energy-change (2. order) :-0.3185894E+01  (-0.3149744E+01)
 number of electron      16.0000000 magnetization 
 augmentation part       16.0000000 magnetization 

 Free energy of the ion-electron system (eV)
  ---------------------------------------------------
  alpha Z        PSCENC =         0.04144063
  Ewald energy   TEWEN  =       709.18916147
  -Hartree energ DENC   =     -1126.60213594
  -exchange      EXHF   =         0.00000000
  -V(xc)+E(xc)   XCENC  =        51.30659475
  PAW double counting   =       428.37890668     -430.73533574
  entropy T*S    EENTRO =         0.00000000
  eigenvalues    EBANDS =      -265.71610948
  atomic energy  EATOM  =       596.16534815
  Solvation  Ediel_sol  =         0.00000000
  ---------------------------------------------------
  free energy    TOTEN  =       -37.97212948 eV

  energy without entropy =      -37.97212948  energy(sigma->0) =      -37.97212948


--------------------------------------------------------------------------------------------------------




----------------------------------------- Iteration    1(   5)  ---------------------------------------


     EDDAV:  cpu time  102.1195: real time  102.3420
       DOS:  cpu time    0.0000: real time    0.0001
    CHARGE:  cpu time    7.7658: real time    7.7827
    MIXING:  cpu time    0.6439: real time    0.6456
    --------------------------------------------
      LOOP:  cpu time  110.5302: real time  110.7744

 eigenvalue-minimisations  :   120
 total energy-change (2. order) :-0.9239348E-01  (-0.9146205E-01)
 number of electron      15.9999985 magnetization 
 augmentation part        0.4887782 magnetization 

 Broyden mixing:
  rms(total) = 0.10714E+01    rms(broyden)= 0.10704E+01
  rms(prec ) = 0.11070E+01
  weight for this iteration     100.00

 Free energy of the ion-electron system (eV)
  ---------------------------------------------------
  alpha Z        PSCENC =         0.04144063
  Ewald energy   TEWEN  =       709.18916147
  -Hartree energ DENC   =     -1126.60213594
  -exchange      EXHF   =         0.00000000
  -V(xc)+E(xc)   XCENC  =        51.30659475
  PAW double counting   =       428.37890668     -430.73533574
  entropy T*S    EENTRO =         0.00000000
  eigenvalues    EBANDS =      -265.80850296
  atomic energy  EATOM  =       596.16534815
  Solvation  Ediel_sol  =         0.00000000
  ---------------------------------------------------
  free energy    TOTEN  =       -38.06452296 eV

  energy without entropy =      -38.06452296  energy(sigma->0) =      -38.06452296


--------------------------------------------------------------------------------------------------------




----------------------------------------- Iteration    1(   6)  ---------------------------------------


    POTLOK:  cpu time   27.0999: real time   27.1601
    SETDIJ:  cpu time    0.0070: real time    0.0065
     EDDAV:  cpu time  108.3745: real time  108.6131
       DOS:  cpu time    0.0000: real time    0.0002
    CHARGE:  cpu time    9.3376: real time    9.3598
    MIXING:  cpu time    0.8859: real time    0.8870
    --------------------------------------------
      LOOP:  cpu time  145.7078: real time  146.0313

 eigenvalue-minimisations  :   128
 total energy-change (2. order) : 0.2594585E+01  (-0.4573144E+00)
 number of electron      15.9999984 magnetization 
 augmentation part        0.4400026 magnetization 

 Broyden mixing:
  rms(total) = 0.57322E+00    rms(broyden)= 0.57311E+00
  rms(prec ) = 0.58819E+00
  weight for this iteration     100.00

 eigenvalues of (default mixing * dielectric matrix)
  average eigenvalue GAMMA=   1.4664
  1.4664

 Free energy of the ion-electron system (eV)
  ---------------------------------------------------
  alpha Z        PSCENC =         0.04144063
  Ewald energy   TEWEN  =       709.18916147
  -Hartree energ DENC   =     -1155.34535466
  -exchange      EXHF   =         0.00000000
  -V(xc)+E(xc)   XCENC  =        52.89718163
  PAW double counting   =       700.92138833     -703.58302060
  entropy T*S    EENTRO =         0.00000000
  eigenvalues    EBANDS =      -235.75608323
  atomic energy  EATOM  =       596.16534815
  Solvation  Ediel_sol  =         0.00000000
  ---------------------------------------------------
  free energy    TOTEN  =       -35.46993827 eV

  energy without entropy =      -35.46993827  energy(sigma->0) =      -35.46993827


--------------------------------------------------------------------------------------------------------




----------------------------------------- Iteration    1(   7)  ---------------------------------------


    POTLOK:  cpu time   27.2809: real time   27.3396
    SETDIJ:  cpu time    0.0060: real time    0.0063
     EDDAV:  cpu time  102.1895: real time  102.4136
       DOS:  cpu time    0.0000: real time    0.0002
    CHARGE:  cpu time    7.9258: real time    7.9436
    MIXING:  cpu time    0.8399: real time    0.8417
    --------------------------------------------
      LOOP:  cpu time  138.2420: real time  138.5492

 eigenvalue-minimisations  :   120
 total energy-change (2. order) : 0.6233002E+00  (-0.1416151E+00)
 number of electron      15.9999984 magnetization 
 augmentation part        0.4335754 magnetization 

 Broyden mixing:
  rms(total) = 0.25225E+00    rms(broyden)= 0.25220E+00
  rms(prec ) = 0.25817E+00
  weight for this iteration     100.00

 eigenvalues of (default mixing * dielectric matrix)
  average eigenvalue GAMMA=   1.5023
  0.9152  2.0894

 Free energy of the ion-electron system (eV)
  ---------------------------------------------------
  alpha Z        PSCENC =         0.04144063
  Ewald energy   TEWEN  =       709.18916147
  -Hartree energ DENC   =     -1172.09067517
  -exchange      EXHF   =         0.00000000
  -V(xc)+E(xc)   XCENC  =        53.97308020
  PAW double counting   =      1010.26449552    -1013.07692022
  entropy T*S    EENTRO =         0.00000000
  eigenvalues    EBANDS =      -219.31256865
  atomic energy  EATOM  =       596.16534815
  Solvation  Ediel_sol  =         0.00000000
  ---------------------------------------------------
  free energy    TOTEN  =       -34.84663807 eV

  energy without entropy =      -34.84663807  energy(sigma->0) =      -34.84663807


--------------------------------------------------------------------------------------------------------




----------------------------------------- Iteration    1(   8)  ---------------------------------------


    POTLOK:  cpu time   26.0130: real time   26.0808
    SETDIJ:  cpu time    0.0070: real time    0.0067
     EDDAV:  cpu time  102.9433: real time  103.2541
       DOS:  cpu time    0.0000: real time    0.0002
    CHARGE:  cpu time    8.3527: real time    8.3713
    MIXING:  cpu time    1.1658: real time    1.1692
    --------------------------------------------
      LOOP:  cpu time  138.4829: real time  138.8866

 eigenvalue-minimisations  :   120
 total energy-change (2. order) : 0.9491261E-01  (-0.2507636E-01)
 number of electron      15.9999984 magnetization 
 augmentation part        0.4230233 magnetization 

 Broyden mixing:
  rms(total) = 0.96904E-01    rms(broyden)= 0.96875E-01
  rms(prec ) = 0.10017E+00
  weight for this iteration     100.00

 eigenvalues of (default mixing * dielectric matrix)
  average eigenvalue GAMMA=   1.5816
  2.3398  1.6052  0.7999

 Free energy of the ion-electron system (eV)
  ---------------------------------------------------
  alpha Z        PSCENC =         0.04144063
  Ewald energy   TEWEN  =       709.18916147
  -Hartree energ DENC   =     -1180.68823580
  -exchange      EXHF   =         0.00000000
  -V(xc)+E(xc)   XCENC  =        54.53750122
  PAW double counting   =      1202.75550340    -1205.61382122
  entropy T*S    EENTRO =         0.00000000
  eigenvalues    EBANDS =      -211.13862331
  atomic energy  EATOM  =       596.16534815
  Solvation  Ediel_sol  =         0.00000000
  ---------------------------------------------------
  free energy    TOTEN  =       -34.75172546 eV

  energy without entropy =      -34.75172546  energy(sigma->0) =      -34.75172546


--------------------------------------------------------------------------------------------------------




----------------------------------------- Iteration    1(   9)  ---------------------------------------


    POTLOK:  cpu time   29.3425: real time   29.4100
    SETDIJ:  cpu time    0.0070: real time    0.0067
     EDDAV:  cpu time   89.5844: real time   89.7817
       DOS:  cpu time    0.0000: real time    0.0002
    CHARGE:  cpu time    8.7297: real time    8.7488
    MIXING:  cpu time    1.1858: real time    1.1890
    --------------------------------------------
      LOOP:  cpu time  128.8514: real time  129.1408

 eigenvalue-minimisations  :   104
 total energy-change (2. order) : 0.1675934E-01  (-0.3392153E-02)
 number of electron      15.9999984 magnetization 
 augmentation part        0.4230580 magnetization 

 Broyden mixing:
  rms(total) = 0.24704E-01    rms(broyden)= 0.24687E-01
  rms(prec ) = 0.28822E-01
  weight for this iteration     100.00

 eigenvalues of (default mixing * dielectric matrix)
  average eigenvalue GAMMA=   1.4757
  2.2878  1.6706  0.8535  1.0910

 Free energy of the ion-electron system (eV)
  ---------------------------------------------------
  alpha Z        PSCENC =         0.04144063
  Ewald energy   TEWEN  =       709.18916147
  -Hartree energ DENC   =     -1181.82030161
  -exchange      EXHF   =         0.00000000
  -V(xc)+E(xc)   XCENC  =        54.61696030
  PAW double counting   =      1270.11305346    -1272.94172842
  entropy T*S    EENTRO =         0.00000000
  eigenvalues    EBANDS =      -210.09890010
  atomic energy  EATOM  =       596.16534815
  Solvation  Ediel_sol  =         0.00000000
  ---------------------------------------------------
  free energy    TOTEN  =       -34.73496612 eV

  energy without entropy =      -34.73496612  energy(sigma->0) =      -34.73496612


--------------------------------------------------------------------------------------------------------




----------------------------------------- Iteration    1(  10)  ---------------------------------------


    POTLOK:  cpu time   27.2509: real time   27.3132
    SETDIJ:  cpu time    0.0070: real time    0.0065
     EDDAV:  cpu time  107.6686: real time  107.9033
       DOS:  cpu time    0.0000: real time    0.0002
    CHARGE:  cpu time    7.9138: real time    7.9326
    MIXING:  cpu time    1.1618: real time    1.1642
    --------------------------------------------
      LOOP:  cpu time  144.0061: real time  144.3246

 eigenvalue-minimisations  :   128
 total energy-change (2. order) : 0.4308033E-03  (-0.4457963E-03)
 number of electron      15.9999984 magnetization 
 augmentation part        0.4242247 magnetization 

 Broyden mixing:
  rms(total) = 0.12400E-01    rms(broyden)= 0.12395E-01
  rms(prec ) = 0.16953E-01
  weight for this iteration     100.00

 eigenvalues of (default mixing * dielectric matrix)
  average eigenvalue GAMMA=   1.5043
  2.1707  2.1707  0.8772  1.0149  1.2877

 Free energy of the ion-electron system (eV)
  ---------------------------------------------------
  alpha Z        PSCENC =         0.04144063
  Ewald energy   TEWEN  =       709.18916147
  -Hartree energ DENC   =     -1182.58720563
  -exchange      EXHF   =         0.00000000
  -V(xc)+E(xc)   XCENC  =        54.63468346
  PAW double counting   =      1269.02658381    -1271.85208308
  entropy T*S    EENTRO =         0.00000000
  eigenvalues    EBANDS =      -209.35246413
  atomic energy  EATOM  =       596.16534815
  Solvation  Ediel_sol  =         0.00000000
  ---------------------------------------------------
  free energy    TOTEN  =       -34.73453532 eV

  energy without entropy =      -34.73453532  energy(sigma->0) =      -34.73453532


--------------------------------------------------------------------------------------------------------




----------------------------------------- Iteration    1(  11)  ---------------------------------------


    POTLOK:  cpu time   27.2829: real time   27.3435
    SETDIJ:  cpu time    0.0070: real time    0.0065
     EDDAV:  cpu time   85.0351: real time   85.2247
       DOS:  cpu time    0.0000: real time    0.0002
    CHARGE:  cpu time    7.7668: real time    7.7838
    MIXING:  cpu time    1.1868: real time    1.1902
    --------------------------------------------
      LOOP:  cpu time  121.2806: real time  121.5533

 eigenvalue-minimisations  :    96
 total energy-change (2. order) :-0.1646936E-02  (-0.1157189E-03)
 number of electron      15.9999984 magnetization 
 augmentation part        0.4238284 magnetization 

 Broyden mixing:
  rms(total) = 0.69967E-02    rms(broyden)= 0.69958E-02
  rms(prec ) = 0.11096E-01
  weight for this iteration     100.00

 eigenvalues of (default mixing * dielectric matrix)
  average eigenvalue GAMMA=   1.5817
  2.5069  2.5069  0.8802  0.9814  1.3073  1.3073

 Free energy of the ion-electron system (eV)
  ---------------------------------------------------
  alpha Z        PSCENC =         0.04144063
  Ewald energy   TEWEN  =       709.18916147
  -Hartree energ DENC   =     -1183.60741641
  -exchange      EXHF   =         0.00000000
  -V(xc)+E(xc)   XCENC  =        54.66105006
  PAW double counting   =      1267.06799935    -1269.89187846
  entropy T*S    EENTRO =         0.00000000
  eigenvalues    EBANDS =      -208.36188704
  atomic energy  EATOM  =       596.16534815
  Solvation  Ediel_sol  =         0.00000000
  ---------------------------------------------------
  free energy    TOTEN  =       -34.73618225 eV

  energy without entropy =      -34.73618225  energy(sigma->0) =      -34.73618225


--------------------------------------------------------------------------------------------------------




----------------------------------------- Iteration    1(  12)  ---------------------------------------


    POTLOK:  cpu time   27.5028: real time   27.5644
    SETDIJ:  cpu time    0.0060: real time    0.0065
     EDDAV:  cpu time   98.0761: real time   98.2947
       DOS:  cpu time    0.0000: real time    0.0002
    CHARGE:  cpu time    8.7667: real time    8.7863
    MIXING:  cpu time    1.4238: real time    1.4275
    --------------------------------------------
      LOOP:  cpu time  135.7774: real time  136.0837

 eigenvalue-minimisations  :   112
 total energy-change (2. order) :-0.3664988E-02  (-0.1534675E-03)
 number of electron      15.9999984 magnetization 
 augmentation part        0.4236218 magnetization 

 Broyden mixing:
  rms(total) = 0.40289E-02    rms(broyden)= 0.40258E-02
  rms(prec ) = 0.67749E-02
  weight for this iteration     100.00

 eigenvalues of (default mixing * dielectric matrix)
  average eigenvalue GAMMA=   1.6731
  3.4015  2.4133  1.4673  1.4673  0.8924  0.9631  1.1066

 Free energy of the ion-electron system (eV)
  ---------------------------------------------------
  alpha Z        PSCENC =         0.04144063
  Ewald energy   TEWEN  =       709.18916147
  -Hartree energ DENC   =     -1184.67442154
  -exchange      EXHF   =         0.00000000
  -V(xc)+E(xc)   XCENC  =        54.68593238
  PAW double counting   =      1264.87642084    -1267.69855455
  entropy T*S    EENTRO =         0.00000000
  eigenvalues    EBANDS =      -207.32517462
  atomic energy  EATOM  =       596.16534815
  Solvation  Ediel_sol  =         0.00000000
  ---------------------------------------------------
  free energy    TOTEN  =       -34.73984724 eV

  energy without entropy =      -34.73984724  energy(sigma->0) =      -34.73984724


--------------------------------------------------------------------------------------------------------




----------------------------------------- Iteration    1(  13)  ---------------------------------------


    POTLOK:  cpu time   27.0679: real time   27.1284
    SETDIJ:  cpu time    0.0070: real time    0.0068
     EDDAV:  cpu time  117.6971: real time  117.9586
       DOS:  cpu time    0.0000: real time    0.0002
    CHARGE:  cpu time    8.5027: real time    8.5206
    MIXING:  cpu time    1.4888: real time    1.4923
    --------------------------------------------
      LOOP:  cpu time  154.7655: real time  155.1111

 eigenvalue-minimisations  :   144
 total energy-change (2. order) :-0.4251440E-02  (-0.1117602E-03)
 number of electron      15.9999984 magnetization 
 augmentation part        0.4234341 magnetization 

 Broyden mixing:
  rms(total) = 0.27064E-02    rms(broyden)= 0.27045E-02
  rms(prec ) = 0.41749E-02
  weight for this iteration     100.00

 eigenvalues of (default mixing * dielectric matrix)
  average eigenvalue GAMMA=   1.8696
  4.6825  2.5537  1.9672  1.6651  1.2470  0.8699  0.9857  0.9857

 Free energy of the ion-electron system (eV)
  ---------------------------------------------------
  alpha Z        PSCENC =         0.04144063
  Ewald energy   TEWEN  =       709.18916147
  -Hartree energ DENC   =     -1185.44261102
  -exchange      EXHF   =         0.00000000
  -V(xc)+E(xc)   XCENC  =        54.69972101
  PAW double counting   =      1263.95509384    -1266.77654757
  entropy T*S    EENTRO =         0.00000000
  eigenvalues    EBANDS =      -206.57570520
  atomic energy  EATOM  =       596.16534815
  Solvation  Ediel_sol  =         0.00000000
  ---------------------------------------------------
  free energy    TOTEN  =       -34.74409868 eV

  energy without entropy =      -34.74409868  energy(sigma->0) =      -34.74409868


--------------------------------------------------------------------------------------------------------




----------------------------------------- Iteration    1(  14)  ---------------------------------------


    POTLOK:  cpu time   28.4497: real time   28.5124
    SETDIJ:  cpu time    0.0070: real time    0.0066
     EDDAV:  cpu time  106.3098: real time  106.5379
       DOS:  cpu time    0.0000: real time    0.0002
    CHARGE:  cpu time    8.2507: real time    8.2691
    MIXING:  cpu time    1.4738: real time    1.4762
    --------------------------------------------
      LOOP:  cpu time  144.4920: real time  144.8067

 eigenvalue-minimisations  :   128
 total energy-change (2. order) :-0.4134601E-02  (-0.5690363E-04)
 number of electron      15.9999984 magnetization 
 augmentation part        0.4233857 magnetization 

 Broyden mixing:
  rms(total) = 0.15413E-02    rms(broyden)= 0.15411E-02
  rms(prec ) = 0.22787E-02
  weight for this iteration     100.00

 eigenvalues of (default mixing * dielectric matrix)
  average eigenvalue GAMMA=   1.8667
  5.1367  2.5709  2.4002  1.4833  1.2461  1.2461  0.8531  0.9321  0.9321

 Free energy of the ion-electron system (eV)
  ---------------------------------------------------
  alpha Z        PSCENC =         0.04144063
  Ewald energy   TEWEN  =       709.18916147
  -Hartree energ DENC   =     -1185.79228361
  -exchange      EXHF   =         0.00000000
  -V(xc)+E(xc)   XCENC  =        54.69765325
  PAW double counting   =      1262.53240537    -1265.35342202
  entropy T*S    EENTRO =         0.00000000
  eigenvalues    EBANDS =      -206.22853652
  atomic energy  EATOM  =       596.16534815
  Solvation  Ediel_sol  =         0.00000000
  ---------------------------------------------------
  free energy    TOTEN  =       -34.74823328 eV

  energy without entropy =      -34.74823328  energy(sigma->0) =      -34.74823328


--------------------------------------------------------------------------------------------------------




----------------------------------------- Iteration    1(  15)  ---------------------------------------


    POTLOK:  cpu time   26.8849: real time   26.9434
    SETDIJ:  cpu time    0.0070: real time    0.0064
     EDDAV:  cpu time   99.1539: real time   99.3613
       DOS:  cpu time    0.0010: real time    0.0002
    CHARGE:  cpu time    7.8268: real time    7.8446
    MIXING:  cpu time    1.7847: real time    1.7874
    --------------------------------------------
      LOOP:  cpu time  135.6594: real time  135.9471

 eigenvalue-minimisations  :   120
 total energy-change (2. order) :-0.1716607E-02  (-0.1524813E-04)
 number of electron      15.9999984 magnetization 
 augmentation part        0.4233550 magnetization 

 Broyden mixing:
  rms(total) = 0.99877E-03    rms(broyden)= 0.99852E-03
  rms(prec ) = 0.15582E-02
  weight for this iteration     100.00

 eigenvalues of (default mixing * dielectric matrix)
  average eigenvalue GAMMA=   2.0479
  6.4321  3.2028  2.3355  2.0528  1.3959  1.3959  0.9543  0.9543  0.9057  0.8495

 Free energy of the ion-electron system (eV)
  ---------------------------------------------------
  alpha Z        PSCENC =         0.04144063
  Ewald energy   TEWEN  =       709.18916147
  -Hartree energ DENC   =     -1185.87539000
  -exchange      EXHF   =         0.00000000
  -V(xc)+E(xc)   XCENC  =        54.69713104
  PAW double counting   =      1262.86113523    -1265.68249318
  entropy T*S    EENTRO =         0.00000000
  eigenvalues    EBANDS =      -206.14628323
  atomic energy  EATOM  =       596.16534815
  Solvation  Ediel_sol  =         0.00000000
  ---------------------------------------------------
  free energy    TOTEN  =       -34.74994989 eV

  energy without entropy =      -34.74994989  energy(sigma->0) =      -34.74994989


--------------------------------------------------------------------------------------------------------




----------------------------------------- Iteration    1(  16)  ---------------------------------------


    POTLOK:  cpu time   25.4331: real time   25.4862
    SETDIJ:  cpu time    0.0060: real time    0.0065
     EDDAV:  cpu time   96.7793: real time   96.9782
       DOS:  cpu time    0.0000: real time    0.0002
    CHARGE:  cpu time    7.3709: real time    7.3867
    MIXING:  cpu time    1.7647: real time    1.7679
    --------------------------------------------
      LOOP:  cpu time  131.3560: real time  131.6291

 eigenvalue-minimisations  :   124
 total energy-change (2. order) :-0.2105799E-02  (-0.2212839E-04)
 number of electron      15.9999984 magnetization 
 augmentation part        0.4233531 magnetization 

 Broyden mixing:
  rms(total) = 0.57416E-03    rms(broyden)= 0.57392E-03
  rms(prec ) = 0.79179E-03
  weight for this iteration     100.00

 eigenvalues of (default mixing * dielectric matrix)
  average eigenvalue GAMMA=   2.0927
  7.1325  3.5352  2.3849  2.3849  1.5488  1.2276  1.2276  0.9424  0.9424  0.8633
  0.8306

 Free energy of the ion-electron system (eV)
  ---------------------------------------------------
  alpha Z        PSCENC =         0.04144063
  Ewald energy   TEWEN  =       709.18916147
  -Hartree energ DENC   =     -1185.92972456
  -exchange      EXHF   =         0.00000000
  -V(xc)+E(xc)   XCENC  =        54.69307057
  PAW double counting   =      1262.67275220    -1265.49404634
  entropy T*S    EENTRO =         0.00000000
  eigenvalues    EBANDS =      -206.09005780
  atomic energy  EATOM  =       596.16534815
  Solvation  Ediel_sol  =         0.00000000
  ---------------------------------------------------
  free energy    TOTEN  =       -34.75205569 eV

  energy without entropy =      -34.75205569  energy(sigma->0) =      -34.75205569


--------------------------------------------------------------------------------------------------------




----------------------------------------- Iteration    1(  17)  ---------------------------------------


    POTLOK:  cpu time   25.3471: real time   25.3995
    SETDIJ:  cpu time    0.0060: real time    0.0065
     EDDAV:  cpu time   81.3566: real time   81.5249
       DOS:  cpu time    0.0000: real time    0.0002
    CHARGE:  cpu time    7.5878: real time    7.6042
    MIXING:  cpu time    1.8167: real time    1.8207
    --------------------------------------------
      LOOP:  cpu time  116.1173: real time  116.3610

 eigenvalue-minimisations  :    96
 total energy-change (2. order) :-0.6085211E-03  (-0.2612645E-05)
 number of electron      15.9999984 magnetization 
 augmentation part        0.4233500 magnetization 

 Broyden mixing:
  rms(total) = 0.32450E-03    rms(broyden)= 0.32443E-03
  rms(prec ) = 0.46937E-03
  weight for this iteration     100.00

 eigenvalues of (default mixing * dielectric matrix)
  average eigenvalue GAMMA=   2.1951
  7.7914  4.2963  2.5643  2.4005  1.6502  1.6502  1.2276  1.1858  0.9381  0.9381
  0.8247  0.8739

 Free energy of the ion-electron system (eV)
  ---------------------------------------------------
  alpha Z        PSCENC =         0.04144063
  Ewald energy   TEWEN  =       709.18916147
  -Hartree energ DENC   =     -1185.93399397
  -exchange      EXHF   =         0.00000000
  -V(xc)+E(xc)   XCENC  =        54.69187169
  PAW double counting   =      1262.77568359    -1265.59698041
  entropy T*S    EENTRO =         0.00000000
  eigenvalues    EBANDS =      -206.08519537
  atomic energy  EATOM  =       596.16534815
  Solvation  Ediel_sol  =         0.00000000
  ---------------------------------------------------
  free energy    TOTEN  =       -34.75266421 eV

  energy without entropy =      -34.75266421  energy(sigma->0) =      -34.75266421


--------------------------------------------------------------------------------------------------------




----------------------------------------- Iteration    1(  18)  ---------------------------------------


    POTLOK:  cpu time   25.1862: real time   25.2380
    SETDIJ:  cpu time    0.0060: real time    0.0065
     EDDAV:  cpu time   78.4731: real time   78.6347
       DOS:  cpu time    0.0000: real time    0.0002
    CHARGE:  cpu time    7.3369: real time    7.3528
    MIXING:  cpu time    2.0427: real time    2.0457
    --------------------------------------------
      LOOP:  cpu time  113.0458: real time  113.2824

 eigenvalue-minimisations  :    92
 total energy-change (2. order) :-0.4304932E-03  (-0.3383088E-05)
 number of electron      15.9999984 magnetization 
 augmentation part        0.4233546 magnetization 

 Broyden mixing:
  rms(total) = 0.28372E-03    rms(broyden)= 0.28368E-03
  rms(prec ) = 0.33845E-03
  weight for this iteration     100.00

 eigenvalues of (default mixing * dielectric matrix)
  average eigenvalue GAMMA=   2.2530
  8.2625  4.8759  2.7686  2.5015  2.2035  1.5677  1.2368  1.2368  1.0599  0.9458
  0.9458  0.8606  0.8238

 Free energy of the ion-electron system (eV)
  ---------------------------------------------------
  alpha Z        PSCENC =         0.04144063
  Ewald energy   TEWEN  =       709.18916147
  -Hartree energ DENC   =     -1185.92249049
  -exchange      EXHF   =         0.00000000
  -V(xc)+E(xc)   XCENC  =        54.69056041
  PAW double counting   =      1262.88547049    -1265.70668487
  entropy T*S    EENTRO =         0.00000000
  eigenvalues    EBANDS =      -206.09590048
  atomic energy  EATOM  =       596.16534815
  Solvation  Ediel_sol  =         0.00000000
  ---------------------------------------------------
  free energy    TOTEN  =       -34.75309470 eV

  energy without entropy =      -34.75309470  energy(sigma->0) =      -34.75309470


--------------------------------------------------------------------------------------------------------




----------------------------------------- Iteration    1(  19)  ---------------------------------------


    POTLOK:  cpu time   25.3801: real time   25.4325
    SETDIJ:  cpu time    0.0060: real time    0.0064
     EDDAV:  cpu time   79.5789: real time   79.7431
       DOS:  cpu time    0.0000: real time    0.0002
    CHARGE:  cpu time    7.6578: real time    7.6741
    MIXING:  cpu time    2.2637: real time    2.2688
    --------------------------------------------
      LOOP:  cpu time  114.8885: real time  115.1288

 eigenvalue-minimisations  :    96
 total energy-change (2. order) :-0.1636458E-03  (-0.1135565E-05)
 number of electron      15.9999984 magnetization 
 augmentation part        0.4233520 magnetization 

 Broyden mixing:
  rms(total) = 0.12083E-03    rms(broyden)= 0.12079E-03
  rms(prec ) = 0.15637E-03
  weight for this iteration     100.00

 eigenvalues of (default mixing * dielectric matrix)
  average eigenvalue GAMMA=   2.2499
  8.5410  4.9864  3.1563  2.5530  2.2100  1.3889  1.3889  1.3549  1.3549  1.0145
  0.9396  0.9396  0.8523  0.8183

 Free energy of the ion-electron system (eV)
  ---------------------------------------------------
  alpha Z        PSCENC =         0.04144063
  Ewald energy   TEWEN  =       709.18916147
  -Hartree energ DENC   =     -1185.92038087
  -exchange      EXHF   =         0.00000000
  -V(xc)+E(xc)   XCENC  =        54.69030152
  PAW double counting   =      1262.85185134    -1265.67305618
  entropy T*S    EENTRO =         0.00000000
  eigenvalues    EBANDS =      -206.09792440
  atomic energy  EATOM  =       596.16534815
  Solvation  Ediel_sol  =         0.00000000
  ---------------------------------------------------
  free energy    TOTEN  =       -34.75325835 eV

  energy without entropy =      -34.75325835  energy(sigma->0) =      -34.75325835


--------------------------------------------------------------------------------------------------------




----------------------------------------- Iteration    1(  20)  ---------------------------------------


    POTLOK:  cpu time   25.0572: real time   25.1090
    SETDIJ:  cpu time    0.0070: real time    0.0063
     EDDAV:  cpu time   70.6083: real time   70.7521
       DOS:  cpu time    0.0010: real time    0.0002
    --------------------------------------------
      LOOP:  cpu time   95.6745: real time   95.8716

 eigenvalue-minimisations  :    88
 total energy-change (2. order) :-0.7470316E-04  (-0.4546662E-06)
 number of electron      15.9999984 magnetization 
 augmentation part        0.4233520 magnetization 

 Free energy of the ion-electron system (eV)
  ---------------------------------------------------
  alpha Z        PSCENC =         0.04144063
  Ewald energy   TEWEN  =       709.18916147
  -Hartree energ DENC   =     -1185.92698109
  -exchange      EXHF   =         0.00000000
  -V(xc)+E(xc)   XCENC  =        54.69042163
  PAW double counting   =      1262.78227582    -1265.60351788
  entropy T*S    EENTRO =         0.00000000
  eigenvalues    EBANDS =      -206.09148178
  atomic energy  EATOM  =       596.16534815
  Solvation  Ediel_sol  =         0.00000000
  ---------------------------------------------------
  free energy    TOTEN  =       -34.75333305 eV

  energy without entropy =      -34.75333305  energy(sigma->0) =      -34.75333305


--------------------------------------------------------------------------------------------------------




 average (electrostatic) potential at core
  the test charge radii are     0.5201  0.6991  0.7089
  (the norm of the test charge is              1.0000)
       1 -42.8137       2 -42.7980       3 -42.7922       4 -60.2996       5 -59.9553
       6 -74.5079
 
 
 
 E-fermi :  -6.3560     XC(G=0):  -0.0924     alpha+bet : -0.0137


 k-point     1 :       0.2500    0.2500    0.2500
  band No.  band energies     occupation 
      1     -24.1983      2.00000
      2     -18.1967      2.00000
      3     -13.1227      2.00000
      4     -11.5067      2.00000
      5     -11.4480      2.00000
      6      -9.0032      2.00000
      7      -8.2565      2.00000
      8      -7.3137      2.00000
      9      -2.6345      0.00000
     10      -1.0986      0.00000
     11      -0.3971      0.00000
     12      -0.0073      0.00000

 k-point     2 :      -0.2500    0.2500    0.2500
  band No.  band energies     occupation 
      1     -24.1983      2.00000
      2     -18.1967      2.00000
      3     -13.1227      2.00000
      4     -11.5067      2.00000
      5     -11.4480      2.00000
      6      -9.0032      2.00000
      7      -8.2565      2.00000
      8      -7.3137      2.00000
      9      -2.6344      0.00000
     10      -1.0986      0.00000
     11      -0.3972      0.00000
     12      -0.0044      0.00000

 k-point     3 :       0.2500   -0.2500    0.2500
  band No.  band energies     occupation 
      1     -24.1983      2.00000
      2     -18.1967      2.00000
      3     -13.1227      2.00000
      4     -11.5067      2.00000
      5     -11.4480      2.00000
      6      -9.0032      2.00000
      7      -8.2566      2.00000
      8      -7.3137      2.00000
      9      -2.6344      0.00000
     10      -1.0986      0.00000
     11      -0.3972      0.00000
     12      -0.0019      0.00000

 k-point     4 :      -0.2500   -0.2500    0.2500
  band No.  band energies     occupation 
      1     -24.1983      2.00000
      2     -18.1967      2.00000
      3     -13.1227      2.00000
      4     -11.5067      2.00000
      5     -11.4480      2.00000
      6      -9.0032      2.00000
      7      -8.2566      2.00000
      8      -7.3137      2.00000
      9      -2.6344      0.00000
     10      -1.0986      0.00000
     11      -0.3972      0.00000
     12       0.0130      0.00000


--------------------------------------------------------------------------------------------------------


 soft charge-density along one line, spin component           1
         0         1         2         3         4         5         6         7         8         9
 total charge-density along one line
 
 pseudopotential strength for first ion, spin component:           1
 -2.359  -4.068  -0.002   0.000  -0.001
 -4.068  -6.929  -0.005   0.001  -0.002
 -0.002  -0.005  -0.330  -0.001   0.001
  0.000   0.001  -0.001  -0.335   0.000
 -0.001  -0.002   0.001   0.000  -0.334
 total augmentation occupancy for first ion, spin component:           1
  3.543  -0.639   0.422  -0.067   0.128
 -0.639   0.132  -0.078   0.013  -0.024
  0.422  -0.078   0.051  -0.007   0.013
 -0.067   0.013  -0.007   0.010  -0.003
  0.128  -0.024   0.013  -0.003   0.010


------------------------ aborting loop because EDIFF is reached ----------------------------------------


    CHARGE:  cpu time    7.0209: real time    7.0346
    FORLOC:  cpu time    2.4766: real time    2.4808
    FORNL :  cpu time   19.7830: real time   19.8247
    STRESS:  cpu time   58.0752: real time   58.1915
    FORCOR:  cpu time   20.1549: real time   20.1936
    FORHAR:  cpu time    6.5040: real time    6.5165
    MIXING:  cpu time    1.2358: real time    1.2374
    OFIELD:  cpu time    0.0000: real time    0.0000

  FORCE on cell =-STRESS in cart. coord.  units (eV):
  Direction    XX          YY          ZZ          XY          YZ          ZX
  --------------------------------------------------------------------------------------
  Alpha Z     0.04144     0.04144     0.04144
  Ewald     445.81063   120.70775   142.67066   -86.91688    90.11230   -74.32320
  Hartree   531.18564   323.18522   331.55206   -37.75693    34.32612   -27.76023
  E(xc)     -59.26848   -59.74703   -59.67014    -0.26641     0.31130    -0.26226
  Local   -1132.16014  -612.08300  -640.25461   119.94453  -116.39699    97.92795
  n-local   -21.21403   -24.85076   -25.31965     2.46997    -2.25449     3.10059
  augment     0.60321     0.89277     0.89663     0.02226    -0.00466    -0.00685
  Kinetic   236.52418   250.70340   248.68776     1.32974    -6.27336     0.11380
  Fock        0.00000     0.00000     0.00000     0.00000     0.00000     0.00000
  -------------------------------------------------------------------------------------
  Total       1.52245    -1.15021    -1.39586    -1.17372    -0.17978    -1.21019
  in kB       0.09034    -0.06825    -0.08283    -0.06965    -0.01067    -0.07181
  external pressure =       -0.02 kB  Pullay stress =        0.00 kB


 VOLUME and BASIS-vectors are now :
 -----------------------------------------------------------------------------
  energy-cutoff  :      400.00
  volume of cell :    27000.00
      direct lattice vectors                 reciprocal lattice vectors
    30.000000000  0.000000000  0.000000000     0.033333333  0.000000000  0.000000000
     0.000000000 30.000000000  0.000000000     0.000000000  0.033333333  0.000000000
     0.000000000  0.000000000 30.000000000     0.000000000  0.000000000  0.033333333

  length of vectors
    30.000000000 30.000000000 30.000000000     0.033333333  0.033333333  0.033333333


 FORCES acting on ions
    electron-ion (+dipol)            ewald-force                    non-local-force                 convergence-correction
 -----------------------------------------------------------------------------------------------
   0.328E+02 0.579E+02 -.932E+01   -.344E+02 -.631E+02 0.103E+02   0.164E+01 0.540E+01 -.834E+00   -.805E-04 -.318E-03 0.403E-04
   0.276E+02 -.159E+02 0.590E+02   -.288E+02 0.174E+02 -.642E+02   0.115E+01 -.135E+01 0.540E+01   -.522E-04 0.689E-04 -.318E-03
   0.412E+02 -.387E+02 -.383E+02   -.444E+02 0.426E+02 0.423E+02   0.267E+01 -.376E+01 -.382E+01   -.137E-03 0.211E-03 0.216E-03
   0.117E+03 -.125E+01 0.714E+01   -.124E+03 0.109E+01 -.789E+01   0.733E+01 0.452E+00 0.106E+01   0.667E-03 -.186E-04 0.358E-04
   -.168E+03 0.109E+03 0.119E+03   0.181E+03 -.122E+03 -.134E+03   -.114E+02 0.132E+02 0.150E+02   -.992E-03 0.118E-02 0.135E-02
   -.490E+02 -.109E+03 -.134E+03   0.511E+02 0.124E+03 0.153E+03   -.288E+01 -.166E+02 -.202E+02   0.232E-02 0.993E-04 0.308E-03
 -----------------------------------------------------------------------------------------------
   0.151E+01 0.273E+01 0.344E+01   0.000E+00 0.000E+00 0.000E+00   -.151E+01 -.274E+01 -.344E+01   0.173E-02 0.122E-02 0.163E-02
 
 
 POSITION                                       TOTAL-FORCE (eV/Angst)
 -----------------------------------------------------------------------------------
     14.24730     14.02994     15.22392        -0.032203      0.177897      0.134459
     14.34227     15.33842     14.01003        -0.009311      0.096730      0.208795
     14.06424     15.74829     15.74259        -0.533529      0.156226      0.144922
     14.55648     15.07200     15.05647        -0.180742      0.292806      0.307509
     16.71061     14.56215     14.60189         1.480119      0.031151      0.134420
     16.01764     15.20989     15.33003        -0.724335     -0.754810     -0.930105
 -----------------------------------------------------------------------------------
    total drift:                               -0.000844     -0.003492      0.004730


--------------------------------------------------------------------------------------------------------



  FREE ENERGIE OF THE ION-ELECTRON SYSTEM (eV)
  ---------------------------------------------------
  free  energy   TOTEN  =       -34.75333305 eV

  energy  without entropy=      -34.75333305  energy(sigma->0) =      -34.75333305
 


--------------------------------------------------------------------------------------------------------


    POTLOK:  cpu time   16.2835: real time   16.3159


--------------------------------------------------------------------------------------------------------


 NEB: the previous image is higher in energy: F
 NEB: the next image is higher in energy    : T
 NEB: only next energy greater

 NEB: Tangent
 ----------------------------------------------
      0.08055     -0.07251     -0.03052
      0.08094     -0.01047     -0.06793
      0.20169     -0.06452     -0.05435
      0.08712     -0.09841     -0.10425
     -0.74598     -0.06211     -0.12022
      0.31050      0.29354      0.37781

 NEB: forces: par spring, perp REAL, dneb     0.175712    0.399826    0.000000
 NEB: distance to prev, next image, angle between     0.199255    0.234397  166.120579
 NEB: projections on to tangent (spring, REAL)     0.175712   -2.157835

 stress matrix after NEB project (eV)
      1.52245     -1.17372     -1.21019
     -1.17372     -1.15021     -0.17978
     -1.21019     -0.17978     -1.39586
  FORCES: max atom, RMS     0.319747    0.178295
  FORCE total and by dimension    0.436733    0.260655
  Stress total and by dimension    3.367237    1.522446
 
 OPT: Flag T
 OPT: FIRE Step
 OPT: FIRE, TIMESTEP      0.10000
 OPT: FIRE, alpha         0.10000


--------------------------------------------------------------------------------------------------------


    WAVPRE:  cpu time    7.5059: real time    7.5252
 FEWALD executed in parallel
    FEWALD:  cpu time    0.0000: real time    0.0003
    ORTHCH:  cpu time    5.9711: real time    5.9864
     LOOP+:  cpu time 2807.8391: real time 2814.0383


----------------------------------------- Iteration    2(   1)  ---------------------------------------


    POTLOK:  cpu time   22.1136: real time   22.1771
    SETDIJ:  cpu time    0.0060: real time    0.0066
     EDDAV:  cpu time   78.4711: real time   78.6981
       DOS:  cpu time    0.0000: real time    0.0002
    CHARGE:  cpu time    5.9401: real time    5.9586
    MIXING:  cpu time    0.5369: real time    0.5393
    --------------------------------------------
      LOOP:  cpu time  107.0697: real time  107.3825

 eigenvalue-minimisations  :   112
 total energy-change (2. order) : 0.2142435E-02  (-0.2571846E-02)
 number of electron      15.9999984 magnetization 
 augmentation part        0.4236070 magnetization 

 Broyden mixing:
  rms(total) = 0.55379E-02    rms(broyden)= 0.55046E-02
  rms(prec ) = 0.56245E-02
  weight for this iteration     100.00

 Free energy of the ion-electron system (eV)
  ---------------------------------------------------
  alpha Z        PSCENC =         0.04144063
  Ewald energy   TEWEN  =       709.60443397
  -Hartree energ DENC   =     -1186.25364849
  -exchange      EXHF   =         0.00000000
  -V(xc)+E(xc)   XCENC  =        54.69623123
  PAW double counting   =      1262.77987287    -1265.60114771
  entropy T*S    EENTRO =         0.00000000
  eigenvalues    EBANDS =      -206.18364656
  atomic energy  EATOM  =       596.16534815
  Solvation  Ediel_sol  =         0.00000000
  ---------------------------------------------------
  free energy    TOTEN  =       -34.75111591 eV

  energy without entropy =      -34.75111591  energy(sigma->0) =      -34.75111591


--------------------------------------------------------------------------------------------------------




----------------------------------------- Iteration    2(   2)  ---------------------------------------


    POTLOK:  cpu time   18.6622: real time   18.7208
    SETDIJ:  cpu time    0.0070: real time    0.0068
     EDDAV:  cpu time   89.1185: real time   89.3786
       DOS:  cpu time    0.0000: real time    0.0002
    CHARGE:  cpu time    5.7631: real time    5.7806
    MIXING:  cpu time    0.6189: real time    0.6196
    --------------------------------------------
      LOOP:  cpu time  114.1716: real time  114.5109

 eigenvalue-minimisations  :   128
 total energy-change (2. order) : 0.2195271E-04  (-0.2812084E-04)
 number of electron      15.9999984 magnetization 
 augmentation part        0.4237594 magnetization 

 Broyden mixing:
  rms(total) = 0.29707E-02    rms(broyden)= 0.29683E-02
  rms(prec ) = 0.30197E-02
  weight for this iteration     100.00

 eigenvalues of (default mixing * dielectric matrix)
  average eigenvalue GAMMA=   1.5971
  1.5971

 Free energy of the ion-electron system (eV)
  ---------------------------------------------------
  alpha Z        PSCENC =         0.04144063
  Ewald energy   TEWEN  =       709.60443397
  -Hartree energ DENC   =     -1186.27414899
  -exchange      EXHF   =         0.00000000
  -V(xc)+E(xc)   XCENC  =        54.69696489
  PAW double counting   =      1263.30497542    -1266.12657519
  entropy T*S    EENTRO =         0.00000000
  eigenvalues    EBANDS =      -206.16353284
  atomic energy  EATOM  =       596.16534815
  Solvation  Ediel_sol  =         0.00000000
  ---------------------------------------------------
  free energy    TOTEN  =       -34.75109396 eV

  energy without entropy =      -34.75109396  energy(sigma->0) =      -34.75109396


--------------------------------------------------------------------------------------------------------




----------------------------------------- Iteration    2(   3)  ---------------------------------------


    POTLOK:  cpu time   19.5030: real time   19.5613
    SETDIJ:  cpu time    0.0060: real time    0.0064
     EDDAV:  cpu time   69.0175: real time   69.2156
       DOS:  cpu time    0.0000: real time    0.0002
    CHARGE:  cpu time    6.5580: real time    6.5775
    MIXING:  cpu time    0.7369: real time    0.7384
    --------------------------------------------
      LOOP:  cpu time   95.8224: real time   96.1038

 eigenvalue-minimisations  :    88
 total energy-change (2. order) :-0.2365361E-04  (-0.1926901E-05)
 number of electron      15.9999984 magnetization 
 augmentation part        0.4237143 magnetization 

 Broyden mixing:
  rms(total) = 0.94370E-03    rms(broyden)= 0.94302E-03
  rms(prec ) = 0.95566E-03
  weight for this iteration     100.00

 eigenvalues of (default mixing * dielectric matrix)
  average eigenvalue GAMMA=   1.5541
  1.0860  2.0221

 Free energy of the ion-electron system (eV)
  ---------------------------------------------------
  alpha Z        PSCENC =         0.04144063
  Ewald energy   TEWEN  =       709.60443397
  -Hartree energ DENC   =     -1186.30362594
  -exchange      EXHF   =         0.00000000
  -V(xc)+E(xc)   XCENC  =        54.69822850
  PAW double counting   =      1263.90410567    -1266.72634001
  entropy T*S    EENTRO =         0.00000000
  eigenvalues    EBANDS =      -206.13470859
  atomic energy  EATOM  =       596.16534815
  Solvation  Ediel_sol  =         0.00000000
  ---------------------------------------------------
  free energy    TOTEN  =       -34.75111761 eV

  energy without entropy =      -34.75111761  energy(sigma->0) =      -34.75111761


--------------------------------------------------------------------------------------------------------




----------------------------------------- Iteration    2(   4)  ---------------------------------------


    POTLOK:  cpu time   20.2169: real time   20.2754
    SETDIJ:  cpu time    0.0070: real time    0.0064
     EDDAV:  cpu time   63.3844: real time   63.5643
[...]
  Solvation  Ediel_sol  =         0.00000000
  ---------------------------------------------------
  free energy    TOTEN  =       -34.70783016 eV

  energy without entropy =      -34.70783016  energy(sigma->0) =      -34.70783016


--------------------------------------------------------------------------------------------------------




----------------------------------------- Iteration   28(   2)  ---------------------------------------


    POTLOK:  cpu time   19.7770: real time   19.8244
    SETDIJ:  cpu time    0.0060: real time    0.0064
     EDDAV:  cpu time   45.6251: real time   45.7351
       DOS:  cpu time    0.0000: real time    0.0002
    CHARGE:  cpu time    6.2111: real time    6.2265
    MIXING:  cpu time    0.6289: real time    0.6301
    --------------------------------------------
      LOOP:  cpu time   72.2500: real time   72.4271

 eigenvalue-minimisations  :    64
 total energy-change (2. order) : 0.1510635E-05  (-0.2940092E-05)
 number of electron      15.9999980 magnetization 
 augmentation part        0.4217546 magnetization 

 Broyden mixing:
  rms(total) = 0.96871E-03    rms(broyden)= 0.96743E-03
  rms(prec ) = 0.98282E-03
  weight for this iteration     100.00

 eigenvalues of (default mixing * dielectric matrix)
  average eigenvalue GAMMA=   2.0647
  2.0647

 Free energy of the ion-electron system (eV)
  ---------------------------------------------------
  alpha Z        PSCENC =         0.04144063
  Ewald energy   TEWEN  =       709.93655689
  -Hartree energ DENC   =     -1186.71901203
  -exchange      EXHF   =         0.00000000
  -V(xc)+E(xc)   XCENC  =        54.68524825
  PAW double counting   =      1259.64764033    -1262.46590171
  entropy T*S    EENTRO =         0.00000000
  eigenvalues    EBANDS =      -205.99914915
  atomic energy  EATOM  =       596.16534815
  Solvation  Ediel_sol  =         0.00000000
  ---------------------------------------------------
  free energy    TOTEN  =       -34.70782865 eV

  energy without entropy =      -34.70782865  energy(sigma->0) =      -34.70782865


--------------------------------------------------------------------------------------------------------




----------------------------------------- Iteration   28(   3)  ---------------------------------------


    POTLOK:  cpu time   20.9478: real time   20.9990
    SETDIJ:  cpu time    0.0060: real time    0.0065
     EDDAV:  cpu time   49.7394: real time   49.8583
       DOS:  cpu time    0.0000: real time    0.0002
    CHARGE:  cpu time    5.2962: real time    5.3087
    MIXING:  cpu time    0.5969: real time    0.5988
    --------------------------------------------
      LOOP:  cpu time   76.5884: real time   76.7752

 eigenvalue-minimisations  :    64
 total energy-change (2. order) :-0.1844698E-05  (-0.6499961E-06)
 number of electron      15.9999980 magnetization 
 augmentation part        0.4217752 magnetization 

 Broyden mixing:
  rms(total) = 0.22736E-03    rms(broyden)= 0.22708E-03
  rms(prec ) = 0.23246E-03
  weight for this iteration     100.00

 eigenvalues of (default mixing * dielectric matrix)
  average eigenvalue GAMMA=   1.5975
  1.0383  2.1566

 Free energy of the ion-electron system (eV)
  ---------------------------------------------------
  alpha Z        PSCENC =         0.04144063
  Ewald energy   TEWEN  =       709.93655689
  -Hartree energ DENC   =     -1186.70529553
  -exchange      EXHF   =         0.00000000
  -V(xc)+E(xc)   XCENC  =        54.68450270
  PAW double counting   =      1259.40904284    -1262.22709447
  entropy T*S    EENTRO =         0.00000000
  eigenvalues    EBANDS =      -206.01233169
  atomic energy  EATOM  =       596.16534815
  Solvation  Ediel_sol  =         0.00000000
  ---------------------------------------------------
  free energy    TOTEN  =       -34.70783049 eV

  energy without entropy =      -34.70783049  energy(sigma->0) =      -34.70783049


--------------------------------------------------------------------------------------------------------




----------------------------------------- Iteration   28(   4)  ---------------------------------------


    POTLOK:  cpu time   19.7470: real time   19.7940
    SETDIJ:  cpu time    0.0060: real time    0.0065
     EDDAV:  cpu time   40.1369: real time   40.2328
       DOS:  cpu time    0.0000: real time    0.0002
    CHARGE:  cpu time    5.4062: real time    5.4191
    MIXING:  cpu time    0.6399: real time    0.6408
    --------------------------------------------
      LOOP:  cpu time   65.9380: real time   66.0983

 eigenvalue-minimisations  :    48
 total energy-change (2. order) :-0.2406507E-06  (-0.1505848E-06)
 number of electron      15.9999980 magnetization 
 augmentation part        0.4217737 magnetization 

 Broyden mixing:
  rms(total) = 0.12898E-03    rms(broyden)= 0.12889E-03
  rms(prec ) = 0.13142E-03
  weight for this iteration     100.00

 eigenvalues of (default mixing * dielectric matrix)
  average eigenvalue GAMMA=   1.5232
  2.3493  1.0783  1.1418

 Free energy of the ion-electron system (eV)
  ---------------------------------------------------
  alpha Z        PSCENC =         0.04144063
  Ewald energy   TEWEN  =       709.93655689
  -Hartree energ DENC   =     -1186.70688082
  -exchange      EXHF   =         0.00000000
  -V(xc)+E(xc)   XCENC  =        54.68457941
  PAW double counting   =      1259.36812478    -1262.18619375
  entropy T*S    EENTRO =         0.00000000
  eigenvalues    EBANDS =      -206.01080602
  atomic energy  EATOM  =       596.16534815
  Solvation  Ediel_sol  =         0.00000000
  ---------------------------------------------------
  free energy    TOTEN  =       -34.70783074 eV

  energy without entropy =      -34.70783074  energy(sigma->0) =      -34.70783074


--------------------------------------------------------------------------------------------------------




----------------------------------------- Iteration   28(   5)  ---------------------------------------


    POTLOK:  cpu time   20.5849: real time   20.6336
    SETDIJ:  cpu time    0.0060: real time    0.0066
     EDDAV:  cpu time   43.1054: real time   43.2088
       DOS:  cpu time    0.0000: real time    0.0002
    CHARGE:  cpu time    5.7611: real time    5.7751
    MIXING:  cpu time    0.6969: real time    0.6993
    --------------------------------------------
      LOOP:  cpu time   70.1553: real time   70.3286

 eigenvalue-minimisations  :    48
 total energy-change (2. order) :-0.1528197E-06  (-0.4146201E-07)
 number of electron      15.9999980 magnetization 
 augmentation part        0.4217736 magnetization 

 Broyden mixing:
  rms(total) = 0.65417E-04    rms(broyden)= 0.65386E-04
  rms(prec ) = 0.67102E-04
  weight for this iteration     100.00

 eigenvalues of (default mixing * dielectric matrix)
  average eigenvalue GAMMA=   1.6493
  2.5864  1.9346  1.1333  0.9430

 Free energy of the ion-electron system (eV)
  ---------------------------------------------------
  alpha Z        PSCENC =         0.04144063
  Ewald energy   TEWEN  =       709.93655689
  -Hartree energ DENC   =     -1186.70761670
  -exchange      EXHF   =         0.00000000
  -V(xc)+E(xc)   XCENC  =        54.68463010
  PAW double counting   =      1259.33174148    -1262.14982311
  entropy T*S    EENTRO =         0.00000000
  eigenvalues    EBANDS =      -206.01010833
  atomic energy  EATOM  =       596.16534815
  Solvation  Ediel_sol  =         0.00000000
  ---------------------------------------------------
  free energy    TOTEN  =       -34.70783089 eV

  energy without entropy =      -34.70783089  energy(sigma->0) =      -34.70783089


--------------------------------------------------------------------------------------------------------




----------------------------------------- Iteration   28(   6)  ---------------------------------------


    POTLOK:  cpu time   20.0540: real time   20.1022
    SETDIJ:  cpu time    0.0070: real time    0.0066
     EDDAV:  cpu time   38.5121: real time   38.6069
       DOS:  cpu time    0.0000: real time    0.0002
    --------------------------------------------
      LOOP:  cpu time   58.5761: real time   58.7209

 eigenvalue-minimisations  :    48
 total energy-change (2. order) :-0.1783260E-06  (-0.1692073E-07)
 number of electron      15.9999980 magnetization 
 augmentation part        0.4217736 magnetization 

 Free energy of the ion-electron system (eV)
  ---------------------------------------------------
  alpha Z        PSCENC =         0.04144063
  Ewald energy   TEWEN  =       709.93655689
  -Hartree energ DENC   =     -1186.70883788
  -exchange      EXHF   =         0.00000000
  -V(xc)+E(xc)   XCENC  =        54.68470830
  PAW double counting   =      1259.30600074    -1262.12410020
  entropy T*S    EENTRO =         0.00000000
  eigenvalues    EBANDS =      -206.00894769
  atomic energy  EATOM  =       596.16534815
  Solvation  Ediel_sol  =         0.00000000
  ---------------------------------------------------
  free energy    TOTEN  =       -34.70783107 eV

  energy without entropy =      -34.70783107  energy(sigma->0) =      -34.70783107


--------------------------------------------------------------------------------------------------------




 average (electrostatic) potential at core
  the test charge radii are     0.5201  0.6991  0.7089
  (the norm of the test charge is              1.0000)
       1 -42.8077       2 -42.7965       3 -42.7980       4 -60.2992       5 -59.9805
       6 -74.4925
 
 
 
 E-fermi :  -6.3504     XC(G=0):  -0.0592     alpha+bet : -0.0137


 k-point     1 :       0.2500    0.2500    0.2500
  band No.  band energies     occupation 
      1     -24.2198      2.00000
      2     -18.1487      2.00000
      3     -13.0809      2.00000
      4     -11.5188      2.00000
      5     -11.4514      2.00000
      6      -9.0112      2.00000
      7      -8.2463      2.00000
      8      -7.3274      2.00000
      9      -2.6570      0.00000
     10      -1.1176      0.00000
     11      -0.3962      0.00000
     12       0.0267      0.00000

 k-point     2 :      -0.2500    0.2500    0.2500
  band No.  band energies     occupation 
      1     -24.2198      2.00000
      2     -18.1487      2.00000
      3     -13.0809      2.00000
      4     -11.5188      2.00000
      5     -11.4514      2.00000
      6      -9.0112      2.00000
      7      -8.2463      2.00000
      8      -7.3274      2.00000
      9      -2.6570      0.00000
     10      -1.1176      0.00000
     11      -0.3962      0.00000
     12       0.0293      0.00000

 k-point     3 :       0.2500   -0.2500    0.2500
  band No.  band energies     occupation 
      1     -24.2198      2.00000
      2     -18.1487      2.00000
      3     -13.0809      2.00000
      4     -11.5188      2.00000
      5     -11.4514      2.00000
      6      -9.0112      2.00000
      7      -8.2463      2.00000
      8      -7.3274      2.00000
      9      -2.6570      0.00000
     10      -1.1176      0.00000
     11      -0.3962      0.00000
     12       0.0298      0.00000

 k-point     4 :      -0.2500   -0.2500    0.2500
  band No.  band energies     occupation 
      1     -24.2198      2.00000
      2     -18.1487      2.00000
      3     -13.0809      2.00000
      4     -11.5188      2.00000
      5     -11.4514      2.00000
      6      -9.0112      2.00000
      7      -8.2463      2.00000
      8      -7.3274      2.00000
      9      -2.6570      0.00000
     10      -1.1176      0.00000
     11      -0.3962      0.00000
     12       0.0301      0.00000


--------------------------------------------------------------------------------------------------------


 soft charge-density along one line, spin component           1
         0         1         2         3         4         5         6         7         8         9
 total charge-density along one line
 
 pseudopotential strength for first ion, spin component:           1
 -2.359  -4.068  -0.002   0.000  -0.001
 -4.068  -6.929  -0.005   0.001  -0.002
 -0.002  -0.005  -0.330  -0.001   0.001
  0.000   0.001  -0.001  -0.335   0.000
 -0.001  -0.002   0.001   0.000  -0.334
 total augmentation occupancy for first ion, spin component:           1
  3.546  -0.640   0.423  -0.067   0.126
 -0.640   0.132  -0.078   0.013  -0.023
  0.423  -0.078   0.052  -0.007   0.013
 -0.067   0.013  -0.007   0.010  -0.003
  0.126  -0.023   0.013  -0.003   0.010


------------------------ aborting loop because EDIFF is reached ----------------------------------------


    CHARGE:  cpu time    6.1891: real time    6.2041
    FORLOC:  cpu time    2.4086: real time    2.4144
    FORNL :  cpu time   18.5672: real time   18.6114
    STRESS:  cpu time   57.0183: real time   57.1527
    FORCOR:  cpu time   21.1188: real time   21.1669
    FORHAR:  cpu time    7.3089: real time    7.3259
    MIXING:  cpu time    0.7899: real time    0.7927
    OFIELD:  cpu time    0.0000: real time    0.0000

  FORCE on cell =-STRESS in cart. coord.  units (eV):
  Direction    XX          YY          ZZ          XY          YZ          ZX
  --------------------------------------------------------------------------------------
  Alpha Z     0.04144     0.04144     0.04144
  Ewald     437.53714   125.53496   146.86426   -87.11262    94.09281   -74.10133
  Hartree   527.84374   325.38059   333.48360   -38.21000    36.03733   -28.10060
  E(xc)     -59.28902   -59.72501   -59.65029    -0.26519     0.32460    -0.25953
  Local   -1120.91105  -618.91079  -646.28266   120.69460  -121.97230    98.19561
  n-local   -20.83076   -24.91261   -25.38975     2.41809    -2.40404     3.02183
  augment     0.60286     0.89113     0.89558     0.02118    -0.00104    -0.00788
  Kinetic   236.59105   250.54535   248.66834     1.32029    -6.23776     0.10914
  Fock        0.00000     0.00000     0.00000     0.00000     0.00000     0.00000
  -------------------------------------------------------------------------------------
  Total       1.58540    -1.15494    -1.36948    -1.13364    -0.16041    -1.14277
  in kB       0.09408    -0.06853    -0.08127    -0.06727    -0.00952    -0.06781
  external pressure =       -0.02 kB  Pullay stress =        0.00 kB


 VOLUME and BASIS-vectors are now :
 -----------------------------------------------------------------------------
  energy-cutoff  :      400.00
  volume of cell :    27000.00
      direct lattice vectors                 reciprocal lattice vectors
    30.000000000  0.000000000  0.000000000     0.033333333  0.000000000  0.000000000
     0.000000000 30.000000000  0.000000000     0.000000000  0.033333333  0.000000000
     0.000000000  0.000000000 30.000000000     0.000000000  0.000000000  0.033333333

  length of vectors
    30.000000000 30.000000000 30.000000000     0.033333333  0.033333333  0.033333333


 FORCES acting on ions
    electron-ion (+dipol)            ewald-force                    non-local-force                 convergence-correction
 -----------------------------------------------------------------------------------------------
   0.327E+02 0.580E+02 -.949E+01   -.343E+02 -.633E+02 0.104E+02   0.160E+01 0.542E+01 -.839E+00   -.120E-04 -.568E-06 0.929E-05
   0.275E+02 -.163E+02 0.591E+02   -.287E+02 0.177E+02 -.643E+02   0.111E+01 -.137E+01 0.542E+01   0.856E-05 0.512E-05 -.152E-04
   0.413E+02 -.386E+02 -.383E+02   -.445E+02 0.425E+02 0.423E+02   0.269E+01 -.375E+01 -.381E+01   -.234E-04 0.108E-04 0.239E-04
   0.117E+03 -.214E+01 0.603E+01   -.125E+03 0.199E+01 -.676E+01   0.737E+01 0.409E+00 0.101E+01   -.132E-04 0.106E-04 0.515E-05
   -.164E+03 0.113E+03 0.122E+03   0.176E+03 -.126E+03 -.137E+03   -.107E+02 0.134E+02 0.152E+02   -.326E-03 0.206E-03 -.466E-04
   -.537E+02 -.111E+03 -.136E+03   0.565E+02 0.127E+03 0.155E+03   -.346E+01 -.171E+02 -.206E+02   0.413E-04 -.159E-03 -.251E-03
 -----------------------------------------------------------------------------------------------
   0.140E+01 0.299E+01 0.368E+01   0.142E-13 0.000E+00 0.000E+00   -.140E+01 -.299E+01 -.368E+01   -.325E-03 0.730E-04 -.275E-03
 
 
 POSITION                                       TOTAL-FORCE (eV/Angst)
 -----------------------------------------------------------------------------------
     14.25668     14.03148     15.22745        -0.079421      0.185938      0.118936
     14.35138     15.34391     14.01376        -0.069349      0.088350      0.198574
     14.06439     15.74950     15.74635        -0.489373      0.158260      0.149633
     14.55948     15.07511     15.06003        -0.183591      0.259428      0.279119
     16.68454     14.54571     14.58671         1.493310      0.034728      0.137472
     16.02495     15.21218     15.33068        -0.671576     -0.726704     -0.883733
 -----------------------------------------------------------------------------------
    total drift:                               -0.000371     -0.001326      0.007997


--------------------------------------------------------------------------------------------------------



  FREE ENERGIE OF THE ION-ELECTRON SYSTEM (eV)
  ---------------------------------------------------
  free  energy   TOTEN  =       -34.70783107 eV

  energy  without entropy=      -34.70783107  energy(sigma->0) =      -34.70783107
 
 d Force = 0.1578632E-02[ 0.157E-02, 0.158E-02]  d Energy = 0.1579242E-02-0.610E-06
 d Force = 0.1243299E+00[ 0.124E+00, 0.124E+00]  d Ewald  = 0.1243299E+00-0.532E-07


--------------------------------------------------------------------------------------------------------


    POTLOK:  cpu time   19.3651: real time   19.4072


--------------------------------------------------------------------------------------------------------


 NEB: the previous image is higher in energy: F
 NEB: the next image is higher in energy    : T
 NEB: only next energy greater

 NEB: Tangent
 ----------------------------------------------
      0.02800     -0.08615     -0.05670
      0.02153     -0.04038     -0.09347
      0.23506     -0.07729     -0.07304
      0.08862     -0.12332     -0.13387
     -0.69331     -0.00917     -0.05610
      0.32024      0.33617      0.41320

 NEB: forces: par spring, perp REAL, dneb     0.007605    0.046847    0.000000
 NEB: distance to prev, next image, angle between     0.193670    0.195191  163.439483
 NEB: projections on to tangent (spring, REAL)     0.007605   -2.140302

 stress matrix after NEB project (eV)
      1.58540     -1.13364     -1.14277
     -1.13364     -1.15494     -0.16041
     -1.14277     -0.16041     -1.36948
  FORCES: max atom, RMS     0.023275    0.019375
  FORCE total and by dimension    0.047460    0.023115
  Stress total and by dimension    3.310051    1.585397
 OPT: skip step - force has converged


--------------------------------------------------------------------------------------------------------


  
 reached required accuracy - stopping structural energy minimisation
     LOOP+:  cpu time  739.0786: real time  740.7581
    4ORBIT:  cpu time    0.0000: real time    0.0000

 total amount of memory used by VASP on root node  3203889. kBytes
========================================================================

   base      :      30000. kBytes
   nonlr-proj:        693. kBytes
   fftplans  :     924480. kBytes
   grid      :    1872000. kBytes
   one-center:         18. kBytes
   wavefun   :     376698. kBytes
 
  
  
 General timing and accounting informations for this job:
 ========================================================
  
                  Total CPU time used (sec):    22534.928
                            User time (sec):    22239.531
                          System time (sec):      295.397
                         Elapsed time (sec):    22605.934
  
                   Maximum memory used (kb):     4761004.
                   Average memory used (kb):           0.
  
                          Minor page faults:      2392560
                          Major page faults:            8
                 Voluntary context switches:         3777
