 vasp.5.4.1 24Jun15 (build Jan 13 2020 12:58:22) complex                        
  
 POSCAR found type information on POSCAR  H  C  N 
 06/POSCAR found :  3 types and       6 ions
 scaLAPACK will be used

 ----------------------------------------------------------------------------- 
|                                                                             |
|  ADVICE TO THIS USER RUNNING 'VASP/VAMP'   (HEAR YOUR MASTER'S VOICE ...):  |
|                                                                             |
|      You have a (more or less) 'small supercell' and for smaller cells      |
|      it is recommended  to use the reciprocal-space projection scheme!      |
|      The real space optimization is not  efficient for small cells and it   |
|      is also less accurate ...                                              |
|      Therefore set LREAL=.FALSE. in the  INCAR file                         |
|                                                                             |
 ----------------------------------------------------------------------------- 

 LDA part: xc-table for Pade appr. of Perdew
 POSCAR found type information on POSCAR  H  C  N 
 00/POSCAR found :  3 types and       6 ions
 POSCAR found type information on POSCAR  H  C  N 
 16/POSCAR found :  3 types and       6 ions
 Jacobian:    40.4401846379183     
 POSCAR, INCAR and KPOINTS ok, starting setup
 WARNING: small aliasing (wrap around) errors must be expected
 FFT: planning ...
 WAVECAR not read
 entering main loop
       N       E                     dE             d eps       ncg     rms          rms(c)
DAV:   1     0.110575327677E+03    0.11058E+03   -0.21379E+03   160   0.366E+02
DAV:   2    -0.415232282683E+01   -0.11473E+03   -0.11173E+03   192   0.106E+02
DAV:   3    -0.347862351816E+02   -0.30634E+02   -0.30424E+02   136   0.871E+01
DAV:   4    -0.379721294760E+02   -0.31859E+01   -0.31497E+01   116   0.279E+01
DAV:   5    -0.380645229604E+02   -0.92393E-01   -0.91462E-01   120   0.481E+00    0.107E+01
DAV:   6    -0.354699382740E+02    0.25946E+01   -0.45731E+00   128   0.156E+01    0.573E+00
DAV:   7    -0.348466380725E+02    0.62330E+00   -0.14162E+00   120   0.883E+00    0.252E+00
DAV:   8    -0.347517254619E+02    0.94913E-01   -0.25076E-01   120   0.381E+00    0.969E-01
DAV:   9    -0.347349661214E+02    0.16759E-01   -0.33922E-02   104   0.153E+00    0.247E-01
DAV:  10    -0.347345353180E+02    0.43080E-03   -0.44580E-03   128   0.577E-01    0.124E-01
DAV:  11    -0.347361822538E+02   -0.16469E-02   -0.11572E-03    96   0.269E-01    0.700E-02
DAV:  12    -0.347398472414E+02   -0.36650E-02   -0.15347E-03   112   0.273E-01    0.403E-02
DAV:  13    -0.347440986814E+02   -0.42514E-02   -0.11176E-03   144   0.195E-01    0.271E-02
DAV:  14    -0.347482332819E+02   -0.41346E-02   -0.56904E-04   128   0.123E-01    0.154E-02
DAV:  15    -0.347499498894E+02   -0.17166E-02   -0.15248E-04   120   0.618E-02    0.999E-03
DAV:  16    -0.347520556880E+02   -0.21058E-02   -0.22128E-04   124   0.671E-02    0.574E-03
DAV:  17    -0.347526642090E+02   -0.60852E-03   -0.26126E-05    96   0.281E-02    0.325E-03
DAV:  18    -0.347530947022E+02   -0.43049E-03   -0.33831E-05    92   0.283E-02    0.284E-03
DAV:  19    -0.347532583480E+02   -0.16365E-03   -0.11356E-05    96   0.180E-02    0.121E-03
DAV:  20    -0.347533330512E+02   -0.74703E-04   -0.45467E-06    88   0.141E-02
   1 F= -.34753333E+02 E0= -.34753333E+02  d E =-.347533E+02
damped:  g(F)=  0.000E+00 g(S)=  0.000E+00 dE (1.order)= 0.000E+00
 bond charge predicted
       N       E                     dE             d eps       ncg     rms          rms(c)
DAV:   1    -0.347511159134E+02    0.21424E-02   -0.25718E-02   112   0.147E+00    0.554E-02
DAV:   2    -0.347510939607E+02    0.21953E-04   -0.28121E-04   128   0.145E-01    0.297E-02
DAV:   3    -0.347511176143E+02   -0.23654E-04   -0.19269E-05    88   0.452E-02    0.944E-03
DAV:   4    -0.347511299168E+02   -0.12303E-04   -0.57490E-06    80   0.222E-02    0.362E-03
DAV:   5    -0.347511361665E+02   -0.62497E-05   -0.98359E-07    80   0.890E-03    0.942E-04
DAV:   6    -0.347511398723E+02   -0.37057E-05   -0.23876E-07    80   0.414E-03
   2 F= -.34751140E+02 E0= -.34751140E+02  d E =0.219318E-02
damped:  g(F)=  0.000E+00 g(S)=  0.000E+00 dE (1.order)= 0.000E+00
 bond charge predicted
       N       E                     dE             d eps       ncg     rms          rms(c)
DAV:   1    -0.347462418286E+02    0.48943E-02   -0.80885E-02    96   0.259E+00    0.105E-01
DAV:   2    -0.347461313451E+02    0.11048E-03   -0.82219E-04   116   0.254E-01    0.544E-02
DAV:   3    -0.347461761065E+02   -0.44761E-04   -0.54555E-05    92   0.776E-02    0.179E-02
DAV:   4    -0.347461985920E+02   -0.22485E-04   -0.17290E-05    72   0.383E-02    0.658E-03
DAV:   5    -0.347462033896E+02   -0.47976E-05   -0.29631E-06    80   0.159E-02    0.213E-03
DAV:   6    -0.347462057502E+02   -0.23606E-05   -0.91213E-07    80   0.761E-03
   3 F= -.34746206E+02 E0= -.34746206E+02  d E =0.493412E-02
damped:  g(F)=  0.000E+00 g(S)=  0.000E+00 dE (1.order)= 0.000E+00
 bond charge predicted
       N       E                     dE             d eps       ncg     rms          rms(c)
DAV:   1    -0.347382821009E+02    0.79213E-02   -0.13699E-01    96   0.338E+00    0.141E-01
DAV:   2    -0.347380681907E+02    0.21391E-03   -0.12798E-03   112   0.311E-01    0.728E-02
DAV:   3    -0.347381567488E+02   -0.88558E-04   -0.89145E-05    76   0.979E-02    0.205E-02
DAV:   4    -0.347381861557E+02   -0.29407E-04   -0.26840E-05    64   0.472E-02    0.782E-03
DAV:   5    -0.347381938799E+02   -0.77242E-05   -0.47112E-06    80   0.192E-02    0.231E-03
DAV:   6    -0.347381972984E+02   -0.34185E-05   -0.14077E-06    64   0.902E-03
   4 F= -.34738197E+02 E0= -.34738197E+02  d E =0.800845E-02
damped:  g(F)=  0.000E+00 g(S)=  0.000E+00 dE (1.order)= 0.000E+00
 bond charge predicted
       N       E                     dE             d eps       ncg     rms          rms(c)
DAV:   1    -0.347272832736E+02    0.10911E-01   -0.17133E-01    96   0.386E+00    0.159E-01
DAV:   2    -0.347270144199E+02    0.26885E-03   -0.16487E-03   112   0.340E-01    0.831E-02
DAV:   3    -0.347271293823E+02   -0.11496E-03   -0.10610E-04    84   0.101E-01    0.204E-02
DAV:   4    -0.347271600557E+02   -0.30673E-04   -0.30328E-05    80   0.464E-02    0.822E-03
DAV:   5    -0.347271710471E+02   -0.10991E-04   -0.65146E-06    72   0.198E-02    0.165E-03
DAV:   6    -0.347271746119E+02   -0.35649E-05   -0.18512E-06    48   0.933E-03
   5 F= -.34727175E+02 E0= -.34727175E+02  d E =0.110227E-01
damped:  g(F)=  0.000E+00 g(S)=  0.000E+00 dE (1.order)= 0.000E+00
 bond charge predicted
       N       E                     dE             d eps       ncg     rms          rms(c)
DAV:   1    -0.347268715402E+02    0.29951E-03   -0.46462E-04   112   0.210E-01    0.808E-03
DAV:   2    -0.347268721774E+02   -0.63728E-06   -0.71884E-06    64   0.262E-02    0.452E-03
DAV:   3    -0.347268739843E+02   -0.18069E-05   -0.18488E-06    84   0.136E-02    0.211E-03
DAV:   4    -0.347268765155E+02   -0.25312E-05   -0.99134E-07    64   0.912E-03    0.898E-04
DAV:   5    -0.347268783498E+02   -0.18342E-05   -0.23057E-07    80   0.428E-03    0.389E-04
DAV:   6    -0.347268799317E+02   -0.15819E-05   -0.10834E-07    64   0.205E-03
   6 F= -.34726880E+02 E0= -.34726880E+02  d E =0.294680E-03
damped:  g(F)=  0.000E+00 g(S)=  0.000E+00 dE (1.order)= 0.000E+00
 bond charge predicted
       N       E                     dE             d eps       ncg     rms          rms(c)
DAV:   1    -0.347260671860E+02    0.81116E-03   -0.15257E-03    96   0.385E-01    0.127E-02
DAV:   2    -0.347260649384E+02    0.22476E-05   -0.21448E-05    80   0.444E-02    0.741E-03
DAV:   3    -0.347260650874E+02   -0.14907E-06   -0.46066E-06    64   0.213E-02    0.343E-03
DAV:   4    -0.347260660203E+02   -0.93282E-06   -0.21815E-06    92   0.137E-02    0.136E-03
DAV:   5    -0.347260665452E+02   -0.52491E-06   -0.38461E-07    48   0.626E-03    0.628E-04
DAV:   6    -0.347260670982E+02   -0.55298E-06   -0.11864E-07    64   0.306E-03
   7 F= -.34726067E+02 E0= -.34726067E+02  d E =0.812833E-03
damped:  g(F)=  0.000E+00 g(S)=  0.000E+00 dE (1.order)= 0.000E+00
 bond charge predicted
       N       E                     dE             d eps       ncg     rms          rms(c)
DAV:   1    -0.347245843944E+02    0.14822E-02   -0.28602E-03    96   0.532E-01    0.145E-02
DAV:   2    -0.347245822513E+02    0.21430E-05   -0.38330E-05    96   0.557E-02    0.883E-03
DAV:   3    -0.347245822769E+02   -0.25512E-07   -0.63015E-06    64   0.238E-02    0.413E-03
DAV:   4    -0.347245828988E+02   -0.62197E-06   -0.19638E-06    80   0.130E-02    0.152E-03
DAV:   5    -0.347245832689E+02   -0.37010E-06   -0.37461E-07    48   0.577E-03    0.605E-04
DAV:   6    -0.347245836332E+02   -0.36430E-06   -0.11289E-07    64   0.284E-03
   8 F= -.34724584E+02 E0= -.34724584E+02  d E =0.148346E-02
damped:  g(F)=  0.000E+00 g(S)=  0.000E+00 dE (1.order)= 0.000E+00
 bond charge predicted
       N       E                     dE             d eps       ncg     rms          rms(c)
DAV:   1    -0.347224886746E+02    0.20946E-02   -0.45689E-03    96   0.677E-01    0.180E-02
DAV:   2    -0.347224876904E+02    0.98420E-06   -0.59642E-05    64   0.685E-02    0.103E-02
DAV:   3    -0.347224884925E+02   -0.80207E-06   -0.92004E-06    96   0.272E-02    0.358E-03
DAV:   4    -0.347224891320E+02   -0.63956E-06   -0.18597E-06    64   0.127E-02    0.128E-03
DAV:   5    -0.347224894445E+02   -0.31243E-06   -0.44303E-07    52   0.583E-03    0.412E-04
DAV:   6    -0.347224896845E+02   -0.24005E-06   -0.14719E-07    52   0.299E-03
   9 F= -.34722490E+02 E0= -.34722490E+02  d E =0.209395E-02
damped:  g(F)=  0.000E+00 g(S)=  0.000E+00 dE (1.order)= 0.000E+00
 bond charge predicted
       N       E                     dE             d eps       ncg     rms          rms(c)
DAV:   1    -0.347198104385E+02    0.26790E-02   -0.65980E-03    96   0.819E-01    0.219E-02
DAV:   2    -0.347198109894E+02   -0.55090E-06   -0.95506E-05    68   0.858E-02    0.128E-02
DAV:   3    -0.347198121333E+02   -0.11439E-05   -0.14316E-05    64   0.350E-02    0.462E-03
DAV:   4    -0.347198130582E+02   -0.92490E-06   -0.29997E-06    48   0.159E-02    0.176E-03
DAV:   5    -0.347198133236E+02   -0.26543E-06   -0.69335E-07    48   0.746E-03    0.621E-04
DAV:   6    -0.347198135562E+02   -0.23261E-06   -0.24332E-07    48   0.393E-03
  10 F= -.34719814E+02 E0= -.34719814E+02  d E =0.267613E-02
damped:  g(F)=  0.000E+00 g(S)=  0.000E+00 dE (1.order)= 0.000E+00
 bond charge predicted
       N       E                     dE             d eps       ncg     rms          rms(c)
DAV:   1    -0.347165426664E+02    0.32707E-02   -0.84198E-03    96   0.928E-01    0.251E-02
DAV:   2    -0.347165427316E+02   -0.65222E-07   -0.11853E-04    76   0.956E-02    0.147E-02
DAV:   3    -0.347165445739E+02   -0.18423E-05   -0.17861E-05    64   0.393E-02    0.516E-03
DAV:   4    -0.347165457729E+02   -0.11990E-05   -0.38660E-06    48   0.178E-02    0.203E-03
DAV:   5    -0.347165460912E+02   -0.31822E-06   -0.91585E-07    48   0.845E-03    0.760E-04
DAV:   6    -0.347165463854E+02   -0.29423E-06   -0.33183E-07    48   0.456E-03
  11 F= -.34716546E+02 E0= -.34716546E+02  d E =0.326717E-02
damped:  g(F)=  0.000E+00 g(S)=  0.000E+00 dE (1.order)= 0.000E+00
 bond charge predicted
       N       E                     dE             d eps       ncg     rms          rms(c)
DAV:   1    -0.347123593160E+02    0.41868E-02   -0.11625E-02    96   0.109E+00    0.303E-02
DAV:   2    -0.347123554862E+02    0.38298E-05   -0.15114E-04    96   0.102E-01    0.177E-02
DAV:   3    -0.347123575256E+02   -0.20395E-05   -0.62511E-06    80   0.239E-02    0.603E-03
DAV:   4    -0.347123593055E+02   -0.17798E-05   -0.23403E-06    48   0.137E-02    0.155E-03
DAV:   5    -0.347123596539E+02   -0.34843E-06   -0.49504E-07    48   0.614E-03    0.831E-04
DAV:   6    -0.347123600935E+02   -0.43958E-06   -0.16401E-07    48   0.317E-03
  12 F= -.34712360E+02 E0= -.34712360E+02  d E =0.418629E-02
damped:  g(F)=  0.000E+00 g(S)=  0.000E+00 dE (1.order)= 0.000E+00
 bond charge predicted
       N       E                     dE             d eps       ncg     rms          rms(c)
DAV:   1    -0.347073132869E+02    0.50464E-02   -0.15249E-02    96   0.124E+00    0.368E-02
DAV:   2    -0.347072966395E+02    0.16647E-04   -0.17188E-04    96   0.112E-01    0.208E-02
DAV:   3    -0.347072998080E+02   -0.31685E-05   -0.14307E-05    80   0.356E-02    0.763E-03
DAV:   4    -0.347073026580E+02   -0.28500E-05   -0.42678E-06    52   0.202E-02    0.234E-03
DAV:   5    -0.347073034232E+02   -0.76515E-06   -0.73449E-07    60   0.893E-03    0.819E-04
DAV:   6    -0.347073040825E+02   -0.65931E-06   -0.25574E-07    52   0.421E-03
  13 F= -.34707304E+02 E0= -.34707304E+02  d E =0.505601E-02
damped:  g(F)=  0.000E+00 g(S)=  0.000E+00 dE (1.order)= 0.000E+00
 bond charge predicted
       N       E                     dE             d eps       ncg     rms          rms(c)
DAV:   1    -0.347015127146E+02    0.57907E-02   -0.16482E-02    96   0.128E+00    0.412E-02
DAV:   2    -0.347014870567E+02    0.25658E-04   -0.16444E-04    96   0.110E-01    0.225E-02
DAV:   3    -0.347014937922E+02   -0.67354E-05   -0.15907E-05    64   0.372E-02    0.763E-03
DAV:   4    -0.347014973072E+02   -0.35150E-05   -0.41997E-06    48   0.200E-02    0.257E-03
DAV:   5    -0.347014983459E+02   -0.10387E-05   -0.68880E-07    64   0.892E-03    0.848E-04
DAV:   6    -0.347014992018E+02   -0.85596E-06   -0.29039E-07    48   0.432E-03
  14 F= -.34701499E+02 E0= -.34701499E+02  d E =0.580488E-02
damped:  g(F)=  0.000E+00 g(S)=  0.000E+00 dE (1.order)= 0.000E+00
 bond charge predicted
       N       E                     dE             d eps       ncg     rms          rms(c)
DAV:   1    -0.347014727768E+02    0.25569E-04   -0.22630E-05    64   0.450E-02    0.167E-03
DAV:   2    -0.347014734307E+02   -0.65392E-06   -0.11028E-06    48   0.105E-02    0.108E-03
DAV:   3    -0.347014739960E+02   -0.56522E-06   -0.14243E-07    48   0.342E-03    0.651E-04
DAV:   4    -0.347014749818E+02   -0.98588E-06   -0.14467E-07    80   0.309E-03    0.304E-04
DAV:   5    -0.347014751778E+02   -0.19601E-06   -0.47311E-08    48   0.156E-03    0.186E-04
DAV:   6    -0.347014757203E+02   -0.54241E-06   -0.38009E-08    48   0.943E-04
  15 F= -.34701476E+02 E0= -.34701476E+02  d E =0.234816E-04
damped:  g(F)=  0.000E+00 g(S)=  0.000E+00 dE (1.order)= 0.000E+00
 bond charge predicted
       N       E                     dE             d eps       ncg     rms          rms(c)
DAV:   1    -0.347014151474E+02    0.60030E-04   -0.79038E-05    48   0.837E-02    0.299E-03
DAV:   2    -0.347014155476E+02   -0.40013E-06   -0.35036E-06    56   0.191E-02    0.191E-03
DAV:   3    -0.347014157688E+02   -0.22126E-06   -0.37204E-07    68   0.619E-03    0.111E-03
DAV:   4    -0.347014161233E+02   -0.35447E-06   -0.28952E-07    64   0.503E-03    0.497E-04
DAV:   5    -0.347014161955E+02   -0.72190E-07   -0.76194E-08    48   0.249E-03    0.314E-04
DAV:   6    -0.347014163650E+02   -0.16948E-06   -0.40210E-08    48   0.122E-03
  16 F= -.34701416E+02 E0= -.34701416E+02  d E =0.593553E-04
damped:  g(F)=  0.000E+00 g(S)=  0.000E+00 dE (1.order)= 0.000E+00
 bond charge predicted
       N       E                     dE             d eps       ncg     rms          rms(c)
DAV:   1    -0.347013114041E+02    0.10479E-03   -0.14727E-04    96   0.112E-01    0.427E-03
DAV:   2    -0.347013112165E+02    0.18759E-06   -0.18152E-06    64   0.127E-02    0.253E-03
DAV:   3    -0.347013113388E+02   -0.12228E-06   -0.63292E-07    72   0.762E-03    0.935E-04
DAV:   4    -0.347013114351E+02   -0.96338E-07   -0.18409E-07    56   0.383E-03    0.483E-04
DAV:   5    -0.347013114997E+02   -0.64596E-07   -0.55393E-08    72   0.162E-03    0.173E-04
DAV:   6    -0.347013115539E+02   -0.54190E-07   -0.40466E-08    56   0.813E-04
  17 F= -.34701312E+02 E0= -.34701312E+02  d E =0.104811E-03
damped:  g(F)=  0.000E+00 g(S)=  0.000E+00 dE (1.order)= 0.000E+00
 bond charge predicted
       N       E                     dE             d eps       ncg     rms          rms(c)
DAV:   1    -0.347011856512E+02    0.12585E-03   -0.20452E-04    96   0.132E-01    0.457E-03
DAV:   2    -0.347011853924E+02    0.25876E-06   -0.22952E-06    64   0.141E-02    0.269E-03
DAV:   3    -0.347011854901E+02   -0.97718E-07   -0.68428E-07    48   0.774E-03    0.914E-04
DAV:   4    -0.347011855375E+02   -0.47376E-07   -0.17283E-07    48   0.361E-03    0.505E-04
DAV:   5    -0.347011855660E+02   -0.28533E-07   -0.56355E-08    48   0.152E-03    0.206E-04
DAV:   6    -0.347011855989E+02   -0.32837E-07   -0.40863E-08    48   0.811E-04
  18 F= -.34701186E+02 E0= -.34701186E+02  d E =0.125955E-03
damped:  g(F)=  0.000E+00 g(S)=  0.000E+00 dE (1.order)= 0.000E+00
 bond charge predicted
       N       E                     dE             d eps       ncg     rms          rms(c)
DAV:   1    -0.347010706100E+02    0.11496E-03   -0.26805E-04    96   0.153E-01    0.474E-03
DAV:   2    -0.347010704402E+02    0.16972E-06   -0.29976E-06    52   0.160E-02    0.271E-03
DAV:   3    -0.347010705747E+02   -0.13444E-06   -0.61890E-07    48   0.716E-03    0.917E-04
DAV:   4    -0.347010706253E+02   -0.50572E-07   -0.15604E-07    48   0.329E-03    0.451E-04
DAV:   5    -0.347010706490E+02   -0.23775E-07   -0.59145E-08    48   0.148E-03    0.202E-04
DAV:   6    -0.347010706778E+02   -0.28757E-07   -0.40865E-08    48   0.835E-04
  19 F= -.34701071E+02 E0= -.34701071E+02  d E =0.114921E-03
damped:  g(F)=  0.000E+00 g(S)=  0.000E+00 dE (1.order)= 0.000E+00
 bond charge predicted
       N       E                     dE             d eps       ncg     rms          rms(c)
DAV:   1    -0.347010015579E+02    0.69091E-04   -0.36223E-04    96   0.180E-01    0.521E-03
DAV:   2    -0.347010014322E+02    0.12576E-06   -0.44455E-06    64   0.195E-02    0.295E-03
DAV:   3    -0.347010015511E+02   -0.11891E-06   -0.77344E-07    48   0.817E-03    0.119E-03
DAV:   4    -0.347010016203E+02   -0.69184E-07   -0.20085E-07    48   0.382E-03    0.560E-04
DAV:   5    -0.347010016377E+02   -0.17484E-07   -0.69742E-08    48   0.175E-03    0.175E-04
DAV:   6    -0.347010016526E+02   -0.14813E-07   -0.43972E-08    48   0.904E-04
  20 F= -.34701002E+02 E0= -.34701002E+02  d E =0.690252E-04
damped:  g(F)=  0.000E+00 g(S)=  0.000E+00 dE (1.order)= 0.000E+00
 bond charge predicted
       N       E                     dE             d eps       ncg     rms          rms(c)
DAV:   1    -0.347010216857E+02   -0.20048E-04   -0.60408E-04    96   0.235E-01    0.658E-03
DAV:   2    -0.347010214905E+02    0.19514E-06   -0.81224E-06    64   0.265E-02    0.382E-03
DAV:   3    -0.347010215782E+02   -0.87644E-07   -0.14174E-06    48   0.115E-02    0.171E-03
DAV:   4    -0.347010216801E+02   -0.10191E-06   -0.41097E-07    48   0.580E-03    0.754E-04
DAV:   5    -0.347010216934E+02   -0.13287E-07   -0.10922E-07    48   0.267E-03    0.234E-04
DAV:   6    -0.347010217097E+02   -0.16299E-07   -0.51825E-08    48   0.124E-03
  21 F= -.34701022E+02 E0= -.34701022E+02  d E =-.200571E-04
damped:  g(F)=  0.000E+00 g(S)=  0.000E+00 dE (1.order)= 0.000E+00
 bond charge predicted
       N       E                     dE             d eps       ncg     rms          rms(c)
DAV:   1    -0.347012097135E+02   -0.18802E-03   -0.93580E-04    96   0.296E-01    0.792E-03
DAV:   2    -0.347012096122E+02    0.10134E-06   -0.13121E-05    64   0.333E-02    0.478E-03
DAV:   3    -0.347012096881E+02   -0.75937E-07   -0.22267E-06    48   0.146E-02    0.214E-03
DAV:   4    -0.347012098335E+02   -0.14535E-06   -0.68655E-07    48   0.761E-03    0.850E-04
DAV:   5    -0.347012098508E+02   -0.17307E-07   -0.16201E-07    48   0.353E-03    0.309E-04
DAV:   6    -0.347012098778E+02   -0.26988E-07   -0.66238E-08    48   0.165E-03
  22 F= -.34701210E+02 E0= -.34701210E+02  d E =-.188168E-03
damped:  g(F)=  0.000E+00 g(S)=  0.000E+00 dE (1.order)= 0.000E+00
 bond charge predicted
       N       E                     dE             d eps       ncg     rms          rms(c)
DAV:   1    -0.347016598219E+02   -0.44997E-03   -0.13032E-03    96   0.352E-01    0.845E-03
DAV:   2    -0.347016601743E+02   -0.35234E-06   -0.17624E-05    48   0.374E-02    0.542E-03
DAV:   3    -0.347016603674E+02   -0.19313E-06   -0.26974E-06    48   0.158E-02    0.224E-03
DAV:   4    -0.347016605426E+02   -0.17515E-06   -0.72595E-07    48   0.769E-03    0.801E-04
DAV:   5    -0.347016605731E+02   -0.30496E-07   -0.17980E-07    48   0.360E-03    0.305E-04
DAV:   6    -0.347016606144E+02   -0.41319E-07   -0.77205E-08    48   0.186E-03
  23 F= -.34701661E+02 E0= -.34701661E+02  d E =-.450737E-03
damped:  g(F)=  0.000E+00 g(S)=  0.000E+00 dE (1.order)= 0.000E+00
 bond charge predicted
       N       E                     dE             d eps       ncg     rms          rms(c)
DAV:   1    -0.347023951872E+02   -0.73461E-03   -0.17831E-03    96   0.415E-01    0.927E-03
DAV:   2    -0.347023955764E+02   -0.38921E-06   -0.21066E-05    64   0.405E-02    0.602E-03
DAV:   3    -0.347023960038E+02   -0.42744E-06   -0.30249E-06    64   0.159E-02    0.208E-03
DAV:   4    -0.347023961739E+02   -0.17009E-06   -0.71618E-07    48   0.735E-03    0.671E-04
DAV:   5    -0.347023962091E+02   -0.35163E-07   -0.20053E-07    48   0.357E-03    0.277E-04
DAV:   6    -0.347023962553E+02   -0.46196E-07   -0.86477E-08    48   0.195E-03
  24 F= -.34702396E+02 E0= -.34702396E+02  d E =-.735641E-03
damped:  g(F)=  0.000E+00 g(S)=  0.000E+00 dE (1.order)= 0.000E+00
 bond charge predicted
       N       E                     dE             d eps       ncg     rms          rms(c)
DAV:   1    -0.347034250861E+02   -0.10289E-02   -0.25397E-03    96   0.499E-01    0.119E-02
DAV:   2    -0.347034243873E+02    0.69879E-06   -0.27743E-05    64   0.476E-02    0.720E-03
DAV:   3    -0.347034247591E+02   -0.37179E-06   -0.42099E-06    80   0.190E-02    0.306E-03
DAV:   4    -0.347034250729E+02   -0.31385E-06   -0.13382E-06    64   0.104E-02    0.826E-04
DAV:   5    -0.347034251080E+02   -0.35057E-07   -0.32348E-07    48   0.496E-03    0.402E-04
DAV:   6    -0.347034251789E+02   -0.70928E-07   -0.10879E-07    48   0.249E-03
  25 F= -.34703425E+02 E0= -.34703425E+02  d E =-.102892E-02
damped:  g(F)=  0.000E+00 g(S)=  0.000E+00 dE (1.order)= 0.000E+00
 bond charge predicted
       N       E                     dE             d eps       ncg     rms          rms(c)
DAV:   1    -0.347047378876E+02   -0.13128E-02   -0.31905E-03    96   0.560E-01    0.139E-02
DAV:   2    -0.347047362991E+02    0.15885E-05   -0.32265E-05    64   0.519E-02    0.804E-03
DAV:   3    -0.347047368761E+02   -0.57705E-06   -0.51733E-06    56   0.209E-02    0.346E-03
DAV:   4    -0.347047373229E+02   -0.44677E-06   -0.17026E-06    56   0.115E-02    0.931E-04
DAV:   5    -0.347047373962E+02   -0.73290E-07   -0.41135E-07    48   0.562E-03    0.487E-04
DAV:   6    -0.347047375165E+02   -0.12025E-06   -0.14120E-07    48   0.292E-03
  26 F= -.34704738E+02 E0= -.34704738E+02  d E =-.131234E-02
damped:  g(F)=  0.000E+00 g(S)=  0.000E+00 dE (1.order)= 0.000E+00
 bond charge predicted
       N       E                     dE             d eps       ncg     rms          rms(c)
DAV:   1    -0.347062509867E+02   -0.15136E-02   -0.32895E-03    96   0.563E-01    0.140E-02
DAV:   2    -0.347062497258E+02    0.12609E-05   -0.28093E-05    64   0.467E-02    0.848E-03
DAV:   3    -0.347062511650E+02   -0.14392E-05   -0.47546E-06    64   0.185E-02    0.230E-03
DAV:   4    -0.347062515099E+02   -0.34488E-06   -0.12240E-06    48   0.847E-03    0.860E-04
DAV:   5    -0.347062516348E+02   -0.12487E-06   -0.39130E-07    48   0.450E-03    0.504E-04
DAV:   6    -0.347062518246E+02   -0.18984E-06   -0.15009E-07    48   0.248E-03
  27 F= -.34706252E+02 E0= -.34706252E+02  d E =-.151431E-02
damped:  g(F)=  0.000E+00 g(S)=  0.000E+00 dE (1.order)= 0.000E+00
 bond charge predicted
       N       E                     dE             d eps       ncg     rms          rms(c)
DAV:   1    -0.347078301608E+02   -0.15785E-02   -0.33650E-03    96   0.557E-01    0.156E-02
DAV:   2    -0.347078286502E+02    0.15106E-05   -0.29401E-05    64   0.464E-02    0.969E-03
DAV:   3    -0.347078304948E+02   -0.18447E-05   -0.65000E-06    64   0.227E-02    0.227E-03
DAV:   4    -0.347078307355E+02   -0.24065E-06   -0.15058E-06    48   0.101E-02    0.129E-03
DAV:   5    -0.347078308883E+02   -0.15282E-06   -0.41462E-07    48   0.486E-03    0.654E-04
DAV:   6    -0.347078310666E+02   -0.17833E-06   -0.16921E-07    48   0.295E-03
  28 F= -.34707831E+02 E0= -.34707831E+02  d E =-.157924E-02
damped:  g(F)=  0.000E+00 g(S)=  0.000E+00 dE (1.order)= 0.000E+00
 reached required accuracy - stopping structural energy minimisation
