unknown system                          
           1
    30.000000    0.000000    0.000000
     0.000000   30.000000    0.000000
     0.000000    0.000000   30.000000
   H    C    N 
   3   2   1
Direct configuration=     1
   0.47496206  0.46766743  0.50748495
   0.47813563  0.51130475  0.46701767
   0.46878703  0.52494481  0.52475889
   0.48522345  0.50242095  0.50190383
   0.55693352  0.48536712  0.48668092
   0.53392135  0.50697315  0.51098484
Direct configuration=     2
   0.47505471  0.46767482  0.50752292
   0.47824218  0.51134969  0.46704751
   0.46875016  0.52495119  0.52477326
   0.48523783  0.50245256  0.50193978
   0.55678550  0.48527774  0.48656970
   0.53391451  0.50695086  0.51097873
Direct configuration=     3
   0.47517006  0.46768879  0.50757149
   0.47837472  0.51140986  0.46708577
   0.46870336  0.52496425  0.52479792
   0.48525289  0.50248221  0.50198162
   0.55658338  0.48515709  0.48641963
   0.53393066  0.50692518  0.51097656
Direct configuration=     4
   0.47527850  0.46770617  0.50762126
   0.47850084  0.51147569  0.46712480
   0.46866071  0.52498223  0.52483096
   0.48526396  0.50250318  0.50202105
   0.55634408  0.48503119  0.48626184
   0.53400228  0.50689440  0.51097432
Direct configuration=     5
   0.47527402  0.46770531  0.50762029
   0.47849623  0.51147507  0.46712397
   0.46866439  0.52498185  0.52483117
   0.48526500  0.50250280  0.50202016
   0.55634613  0.48502748  0.48625751
   0.53400493  0.50690004  0.51098113
Direct configuration=     6
   0.47526475  0.46770351  0.50761813
   0.47848663  0.51147365  0.46712207
   0.46867241  0.52498102  0.52483150
   0.48526735  0.50250154  0.50201798
   0.55634710  0.48502180  0.48625079
   0.53401309  0.50691044  0.51099376
Direct configuration=     7
   0.47525063  0.46770089  0.50761459
   0.47847184  0.51147124  0.46711899
   0.46868520  0.52497966  0.52483183
   0.48527129  0.50249881  0.50201416
   0.55634326  0.48501657  0.48624442
   0.53402993  0.50692398  0.51101024
Direct configuration=     8
   0.47523181  0.46769795  0.50760964
   0.47845188  0.51146777  0.46711503
   0.46870260  0.52497791  0.52483220
   0.48527694  0.50249437  0.50200874
   0.55633357  0.48501337  0.48624039
   0.53405631  0.50693886  0.51102823
Direct configuration=     9
   0.47520963  0.46769520  0.50760342
   0.47842805  0.51146330  0.46711056
   0.46872424  0.52497578  0.52483254
   0.48528454  0.50248812  0.50200196
   0.55631725  0.48501236  0.48623881
   0.53409045  0.50695446  0.51104690
Direct configuration=    10
   0.47518565  0.46769305  0.50759602
   0.47840185  0.51145783  0.46710599
   0.46875017  0.52497315  0.52483267
   0.48529460  0.50248004  0.50199405
   0.55629499  0.48501153  0.48623736
   0.53412802  0.50697253  0.51106806
Direct configuration=    11
   0.47515974  0.46769174  0.50758681
   0.47837287  0.51145078  0.46710142
   0.46878335  0.52496948  0.52483225
   0.48530870  0.50246957  0.50198459
   0.55626569  0.48500714  0.48623174
   0.53416621  0.50699821  0.51109728
Direct configuration=    12
   0.47513549  0.46769156  0.50757623
   0.47834471  0.51144220  0.46709768
   0.46882349  0.52496444  0.52483080
   0.48532656  0.50245786  0.50197437
   0.55622852  0.48499704  0.48621950
   0.53419917  0.50703251  0.51113542
Direct configuration=    13
   0.47511866  0.46769264  0.50756540
   0.47832335  0.51143255  0.46709608
   0.46886832  0.52495796  0.52482804
   0.48534595  0.50244747  0.50196471
   0.55617628  0.48498515  0.48620525
   0.53422670  0.50706856  0.51117440
Direct configuration=    14
   0.47512004  0.46769272  0.50756557
   0.47832472  0.51143259  0.46709634
   0.46886817  0.52495795  0.52482798
   0.48534568  0.50244787  0.50196495
   0.55617418  0.48498558  0.48620576
   0.53422647  0.50706768  0.51117327
Direct configuration=    15
   0.47512284  0.46769288  0.50756590
   0.47832746  0.51143265  0.46709687
   0.46886788  0.52495793  0.52482787
   0.48534518  0.50244865  0.50196545
   0.55617006  0.48498616  0.48620657
   0.53422578  0.50706615  0.51117119
Direct configuration=    16
   0.47512709  0.46769313  0.50756638
   0.47833160  0.51143276  0.46709767
   0.46886749  0.52495792  0.52482775
   0.48534453  0.50244980  0.50196621
   0.55616409  0.48498644  0.48620726
   0.53422432  0.50706446  0.51116858
Direct configuration=    17
   0.47513276  0.46769353  0.50756702
   0.47833707  0.51143292  0.46709876
   0.46886693  0.52495797  0.52482772
   0.48534376  0.50245134  0.50196728
   0.55615693  0.48498584  0.48620733
   0.53422153  0.50706303  0.51116572
Direct configuration=    18
   0.47513973  0.46769414  0.50756782
   0.47834367  0.51143317  0.46710017
   0.46886608  0.52495817  0.52482787
   0.48534292  0.50245327  0.50196874
   0.55614933  0.48498386  0.48620642
   0.53421707  0.50706222  0.51116280
Direct configuration=    19
   0.47514778  0.46769500  0.50756874
   0.47835113  0.51143355  0.46710189
   0.46886481  0.52495860  0.52482835
   0.48534199  0.50245558  0.50197059
   0.55614196  0.48498015  0.48620447
   0.53421087  0.50706220  0.51115973
Direct configuration=    20
   0.47515764  0.46769632  0.50756991
   0.47835995  0.51143420  0.46710417
   0.46886271  0.52495944  0.52482951
   0.48534078  0.50245862  0.50197310
   0.55613471  0.48497388  0.48620144
   0.53420235  0.50706301  0.51115561
Direct configuration=    21
   0.47516920  0.46769823  0.50757130
   0.47836963  0.51143535  0.46710708
   0.46885933  0.52496095  0.52483181
   0.48533908  0.50246257  0.50197638
   0.55612826  0.48496458  0.48619814
   0.53419202  0.50706441  0.51114895
Direct configuration=    22
   0.47518175  0.46770077  0.50757286
   0.47837901  0.51143729  0.46711052
   0.46885430  0.52496329  0.52483579
   0.48533656  0.50246760  0.50198041
   0.55612343  0.48495238  0.48619637
   0.53418152  0.50706568  0.51113762
Direct configuration=    23
   0.47519453  0.46770380  0.50757459
   0.47838717  0.51144019  0.46711426
   0.46884744  0.52496655  0.52484162
   0.48533311  0.50247364  0.50198502
   0.55612005  0.48493837  0.48619767
   0.53417303  0.50706573  0.51112029
Direct configuration=    24
   0.47520647  0.46770707  0.50757646
   0.47839287  0.51144422  0.46711797
   0.46883884  0.52497067  0.52484929
   0.48532869  0.50248061  0.50199000
   0.55611886  0.48492287  0.48620265
   0.53416799  0.50706441  0.51109693
Direct configuration=    25
   0.47521604  0.46771029  0.50757839
   0.47839432  0.51144957  0.46712123
   0.46882912  0.52497537  0.52485863
   0.48532374  0.50248833  0.50199484
   0.55612254  0.48490453  0.48620996
   0.53416604  0.50706366  0.51107007
Direct configuration=    26
   0.47522183  0.46771320  0.50758018
   0.47839020  0.51145616  0.46712373
   0.46881984  0.52497992  0.52486872
   0.48531926  0.50249629  0.50199882
   0.55613358  0.48488187  0.48621684
   0.53416492  0.50706644  0.51104464
Direct configuration=    27
   0.47522255  0.46771586  0.50758156
   0.47837941  0.51146373  0.46712541
   0.46881305  0.52498327  0.52487829
   0.48531595  0.50250376  0.50200103
   0.55615145  0.48485689  0.48622372
   0.53416494  0.50707261  0.51102273
Direct configuration=    28
   0.47522255  0.46771586  0.50758156
   0.47837941  0.51146373  0.46712541
   0.46881305  0.52498327  0.52487829
   0.48531595  0.50250376  0.50200103
   0.55615145  0.48485689  0.48622372
   0.53416494  0.50707261  0.51102273
