   6   6   0   0
  0.4500000E+04  0.3000000E-08  0.3000000E-08  0.3000000E-08  0.0000000E+00
  1.000000000000000E-004
  CAR 
 unknown system                          
      2.02544336    -25.88923847  301     -6.16249984      1.00000000
    -25.889  0.0000E+00  0.0000E+00
    -25.796  0.0000E+00  0.0000E+00
    -25.703  0.0000E+00  0.0000E+00
    -25.610  0.0000E+00  0.0000E+00
    -25.517  0.0000E+00  0.0000E+00
    -25.424  0.0000E+00  0.0000E+00
    -25.331  0.0000E+00  0.0000E+00
    -25.238  0.0000E+00  0.0000E+00
    -25.145  0.0000E+00  0.0000E+00
    -25.052  0.7954E-17  0.7401E-18
    -24.959  0.1408E-14  0.1317E-15
    -24.866  0.1789E-12  0.1678E-13
    -24.773  0.1484E-10  0.1398E-11
    -24.680  0.8044E-09  0.7625E-10
    -24.587  0.2852E-07  0.2730E-08
    -24.494  0.6621E-06  0.6434E-07
    -24.400  0.1007E-04  0.1002E-05
    -24.307  0.1006E-03  0.1036E-04
    -24.214  0.6592E-03  0.7169E-04
    -24.121  0.2841E-02  0.3360E-03
    -24.028  0.8053E-02  0.1085E-02
    -23.935  0.1503E-01  0.2484E-02
    -23.842  0.1847E-01  0.4203E-02
    -23.749  0.1495E-01  0.5594E-02
    -23.656  0.7973E-02  0.6336E-02
    -23.563  0.2799E-02  0.6596E-02
    -23.470  0.6462E-03  0.6657E-02
    -23.377  0.9809E-04  0.6666E-02
    -23.284  0.9778E-05  0.6667E-02
    -23.191  0.6395E-06  0.6667E-02
    -23.098  0.2741E-07  0.6667E-02
    -23.005  0.7691E-09  0.6667E-02
    -22.912  0.1412E-10  0.6667E-02
    -22.819  0.1693E-12  0.6667E-02
    -22.726  0.1328E-14  0.6667E-02
    -22.633  0.7954E-17  0.6667E-02
    -22.539  0.0000E+00  0.6667E-02
    -22.446  0.0000E+00  0.6667E-02
    -22.353  0.0000E+00  0.6667E-02
    -22.260  0.0000E+00  0.6667E-02
    -22.167  0.0000E+00  0.6667E-02
    -22.074  0.0000E+00  0.6667E-02
    -21.981  0.0000E+00  0.6667E-02
    -21.888  0.0000E+00  0.6667E-02
    -21.795  0.0000E+00  0.6667E-02
    -21.702  0.0000E+00  0.6667E-02
    -21.609  0.0000E+00  0.6667E-02
    -21.516  0.0000E+00  0.6667E-02
    -21.423  0.0000E+00  0.6667E-02
    -21.330  0.0000E+00  0.6667E-02
    -21.237  0.0000E+00  0.6667E-02
    -21.144  0.0000E+00  0.6667E-02
    -21.051  0.0000E+00  0.6667E-02
    -20.958  0.0000E+00  0.6667E-02
    -20.865  0.0000E+00  0.6667E-02
    -20.772  0.0000E+00  0.6667E-02
    -20.678  0.0000E+00  0.6667E-02
    -20.585  0.0000E+00  0.6667E-02
    -20.492  0.0000E+00  0.6667E-02
    -20.399  0.2466E-15  0.6667E-02
    -20.306  0.3592E-13  0.6667E-02
    -20.213  0.3446E-11  0.6667E-02
    -20.120  0.2159E-09  0.6667E-02
    -20.027  0.8850E-08  0.6667E-02
    -19.934  0.2374E-06  0.6667E-02
    -19.841  0.4171E-05  0.6667E-02
    -19.748  0.4807E-04  0.6672E-02
    -19.655  0.3637E-03  0.6705E-02
    -19.562  0.1808E-02  0.6874E-02
    -19.469  0.5914E-02  0.7424E-02
    -19.376  0.1273E-01  0.8609E-02
    -19.283  0.1804E-01  0.1029E-01
    -19.190  0.1685E-01  0.1185E-01
    -19.097  0.1036E-01  0.1282E-01
    -19.004  0.4193E-02  0.1321E-01
    -18.911  0.1117E-02  0.1331E-01
    -18.818  0.1957E-03  0.1333E-01
    -18.724  0.2252E-04  0.1333E-01
    -18.631  0.1701E-05  0.1333E-01
    -18.538  0.8423E-07  0.1333E-01
    -18.445  0.2732E-08  0.1333E-01
    -18.352  0.5796E-10  0.1333E-01
    -18.259  0.8040E-12  0.1333E-01
    -18.166  0.7278E-14  0.1333E-01
    -18.073  0.4773E-16  0.1333E-01
    -17.980  0.0000E+00  0.1333E-01
    -17.887  0.0000E+00  0.1333E-01
    -17.794  0.0000E+00  0.1333E-01
    -17.701  0.0000E+00  0.1333E-01
    -17.608  0.0000E+00  0.1333E-01
    -17.515  0.0000E+00  0.1333E-01
    -17.422  0.0000E+00  0.1333E-01
    -17.329  0.0000E+00  0.1333E-01
    -17.236  0.0000E+00  0.1333E-01
    -17.143  0.0000E+00  0.1333E-01
    -17.050  0.0000E+00  0.1333E-01
    -16.957  0.0000E+00  0.1333E-01
    -16.863  0.0000E+00  0.1333E-01
    -16.770  0.0000E+00  0.1333E-01
    -16.677  0.0000E+00  0.1333E-01
    -16.584  0.0000E+00  0.1333E-01
    -16.491  0.0000E+00  0.1333E-01
    -16.398  0.0000E+00  0.1333E-01
    -16.305  0.0000E+00  0.1333E-01
    -16.212  0.0000E+00  0.1333E-01
    -16.119  0.0000E+00  0.1333E-01
    -16.026  0.0000E+00  0.1333E-01
    -15.933  0.0000E+00  0.1333E-01
    -15.840  0.0000E+00  0.1333E-01
    -15.747  0.0000E+00  0.1333E-01
    -15.654  0.0000E+00  0.1333E-01
    -15.561  0.0000E+00  0.1333E-01
    -15.468  0.0000E+00  0.1333E-01
    -15.375  0.0000E+00  0.1333E-01
    -15.282  0.0000E+00  0.1333E-01
    -15.189  0.0000E+00  0.1333E-01
    -15.096  0.0000E+00  0.1333E-01
    -15.003  0.7954E-16  0.1333E-01
    -14.909  0.1258E-13  0.1333E-01
    -14.816  0.1325E-11  0.1333E-01
    -14.723  0.9106E-10  0.1333E-01
    -14.630  0.4092E-08  0.1333E-01
    -14.537  0.1204E-06  0.1333E-01
    -14.444  0.2318E-05  0.1333E-01
    -14.351  0.2928E-04  0.1334E-01
    -14.258  0.2428E-03  0.1336E-01
    -14.165  0.1322E-02  0.1348E-01
    -14.072  0.4737E-02  0.1392E-01
    -13.979  0.1117E-01  0.1496E-01
    -13.886  0.1733E-01  0.1657E-01
    -13.793  0.1772E-01  0.1822E-01
    -13.700  0.1193E-01  0.1933E-01
    -13.607  0.5289E-02  0.1983E-01
    -13.514  0.1543E-02  0.1997E-01
    -13.421  0.2962E-03  0.2000E-01
    -13.328  0.3735E-04  0.2000E-01
    -13.235  0.3092E-05  0.2000E-01
    -13.142  0.1678E-06  0.2000E-01
    -13.048  0.5968E-08  0.2000E-01
    -12.955  0.1389E-09  0.2000E-01
    -12.862  0.2117E-11  0.2000E-01
    -12.769  0.4874E-12  0.2000E-01
    -12.676  0.3773E-10  0.2000E-01
    -12.583  0.1995E-08  0.2000E-01
    -12.490  0.6902E-07  0.2000E-01
    -12.397  0.1564E-05  0.2000E-01
    -12.304  0.2322E-04  0.2000E-01
    -12.211  0.2262E-03  0.2002E-01
    -12.118  0.1448E-02  0.2016E-01
    -12.025  0.6092E-02  0.2072E-01
    -11.932  0.1687E-01  0.2229E-01
    -11.839  0.3074E-01  0.2515E-01
    -11.746  0.3691E-01  0.2859E-01
    -11.653  0.2919E-01  0.3131E-01
    -11.560  0.1521E-01  0.3272E-01
    -11.467  0.5215E-02  0.3321E-01
    -11.374  0.1177E-02  0.3332E-01
    -11.281  0.1745E-03  0.3333E-01
    -11.188  0.1700E-04  0.3333E-01
    -11.094  0.1087E-05  0.3333E-01
    -11.001  0.4552E-07  0.3333E-01
    -10.908  0.1249E-08  0.3333E-01
    -10.815  0.2240E-10  0.3333E-01
    -10.722  0.2626E-12  0.3333E-01
    -10.629  0.2020E-14  0.3333E-01
    -10.536  0.0000E+00  0.3333E-01
    -10.443  0.0000E+00  0.3333E-01
    -10.350  0.0000E+00  0.3333E-01
    -10.257  0.0000E+00  0.3333E-01
    -10.164  0.0000E+00  0.3333E-01
    -10.071  0.0000E+00  0.3333E-01
     -9.978  0.0000E+00  0.3333E-01
     -9.885  0.0000E+00  0.3333E-01
     -9.792  0.0000E+00  0.3333E-01
     -9.699  0.0000E+00  0.3333E-01
     -9.606  0.0000E+00  0.3333E-01
     -9.513  0.0000E+00  0.3333E-01
     -9.420  0.2028E-15  0.3333E-01
     -9.327  0.3213E-13  0.3333E-01
     -9.233  0.3309E-11  0.3333E-01
     -9.140  0.2226E-09  0.3333E-01
     -9.047  0.9792E-08  0.3333E-01
     -8.954  0.2819E-06  0.3333E-01
     -8.861  0.5315E-05  0.3333E-01
     -8.768  0.6573E-04  0.3334E-01
     -8.675  0.5335E-03  0.3339E-01
     -8.582  0.2846E-02  0.3365E-01
     -8.489  0.9983E-02  0.3458E-01
     -8.396  0.2305E-01  0.3673E-01
     -8.303  0.3504E-01  0.3999E-01
     -8.210  0.3509E-01  0.4325E-01
     -8.117  0.2314E-01  0.4541E-01
     -8.024  0.1005E-01  0.4634E-01
     -7.931  0.2874E-02  0.4661E-01
     -7.838  0.5404E-03  0.4666E-01
     -7.745  0.6748E-04  0.4667E-01
     -7.652  0.1629E-04  0.4667E-01
     -7.559  0.1074E-03  0.4668E-01
     -7.466  0.6935E-03  0.4674E-01
     -7.372  0.2950E-02  0.4702E-01
     -7.279  0.8258E-02  0.4779E-01
     -7.186  0.1522E-01  0.4920E-01
     -7.093  0.1847E-01  0.5092E-01
     -7.000  0.1476E-01  0.5229E-01
     -6.907  0.7771E-02  0.5302E-01
     -6.814  0.2693E-02  0.5327E-01
     -6.721  0.6139E-03  0.5332E-01
     -6.628  0.9200E-04  0.5333E-01
     -6.535  0.9054E-05  0.5333E-01
     -6.442  0.5846E-06  0.5333E-01
     -6.349  0.2473E-07  0.5333E-01
     -6.256  0.6852E-09  0.5333E-01
     -6.163  0.1241E-10  0.5333E-01
     -6.070  0.1470E-12  0.5333E-01
     -5.977  0.1145E-14  0.5333E-01
     -5.884  0.0000E+00  0.5333E-01
     -5.791  0.0000E+00  0.5333E-01
     -5.698  0.0000E+00  0.5333E-01
     -5.605  0.0000E+00  0.5333E-01
     -5.512  0.0000E+00  0.5333E-01
     -5.418  0.0000E+00  0.5333E-01
     -5.325  0.0000E+00  0.5333E-01
     -5.232  0.0000E+00  0.5333E-01
     -5.139  0.0000E+00  0.5333E-01
     -5.046  0.0000E+00  0.5333E-01
     -4.953  0.0000E+00  0.5333E-01
     -4.860  0.0000E+00  0.5333E-01
     -4.767  0.0000E+00  0.5333E-01
     -4.674  0.0000E+00  0.5333E-01
     -4.581  0.0000E+00  0.5333E-01
     -4.488  0.0000E+00  0.5333E-01
     -4.395  0.0000E+00  0.5333E-01
     -4.302  0.0000E+00  0.5333E-01
     -4.209  0.0000E+00  0.5333E-01
     -4.116  0.0000E+00  0.5333E-01
     -4.023  0.0000E+00  0.5333E-01
     -3.930  0.0000E+00  0.5333E-01
     -3.837  0.0000E+00  0.5333E-01
     -3.744  0.0000E+00  0.5333E-01
     -3.651  0.0000E+00  0.5333E-01
     -3.557  0.0000E+00  0.5333E-01
     -3.464  0.0000E+00  0.5333E-01
     -3.371  0.0000E+00  0.5333E-01
     -3.278  0.0000E+00  0.5333E-01
     -3.185  0.0000E+00  0.5333E-01
     -3.092  0.0000E+00  0.5333E-01
     -2.999  0.0000E+00  0.5333E-01
     -2.906  0.0000E+00  0.5333E-01
     -2.813  0.0000E+00  0.5333E-01
     -2.720  0.0000E+00  0.5333E-01
     -2.627  0.0000E+00  0.5333E-01
     -2.534  0.0000E+00  0.5333E-01
     -2.441  0.0000E+00  0.5333E-01
     -2.348  0.0000E+00  0.5333E-01
     -2.255  0.0000E+00  0.5333E-01
     -2.162  0.0000E+00  0.5333E-01
     -2.069  0.0000E+00  0.5333E-01
     -1.976  0.0000E+00  0.5333E-01
     -1.883  0.1034E-15  0.5333E-01
     -1.790  0.1608E-13  0.5333E-01
     -1.697  0.1664E-11  0.5333E-01
     -1.603  0.1128E-09  0.5333E-01
     -1.510  0.5018E-08  0.5333E-01
     -1.417  0.1470E-06  0.5333E-01
     -1.324  0.2846E-05  0.5333E-01
     -1.231  0.3666E-04  0.5334E-01
     -1.138  0.3165E-03  0.5337E-01
     -1.045  0.1848E-02  0.5354E-01
     -0.952  0.7379E-02  0.5423E-01
     -0.859  0.2033E-01  0.5612E-01
     -0.766  0.3887E-01  0.5973E-01
     -0.673  0.5163E-01  0.6454E-01
     -0.580  0.4742E-01  0.6895E-01
     -0.487  0.2987E-01  0.7173E-01
     -0.394  0.1287E-01  0.7293E-01
     -0.301  0.4321E-02  0.7333E-01
     -0.208  0.3510E-02  0.7366E-01
     -0.115  0.8075E-02  0.7441E-01
     -0.022  0.1497E-01  0.7580E-01
      0.071  0.1847E-01  0.7752E-01
      0.164  0.1502E-01  0.7892E-01
      0.258  0.8041E-02  0.7966E-01
      0.351  0.2834E-02  0.7993E-01
      0.444  0.6572E-03  0.7999E-01
      0.537  0.1002E-03  0.8000E-01
      0.630  0.1003E-04  0.8000E-01
      0.723  0.6587E-06  0.8000E-01
      0.816  0.2835E-07  0.8000E-01
      0.909  0.7990E-09  0.8000E-01
      1.002  0.1473E-10  0.8000E-01
      1.095  0.1774E-12  0.8000E-01
      1.188  0.1396E-14  0.8000E-01
      1.281  0.7954E-17  0.8000E-01
      1.374  0.0000E+00  0.8000E-01
      1.467  0.0000E+00  0.8000E-01
      1.560  0.0000E+00  0.8000E-01
      1.653  0.0000E+00  0.8000E-01
      1.746  0.0000E+00  0.8000E-01
      1.839  0.0000E+00  0.8000E-01
      1.932  0.0000E+00  0.8000E-01
      2.025  0.0000E+00  0.8000E-01
