    6    6  300    1
  0.4500000E+04  0.3000000E-08  0.3000000E-08  0.3000000E-08  0.0000000E+00
  1.000000000000000E-004
  CAR 
 unknown system                          
     16      4     12
 
  0.2500000E+00  0.2500000E+00  0.2500000E+00  0.2500000E+00
    1      -23.889238   1.000000
    2      -19.298080   1.000000
    3      -13.881010   1.000000
    4      -11.800339   1.000000
    5      -11.795836   1.000000
    6       -8.304354   1.000000
    7       -8.301004   1.000000
    8       -7.143265   1.000000
    9       -0.765672   0.000000
   10       -0.664183   0.000000
   11       -0.659317   0.000000
   12        0.025204   0.000000
 
 -0.2500000E+00  0.2500000E+00  0.2500000E+00  0.2500000E+00
    1      -23.889238   1.000000
    2      -19.298079   1.000000
    3      -13.881009   1.000000
    4      -11.800343   1.000000
    5      -11.795838   1.000000
    6       -8.304348   1.000000
    7       -8.301000   1.000000
    8       -7.143268   1.000000
    9       -0.765673   0.000000
   10       -0.664181   0.000000
   11       -0.659323   0.000000
   12        0.025443   0.000000
 
  0.2500000E+00 -0.2500000E+00  0.2500000E+00  0.2500000E+00
    1      -23.889238   1.000000
    2      -19.298078   1.000000
    3      -13.881009   1.000000
    4      -11.800353   1.000000
    5      -11.795835   1.000000
    6       -8.304339   1.000000
    7       -8.301011   1.000000
    8       -7.143267   1.000000
    9       -0.765672   0.000000
   10       -0.664184   0.000000
   11       -0.659318   0.000000
   12        0.025214   0.000000
 
 -0.2500000E+00 -0.2500000E+00  0.2500000E+00  0.2500000E+00
    1      -23.889238   1.000000
    2      -19.298079   1.000000
    3      -13.881009   1.000000
    4      -11.800352   1.000000
    5      -11.795835   1.000000
    6       -8.304338   1.000000
    7       -8.301016   1.000000
    8       -7.143265   1.000000
    9       -0.765672   0.000000
   10       -0.664181   0.000000
   11       -0.659320   0.000000
   12        0.025246   0.000000
