       N       E                     dE             d eps       ncg     rms          rms(c)
DAV:   1     0.114073404880E+03    0.11407E+03   -0.21350E+03   160   0.366E+02
DAV:   2    -0.159833927605E+01   -0.11567E+03   -0.11337E+03   192   0.109E+02
DAV:   3    -0.348537900448E+02   -0.33255E+02   -0.33179E+02   152   0.862E+01
DAV:   4    -0.389893867861E+02   -0.41356E+01   -0.41062E+01   136   0.269E+01
DAV:   5    -0.390951203745E+02   -0.10573E+00   -0.10444E+00   112   0.462E+00    0.104E+01
DAV:   6    -0.364071392867E+02    0.26880E+01   -0.45296E+00   116   0.148E+01    0.562E+00
DAV:   7    -0.357086473669E+02    0.69849E+00   -0.17986E+00   128   0.922E+00    0.224E+00
DAV:   8    -0.356380747747E+02    0.70573E-01   -0.14235E-01   128   0.287E+00    0.878E-01
DAV:   9    -0.356199035130E+02    0.18171E-01   -0.21293E-02   124   0.123E+00    0.217E-01
DAV:  10    -0.356196742104E+02    0.22930E-03   -0.42158E-03   124   0.510E-01    0.131E-01
DAV:  11    -0.356213048466E+02   -0.16306E-02   -0.16986E-03   128   0.339E-01    0.807E-02
DAV:  12    -0.356270347968E+02   -0.57300E-02   -0.31119E-03   120   0.424E-01    0.460E-02
DAV:  13    -0.356330216647E+02   -0.59869E-02   -0.16228E-03   124   0.248E-01    0.285E-02
DAV:  14    -0.356369410784E+02   -0.39194E-02   -0.47818E-04   128   0.117E-01    0.185E-02
DAV:  15    -0.356402797556E+02   -0.33387E-02   -0.37148E-04   128   0.885E-02    0.119E-02
DAV:  16    -0.356414727191E+02   -0.11930E-02   -0.10603E-04   128   0.527E-02    0.658E-03
DAV:  17    -0.356422856400E+02   -0.81292E-03   -0.26343E-05    84   0.362E-02    0.405E-03
DAV:  18    -0.356426668951E+02   -0.38126E-03   -0.27140E-05    72   0.239E-02    0.274E-03
DAV:  19    -0.356429022813E+02   -0.23539E-03   -0.10555E-05    80   0.217E-02    0.295E-03
DAV:  20    -0.356429384246E+02   -0.36143E-04   -0.27776E-06    96   0.123E-02
   1 F= -.35642938E+02 E0= -.35642938E+02  d E =-.356429E+02
       N       E                     dE             d eps       ncg     rms          rms(c)
DAV:   1    -0.356430333546E+02   -0.13107E-03   -0.50893E-03   100   0.690E-01    0.268E-02
DAV:   2    -0.356430372105E+02   -0.38559E-05   -0.10829E-04    96   0.937E-02    0.139E-02
DAV:   3    -0.356430432294E+02   -0.60189E-05   -0.20107E-05    64   0.434E-02    0.766E-03
DAV:   4    -0.356430534743E+02   -0.10245E-04   -0.10084E-05    68   0.302E-02    0.277E-03
DAV:   5    -0.356430584690E+02   -0.49947E-05   -0.18027E-06    88   0.138E-02    0.150E-03
DAV:   6    -0.356430623298E+02   -0.38608E-05   -0.44627E-07    72   0.638E-03
   2 F= -.35643062E+02 E0= -.35643062E+02  d E =-.123905E-03
       N       E                     dE             d eps       ncg     rms          rms(c)
DAV:   1    -0.356430962513E+02   -0.37782E-04   -0.40468E-04    96   0.193E-01    0.866E-03
DAV:   2    -0.356430968481E+02   -0.59684E-06   -0.92788E-06    72   0.284E-02    0.445E-03
DAV:   3    -0.356430980029E+02   -0.11548E-05   -0.22125E-06    56   0.147E-02    0.219E-03
DAV:   4    -0.356430997955E+02   -0.17926E-05   -0.10978E-06    64   0.976E-03    0.827E-04
DAV:   5    -0.356431009456E+02   -0.11502E-05   -0.20779E-07    64   0.458E-03    0.410E-04
DAV:   6    -0.356431018019E+02   -0.85629E-06   -0.52076E-08    48   0.202E-03
   3 F= -.35643102E+02 E0= -.35643102E+02  d E =-.394722E-04
       N       E                     dE             d eps       ncg     rms          rms(c)
DAV:   1    -0.356431252801E+02   -0.24334E-04   -0.94340E-04    96   0.296E-01    0.117E-02
DAV:   2    -0.356431241405E+02    0.11395E-05   -0.20291E-05    64   0.406E-02    0.639E-03
DAV:   3    -0.356431238818E+02    0.25872E-06   -0.43229E-06    48   0.204E-02    0.328E-03
DAV:   4    -0.356431243942E+02   -0.51242E-06   -0.21525E-06    64   0.136E-02    0.125E-03
DAV:   5    -0.356431247162E+02   -0.32197E-06   -0.39246E-07    48   0.634E-03    0.632E-04
DAV:   6    -0.356431249793E+02   -0.26311E-06   -0.10247E-07    64   0.281E-03
   4 F= -.35643125E+02 E0= -.35643125E+02  d E =-.231774E-04
       N       E                     dE             d eps       ncg     rms          rms(c)
DAV:   1    -0.356431424877E+02   -0.17772E-04   -0.95489E-04    96   0.293E-01    0.807E-03
DAV:   2    -0.356431421601E+02    0.32760E-06   -0.12709E-05    48   0.305E-02    0.513E-03
DAV:   3    -0.356431421266E+02    0.33500E-07   -0.22007E-06    48   0.143E-02    0.224E-03
DAV:   4    -0.356431423829E+02   -0.25630E-06   -0.85241E-07    64   0.838E-03    0.869E-04
DAV:   5    -0.356431425261E+02   -0.14320E-06   -0.17309E-07    48   0.385E-03    0.356E-04
DAV:   6    -0.356431426582E+02   -0.13207E-06   -0.64545E-08    64   0.188E-03
   5 F= -.35643143E+02 E0= -.35643143E+02  d E =-.176789E-04
       N       E                     dE             d eps       ncg     rms          rms(c)
DAV:   1    -0.356431873244E+02   -0.44798E-04   -0.13209E-03    96   0.340E-01    0.788E-03
DAV:   2    -0.356431873044E+02    0.20052E-07   -0.12017E-05    64   0.286E-02    0.503E-03
DAV:   3    -0.356431877317E+02   -0.42738E-06   -0.19897E-06    96   0.125E-02    0.113E-03
DAV:   4    -0.356431878681E+02   -0.13640E-06   -0.44126E-07    48   0.539E-03    0.522E-04
DAV:   5    -0.356431879586E+02   -0.90470E-07   -0.12747E-07    48   0.256E-03    0.199E-04
DAV:   6    -0.356431880297E+02   -0.71061E-07   -0.56642E-08    48   0.147E-03
   6 F= -.35643188E+02 E0= -.35643188E+02  d E =-.453715E-04
       N       E                     dE             d eps       ncg     rms          rms(c)
DAV:   1    -0.356432429621E+02   -0.55004E-04   -0.22873E-03    96   0.455E-01    0.125E-02
DAV:   2    -0.356432424816E+02    0.48055E-06   -0.30745E-05    64   0.480E-02    0.755E-03
DAV:   3    -0.356432423475E+02    0.13407E-06   -0.50488E-06    96   0.212E-02    0.352E-03
DAV:   4    -0.356432426497E+02   -0.30216E-06   -0.19503E-06    64   0.131E-02    0.119E-03
DAV:   5    -0.356432426785E+02   -0.28799E-07   -0.38945E-07    48   0.590E-03    0.572E-04
DAV:   6    -0.356432427256E+02   -0.47152E-07   -0.12710E-07    64   0.300E-03
   7 F= -.35643243E+02 E0= -.35643243E+02  d E =-.546960E-04
       N       E                     dE             d eps       ncg     rms          rms(c)
DAV:   1    -0.356432822947E+02   -0.39616E-04   -0.28360E-03    96   0.504E-01    0.129E-02
DAV:   2    -0.356432818685E+02    0.42618E-06   -0.33190E-05    64   0.492E-02    0.798E-03
DAV:   3    -0.356432819273E+02   -0.58765E-07   -0.53811E-06    48   0.215E-02    0.333E-03
DAV:   4    -0.356432822870E+02   -0.35975E-06   -0.17725E-06    48   0.122E-02    0.113E-03
DAV:   5    -0.356432823577E+02   -0.70688E-07   -0.37748E-07    48   0.551E-03    0.507E-04
DAV:   6    -0.356432824597E+02   -0.10197E-06   -0.13109E-07    48   0.290E-03
   8 F= -.35643282E+02 E0= -.35643282E+02  d E =-.397341E-04
       N       E                     dE             d eps       ncg     rms          rms(c)
DAV:   1    -0.356433373695E+02   -0.55012E-04   -0.35332E-03    96   0.554E-01    0.124E-02
DAV:   2    -0.356433372188E+02    0.15076E-06   -0.29789E-05    64   0.441E-02    0.808E-03
DAV:   3    -0.356433383028E+02   -0.10841E-05   -0.49718E-06    64   0.192E-02    0.126E-03
DAV:   4    -0.356433384594E+02   -0.15654E-06   -0.98991E-07    48   0.763E-03    0.778E-04
DAV:   5    -0.356433386337E+02   -0.17427E-06   -0.31183E-07    48   0.385E-03    0.232E-04
DAV:   6    -0.356433387668E+02   -0.13319E-06   -0.12528E-07    48   0.215E-03
   9 F= -.35643339E+02 E0= -.35643339E+02  d E =-.563072E-04
       N       E                     dE             d eps       ncg     rms          rms(c)
DAV:   1    -0.356434020807E+02   -0.63447E-04   -0.53362E-03    96   0.688E-01    0.170E-02
DAV:   2    -0.356434013580E+02    0.72273E-06   -0.59801E-05    68   0.653E-02    0.111E-02
DAV:   3    -0.356434016166E+02   -0.25859E-06   -0.10187E-05    96   0.301E-02    0.403E-03
DAV:   4    -0.356434023190E+02   -0.70245E-06   -0.30154E-06    64   0.154E-02    0.169E-03
DAV:   5    -0.356434024898E+02   -0.17077E-06   -0.62408E-07    48   0.711E-03    0.655E-04
DAV:   6    -0.356434026477E+02   -0.15791E-06   -0.22952E-07    64   0.382E-03
  10 F= -.35643403E+02 E0= -.35643403E+02  d E =-.638809E-04
       N       E                     dE             d eps       ncg     rms          rms(c)
DAV:   1    -0.356434551517E+02   -0.52662E-04   -0.67193E-03    96   0.765E-01    0.172E-02
DAV:   2    -0.356434548689E+02    0.28278E-06   -0.59211E-05    80   0.630E-02    0.112E-02
DAV:   3    -0.356434566430E+02   -0.17742E-05   -0.99708E-06    64   0.281E-02    0.202E-03
DAV:   4    -0.356434569721E+02   -0.32907E-06   -0.20866E-06    48   0.116E-02    0.127E-03
DAV:   5    -0.356434571918E+02   -0.21966E-06   -0.59261E-07    48   0.571E-03    0.483E-04
DAV:   6    -0.356434573928E+02   -0.20107E-06   -0.23752E-07    48   0.331E-03
  11 F= -.35643457E+02 E0= -.35643457E+02  d E =-.547451E-04
       N       E                     dE             d eps       ncg     rms          rms(c)
DAV:   1    -0.356435210376E+02   -0.63846E-04   -0.86550E-03    96   0.876E-01    0.208E-02
DAV:   2    -0.356435209587E+02    0.78910E-07   -0.88725E-05    64   0.792E-02    0.134E-02
DAV:   3    -0.356435221659E+02   -0.12072E-05   -0.13991E-05    96   0.341E-02    0.470E-03
DAV:   4    -0.356435231478E+02   -0.98187E-06   -0.38964E-06    64   0.171E-02    0.163E-03
DAV:   5    -0.356435233640E+02   -0.21622E-06   -0.91851E-07    88   0.800E-03    0.653E-04
DAV:   6    -0.356435235578E+02   -0.19376E-06   -0.31630E-07    48   0.428E-03
  12 F= -.35643524E+02 E0= -.35643524E+02  d E =-.661649E-04
       N       E                     dE             d eps       ncg     rms          rms(c)
DAV:   1    -0.356435732570E+02   -0.49893E-04   -0.88220E-03    96   0.880E-01    0.191E-02
DAV:   2    -0.356435737428E+02   -0.48581E-06   -0.75289E-05    80   0.713E-02    0.125E-02
DAV:   3    -0.356435763209E+02   -0.25781E-05   -0.11823E-05    64   0.296E-02    0.206E-03
DAV:   4    -0.356435767315E+02   -0.41059E-06   -0.24899E-06    48   0.120E-02    0.115E-03
DAV:   5    -0.356435770620E+02   -0.33050E-06   -0.80081E-07    48   0.615E-03    0.335E-04
DAV:   6    -0.356435772927E+02   -0.23073E-06   -0.30889E-07    48   0.339E-03
  13 F= -.35643577E+02 E0= -.35643577E+02  d E =-.537350E-04
       N       E                     dE             d eps       ncg     rms          rms(c)
DAV:   1    -0.356435789090E+02   -0.18470E-05   -0.12213E-05    48   0.341E-02    0.136E-03
DAV:   2    -0.356435790682E+02   -0.15926E-06   -0.81165E-07    48   0.868E-03    0.759E-04
DAV:   3    -0.356435791747E+02   -0.10648E-06   -0.11307E-07    48   0.296E-03    0.516E-04
DAV:   4    -0.356435793753E+02   -0.20059E-06   -0.68256E-08    84   0.237E-03    0.155E-04
DAV:   5    -0.356435794523E+02   -0.77069E-07   -0.31280E-08    48   0.117E-03    0.125E-04
DAV:   6    -0.356435795249E+02   -0.72520E-07   -0.19576E-08    48   0.571E-04
  14 F= -.35643580E+02 E0= -.35643580E+02  d E =-.223216E-05
       N       E                     dE             d eps       ncg     rms          rms(c)
DAV:   1    -0.356435804579E+02   -0.10055E-05   -0.35401E-05    48   0.580E-02    0.221E-03
DAV:   2    -0.356435805939E+02   -0.13608E-06   -0.21499E-06    80   0.144E-02    0.127E-03
DAV:   3    -0.356435806103E+02   -0.16392E-07   -0.24747E-07    48   0.462E-03    0.875E-04
DAV:   4    -0.356435806603E+02   -0.49948E-07   -0.13562E-07    60   0.377E-03    0.247E-04
DAV:   5    -0.356435806907E+02   -0.30407E-07   -0.53165E-08    48   0.185E-03    0.212E-04
DAV:   6    -0.356435807160E+02   -0.25356E-07   -0.22964E-08    48   0.851E-04
  15 F= -.35643581E+02 E0= -.35643581E+02  d E =-.119116E-05
       N       E                     dE             d eps       ncg     rms          rms(c)
DAV:   1    -0.356435798189E+02    0.87181E-06   -0.50520E-05    48   0.679E-02    0.226E-03
DAV:   2    -0.356435799752E+02   -0.15636E-06   -0.28231E-06    60   0.166E-02    0.134E-03
DAV:   3    -0.356435799830E+02   -0.78230E-08   -0.33010E-07    48   0.521E-03    0.910E-04
DAV:   4    -0.356435799974E+02   -0.14311E-07   -0.14012E-07    48   0.374E-03    0.254E-04
DAV:   5    -0.356435800089E+02   -0.11586E-07   -0.59851E-08    48   0.184E-03    0.214E-04
DAV:   6    -0.356435800191E+02   -0.10198E-07   -0.26841E-08    48   0.882E-04
  16 F= -.35643580E+02 E0= -.35643580E+02  d E =0.696891E-06
       N       E                     dE             d eps       ncg     rms          rms(c)
DAV:   1    -0.356435779742E+02    0.20347E-05   -0.75794E-05    64   0.781E-02    0.229E-03
DAV:   2    -0.356435782031E+02   -0.22888E-06   -0.34534E-06    48   0.183E-02    0.132E-03
DAV:   3    -0.356435782638E+02   -0.60659E-07   -0.41313E-07    48   0.547E-03    0.602E-04
DAV:   4    -0.356435782868E+02   -0.22977E-07   -0.12371E-07    48   0.275E-03    0.159E-04
DAV:   5    -0.356435782940E+02   -0.72030E-08   -0.52671E-08    48   0.132E-03    0.134E-04
DAV:   6    -0.356435782998E+02   -0.58592E-08   -0.30097E-08    48   0.720E-04
  17 F= -.35643578E+02 E0= -.35643578E+02  d E =0.171932E-05
       N       E                     dE             d eps       ncg     rms          rms(c)
DAV:   1    -0.356435760091E+02    0.22849E-05   -0.16607E-04    96   0.110E-01    0.320E-03
DAV:   2    -0.356435759676E+02    0.41468E-07   -0.17625E-06    48   0.106E-02    0.199E-03
DAV:   3    -0.356435760318E+02   -0.64226E-07   -0.33339E-07    56   0.496E-03    0.394E-04
DAV:   4    -0.356435760447E+02   -0.12844E-07   -0.91038E-08    48   0.207E-03    0.235E-04
DAV:   5    -0.356435760518E+02   -0.71084E-08   -0.39353E-08    48   0.934E-04    0.946E-05
DAV:   6    -0.356435760584E+02   -0.66580E-08   -0.28750E-08    48   0.547E-04
  18 F= -.35643576E+02 E0= -.35643576E+02  d E =0.224137E-05
       N       E                     dE             d eps       ncg     rms          rms(c)
DAV:   1    -0.356435721253E+02    0.39265E-05   -0.34532E-04    96   0.160E-01    0.472E-03
DAV:   2    -0.356435720272E+02    0.98156E-07   -0.39131E-06    64   0.161E-02    0.296E-03
DAV:   3    -0.356435721051E+02   -0.77965E-07   -0.71742E-07    48   0.770E-03    0.774E-04
DAV:   4    -0.356435721408E+02   -0.35722E-07   -0.19634E-07    48   0.348E-03    0.400E-04
DAV:   5    -0.356435721530E+02   -0.12187E-07   -0.61667E-08    48   0.153E-03    0.169E-04
DAV:   6    -0.356435721680E+02   -0.15009E-07   -0.38775E-08    48   0.902E-04
  19 F= -.35643572E+02 E0= -.35643572E+02  d E =0.389041E-05
       N       E                     dE             d eps       ncg     rms          rms(c)
DAV:   1    -0.356435644707E+02    0.76823E-05   -0.72205E-04    96   0.232E-01    0.676E-03
DAV:   2    -0.356435642860E+02    0.18473E-06   -0.80806E-06    64   0.231E-02    0.424E-03
DAV:   3    -0.356435644608E+02   -0.17480E-06   -0.14339E-06    64   0.109E-02    0.105E-03
DAV:   4    -0.356435645288E+02   -0.67999E-07   -0.36521E-07    48   0.486E-03    0.552E-04
DAV:   5    -0.356435645545E+02   -0.25711E-07   -0.10020E-07    48   0.215E-03    0.229E-04
DAV:   6    -0.356435645850E+02   -0.30551E-07   -0.54018E-08    48   0.125E-03
  20 F= -.35643565E+02 E0= -.35643565E+02  d E =0.758303E-05
       N       E                     dE             d eps       ncg     rms          rms(c)
DAV:   1    -0.356435528680E+02    0.11686E-04   -0.13311E-03    96   0.312E-01    0.893E-03
DAV:   2    -0.356435526349E+02    0.23318E-06   -0.14141E-05    64   0.300E-02    0.559E-03
DAV:   3    -0.356435530622E+02   -0.42729E-06   -0.23698E-06    56   0.136E-02    0.107E-03
DAV:   4    -0.356435531498E+02   -0.87630E-07   -0.54010E-07    48   0.564E-03    0.604E-04
DAV:   5    -0.356435532067E+02   -0.56959E-07   -0.15335E-07    48   0.252E-03    0.212E-04
DAV:   6    -0.356435532572E+02   -0.50443E-07   -0.73011E-08    48   0.140E-03
  21 F= -.35643553E+02 E0= -.35643553E+02  d E =0.113278E-04
       N       E                     dE             d eps       ncg     rms          rms(c)
DAV:   1    -0.356435388285E+02    0.14378E-04   -0.23256E-03    96   0.414E-01    0.118E-02
DAV:   2    -0.356435385165E+02    0.31200E-06   -0.25049E-05    64   0.403E-02    0.731E-03
DAV:   3    -0.356435392330E+02   -0.71645E-06   -0.40638E-06    64   0.176E-02    0.147E-03
DAV:   4    -0.356435394065E+02   -0.17357E-06   -0.90725E-07    48   0.736E-03    0.759E-04
DAV:   5    -0.356435395112E+02   -0.10468E-06   -0.25319E-07    48   0.334E-03    0.235E-04
DAV:   6    -0.356435395875E+02   -0.76318E-07   -0.10928E-07    48   0.184E-03
  22 F= -.35643540E+02 E0= -.35643540E+02  d E =0.136697E-04
       N       E                     dE             d eps       ncg     rms          rms(c)
DAV:   1    -0.356435186916E+02    0.20820E-04   -0.38146E-03    96   0.531E-01    0.151E-02
DAV:   2    -0.356435182875E+02    0.40414E-06   -0.42015E-05    64   0.524E-02    0.936E-03
DAV:   3    -0.356435193459E+02   -0.10584E-05   -0.67879E-06    64   0.229E-02    0.211E-03
DAV:   4    -0.356435196739E+02   -0.32806E-06   -0.15409E-06    48   0.982E-03    0.103E-03
DAV:   5    -0.356435198305E+02   -0.15653E-06   -0.40742E-07    48   0.446E-03    0.323E-04
DAV:   6    -0.356435199434E+02   -0.11292E-06   -0.16612E-07    48   0.246E-03
  23 F= -.35643520E+02 E0= -.35643520E+02  d E =0.196442E-04
       N       E                     dE             d eps       ncg     rms          rms(c)
DAV:   1    -0.356434922689E+02    0.27562E-04   -0.56899E-03    96   0.646E-01    0.181E-02
DAV:   2    -0.356434918880E+02    0.38092E-06   -0.61024E-05    64   0.622E-02    0.113E-02
DAV:   3    -0.356434936211E+02   -0.17331E-05   -0.97075E-06    64   0.274E-02    0.222E-03
DAV:   4    -0.356434940266E+02   -0.40558E-06   -0.22011E-06    48   0.116E-02    0.112E-03
DAV:   5    -0.356434942720E+02   -0.24540E-06   -0.59582E-07    48   0.527E-03    0.340E-04
DAV:   6    -0.356434944347E+02   -0.16267E-06   -0.23333E-07    48   0.286E-03
  24 F= -.35643494E+02 E0= -.35643494E+02  d E =0.255087E-04
       N       E                     dE             d eps       ncg     rms          rms(c)
DAV:   1    -0.356434625003E+02    0.31772E-04   -0.81112E-03    96   0.776E-01    0.216E-02
DAV:   2    -0.356434623130E+02    0.18729E-06   -0.89339E-05    64   0.767E-02    0.134E-02
DAV:   3    -0.356434645057E+02   -0.21927E-05   -0.14268E-05    84   0.338E-02    0.315E-03
DAV:   4    -0.356434652656E+02   -0.75991E-06   -0.34543E-06    48   0.150E-02    0.144E-03
DAV:   5    -0.356434655868E+02   -0.32114E-06   -0.91098E-07    48   0.694E-03    0.522E-04
DAV:   6    -0.356434658181E+02   -0.23136E-06   -0.34692E-07    48   0.379E-03
  25 F= -.35643466E+02 E0= -.35643466E+02  d E =0.286166E-04
       N       E                     dE             d eps       ncg     rms          rms(c)
DAV:   1    -0.356434369992E+02    0.28588E-04   -0.10325E-02    96   0.877E-01    0.236E-02
DAV:   2    -0.356434373156E+02   -0.31636E-06   -0.11203E-04    64   0.861E-02    0.146E-02
DAV:   3    -0.356434400647E+02   -0.27491E-05   -0.18215E-05    64   0.382E-02    0.337E-03
DAV:   4    -0.356434409608E+02   -0.89615E-06   -0.43481E-06    48   0.168E-02    0.160E-03
DAV:   5    -0.356434413862E+02   -0.42538E-06   -0.11603E-06    48   0.778E-03    0.552E-04
DAV:   6    -0.356434416788E+02   -0.29256E-06   -0.44443E-07    48   0.438E-03
  26 F= -.35643442E+02 E0= -.35643442E+02  d E =0.241394E-04
       N       E                     dE             d eps       ncg     rms          rms(c)
DAV:   1    -0.356434215340E+02    0.19852E-04   -0.11348E-02    96   0.932E-01    0.231E-02
DAV:   2    -0.356434234745E+02   -0.19405E-05   -0.12200E-04    64   0.921E-02    0.144E-02
DAV:   3    -0.356434259647E+02   -0.24902E-05   -0.19237E-05    64   0.396E-02    0.349E-03
DAV:   4    -0.356434269505E+02   -0.98580E-06   -0.48992E-06    48   0.177E-02    0.152E-03
DAV:   5    -0.356434274508E+02   -0.50031E-06   -0.13693E-06    48   0.848E-03    0.576E-04
DAV:   6    -0.356434277943E+02   -0.34349E-06   -0.51146E-07    48   0.471E-03
  27 F= -.35643428E+02 E0= -.35643428E+02  d E =0.138845E-04
       N       E                     dE             d eps       ncg     rms          rms(c)
DAV:   1    -0.356434303107E+02   -0.28599E-05   -0.76178E-06    48   0.263E-02    0.642E-04
DAV:   2    -0.356434305308E+02   -0.22014E-06   -0.40882E-07    48   0.621E-03    0.366E-04
DAV:   3    -0.356434307902E+02   -0.25941E-06   -0.92043E-08    48   0.209E-03    0.161E-04
DAV:   4    -0.356434310498E+02   -0.25960E-06   -0.49717E-08    48   0.105E-03    0.608E-05
DAV:   5    -0.356434312439E+02   -0.19413E-06   -0.37441E-08    48   0.612E-04    0.468E-05
DAV:   6    -0.356434315387E+02   -0.29476E-06   -0.35244E-08    80   0.464E-04
  28 F= -.35643432E+02 E0= -.35643432E+02  d E =-.374441E-05
