 vasp.5.4.1 24Jun15 (build Jan 13 2020 12:58:22) complex                        
  
 executed on           IFC91_ompi date 2020.02.03  02:42:24
 running on   15 total cores
 each image running on    1 cores
 distrk:  each k-point on    1 cores,    1 groups
 distr:  one band on NCORES_PER_BAND=   1 cores,    1 groups


--------------------------------------------------------------------------------------------------------


 INCAR:
 POTCAR:    PAW_PBE H 15Jun2001                   
 POTCAR:    PAW_PBE C 08Apr2002                   
 POTCAR:    PAW_PBE N 08Apr2002                   
 POTCAR:    PAW_PBE H 15Jun2001                   
   VRHFIN =H: ultrasoft test                                                    
   LEXCH  = PE                                                                  
   EATOM  =    12.4884 eV,    0.9179 Ry                                         
                                                                                
   TITEL  = PAW_PBE H 15Jun2001                                                 
   LULTRA =        F    use ultrasoft PP ?                                      
   IUNSCR =        0    unscreen: 0-lin 1-nonlin 2-no                           
   RPACOR =    0.000    partial core radius                                     
   POMASS =    1.000; ZVAL   =    1.000    mass and valenz                      
   RCORE  =    1.100    outmost cutoff radius                                   
   RWIGS  =    0.700; RWIGS  =    0.370    wigner-seitz radius (au A)           
   ENMAX  =  250.000; ENMIN  =  200.000 eV                                      
   RCLOC  =    0.701    cutoff for local pot                                    
   LCOR   =        T    correct aug charges                                     
   LPAW   =        T    paw PP                                                  
   EAUG   =  400.000                                                            
   RMAX   =    1.123    core radius for proj-oper                               
   RAUG   =    1.200    factor for augmentation sphere                          
   RDEP   =    1.112    radius for radial grids                                 
   RDEPT  =    0.926    core radius for aug-charge                              
                                                                                
   Atomic configuration                                                         
    2 entries                                                                   
     n  l   j            E        occ.                                          
     1  0  0.50        -6.4927   1.0000                                         
     2  1  0.50        -3.4015   0.0000                                         
   Description                                                                  
     l       E           TYP  RCUT    TYP  RCUT                                 
     0     -6.4927494     23  1.100                                             
     0      6.8029130     23  1.100                                             
     1     -4.0817478     23  1.100                                             
  local pseudopotential read in
  atomic valenz-charges read in
  non local Contribution for L=           0  read in
    real space projection operators read in
  non local Contribution for L=           0  read in
    real space projection operators read in
  non local Contribution for L=           1  read in
    real space projection operators read in
    PAW grid and wavefunctions read in
 
   number of l-projection  operators is LMAX  =           3
   number of lm-projection operators is LMMAX =           5
 
 POTCAR:    PAW_PBE C 08Apr2002                   
   VRHFIN =C: s2p2                                                              
   LEXCH  = PE                                                                  
   EATOM  =   147.1560 eV,   10.8157 Ry                                         
                                                                                
   TITEL  = PAW_PBE C 08Apr2002                                                 
   LULTRA =        F    use ultrasoft PP ?                                      
   IUNSCR =        1    unscreen: 0-lin 1-nonlin 2-no                           
   RPACOR =    1.200    partial core radius                                     
   POMASS =   12.011; ZVAL   =    4.000    mass and valenz                      
   RCORE  =    1.500    outmost cutoff radius                                   
   RWIGS  =    1.630; RWIGS  =    0.863    wigner-seitz radius (au A)           
   ENMAX  =  400.000; ENMIN  =  300.000 eV                                      
   ICORE  =        2    local potential                                         
   LCOR   =        T    correct aug charges                                     
   LPAW   =        T    paw PP                                                  
   EAUG   =  644.873                                                            
   DEXC   =    0.000                                                            
   RMAX   =    1.529    core radius for proj-oper                               
   RAUG   =    1.300    factor for augmentation sphere                          
   RDEP   =    1.501    radius for radial grids                                 
   RDEPT  =    1.300    core radius for aug-charge                              
                                                                                
   Atomic configuration                                                         
    4 entries                                                                   
     n  l   j            E        occ.                                          
     1  0  0.50      -273.3789   2.0000                                         
     2  0  0.50       -13.7508   2.0000                                         
     2  1  0.50        -5.2854   2.0000                                         
     3  2  1.50        -5.4423   0.0000                                         
   Description                                                                  
     l       E           TYP  RCUT    TYP  RCUT                                 
     0    -13.7508458     23  1.200                                             
     0     -8.2022199     23  1.200                                             
     1     -5.2854383     23  1.500                                             
     1     34.0145650     23  1.500                                             
     2     -5.4423304      7  1.500                                             
  local pseudopotential read in
  partial core-charges read in
  partial kinetic energy density read in
  atomic valenz-charges read in
  non local Contribution for L=           0  read in
    real space projection operators read in
  non local Contribution for L=           0  read in
    real space projection operators read in
  non local Contribution for L=           1  read in
    real space projection operators read in
  non local Contribution for L=           1  read in
    real space projection operators read in
    PAW grid and wavefunctions read in
 
   number of l-projection  operators is LMAX  =           4
   number of lm-projection operators is LMMAX =           8
 
 POTCAR:    PAW_PBE N 08Apr2002                   
   VRHFIN =N: s2p3                                                              
   LEXCH  = PE                                                                  
   EATOM  =   264.5486 eV,   19.4438 Ry                                         
                                                                                
   TITEL  = PAW_PBE N 08Apr2002                                                 
   LULTRA =        F    use ultrasoft PP ?                                      
   IUNSCR =        1    unscreen: 0-lin 1-nonlin 2-no                           
   RPACOR =    1.200    partial core radius                                     
   POMASS =   14.001; ZVAL   =    5.000    mass and valenz                      
   RCORE  =    1.500    outmost cutoff radius                                   
   RWIGS  =    1.400; RWIGS  =    0.741    wigner-seitz radius (au A)           
   ENMAX  =  400.000; ENMIN  =  300.000 eV                                      
   ICORE  =        2    local potential                                         
   LCOR   =        T    correct aug charges                                     
   LPAW   =        T    paw PP                                                  
   EAUG   =  627.112                                                            
   DEXC   =    0.000                                                            
   RMAX   =    1.529    core radius for proj-oper                               
   RAUG   =    1.300    factor for augmentation sphere                          
   RDEP   =    1.514    radius for radial grids                                 
   RDEPT  =    1.338    core radius for aug-charge                              
                                                                                
   Atomic configuration                                                         
    4 entries                                                                   
     n  l   j            E        occ.                                          
     1  0  0.50      -384.7179   2.0000                                         
     2  0  0.50       -18.5828   2.0000                                         
     2  1  0.50        -7.0898   3.0000                                         
     3  2  1.50        -6.8029   0.0000                                         
   Description                                                                  
     l       E           TYP  RCUT    TYP  RCUT                                 
     0    -18.5828119     23  1.200                                             
     0    -13.5018863     23  1.200                                             
     1     -7.0897853     23  1.500                                             
     1      9.5240782     23  1.500                                             
     2     -6.8029130      7  1.500                                             
  local pseudopotential read in
  partial core-charges read in
  partial kinetic energy density read in
  atomic valenz-charges read in
  non local Contribution for L=           0  read in
    real space projection operators read in
  non local Contribution for L=           0  read in
    real space projection operators read in
  non local Contribution for L=           1  read in
    real space projection operators read in
  non local Contribution for L=           1  read in
    real space projection operators read in
    PAW grid and wavefunctions read in
 
   number of l-projection  operators is LMAX  =           4
   number of lm-projection operators is LMMAX =           8
 

 ----------------------------------------------------------------------------- 
|                                                                             |
|  ADVICE TO THIS USER RUNNING 'VASP/VAMP'   (HEAR YOUR MASTER'S VOICE ...):  |
|                                                                             |
|      You have a (more or less) 'small supercell' and for smaller cells      |
|      it is recommended  to use the reciprocal-space projection scheme!      |
|      The real space optimization is not  efficient for small cells and it   |
|      is also less accurate ...                                              |
|      Therefore set LREAL=.FALSE. in the  INCAR file                         |
|                                                                             |
 ----------------------------------------------------------------------------- 

 Optimization of the real space projectors (new method)

 maximal supplied QI-value         = 34.20
 optimisation between [QCUT,QGAM] = [  9.92, 20.18] = [ 27.55,114.04] Ry 
 Optimized for a Real-space Cutoff    1.26 Angstroem

   l    n(q)    QCUT    max X(q) W(low)/X(q) W(high)/X(q)  e(spline) 
   0      8     9.919    19.460    0.50E-03    0.23E-03    0.29E-06
   0      8     9.919    12.209    0.48E-03    0.23E-03    0.28E-06
   1      7     9.919     4.655    0.17E-03    0.75E-03    0.30E-06
 Optimization of the real space projectors (new method)

 maximal supplied QI-value         = 25.13
 optimisation between [QCUT,QGAM] = [ 10.05, 20.36] = [ 28.30,116.06] Ry 
 Optimized for a Real-space Cutoff    1.30 Angstroem

   l    n(q)    QCUT    max X(q) W(low)/X(q) W(high)/X(q)  e(spline) 
   0      8    10.053   115.676    0.49E-03    0.72E-03    0.18E-06
   0      8    10.053    87.132    0.49E-03    0.71E-03    0.18E-06
   1      7    10.053     4.429    0.32E-03    0.31E-03    0.18E-06
   1      7    10.053     2.733    0.23E-03    0.19E-03    0.20E-06
 Optimization of the real space projectors (new method)

 maximal supplied QI-value         = 25.13
 optimisation between [QCUT,QGAM] = [ 10.05, 20.36] = [ 28.30,116.06] Ry 
 Optimized for a Real-space Cutoff    1.65 Angstroem

   l    n(q)    QCUT    max X(q) W(low)/X(q) W(high)/X(q)  e(spline) 
   0     10    10.053    79.467    0.76E-04    0.72E-04    0.56E-06
   0     10    10.053    66.151    0.76E-04    0.72E-04    0.55E-06
   1     10    10.053     8.350    0.25E-03    0.92E-03    0.41E-05
   1     10    10.053     5.531    0.27E-03    0.10E-02    0.45E-05
  PAW_PBE H 15Jun2001                   :
 energy of atom  1       EATOM=  -12.4884
 kinetic energy error for atom=    0.0098 (will be added to EATOM!!)
  PAW_PBE C 08Apr2002                   :
 energy of atom  2       EATOM= -147.1560
 kinetic energy error for atom=    0.0288 (will be added to EATOM!!)
  PAW_PBE N 08Apr2002                   :
 energy of atom  3       EATOM= -264.5486
 kinetic energy error for atom=    0.0736 (will be added to EATOM!!)
 
 
 POSCAR: H3 C2 N1                                
  positions in direct lattice
  velocities in cartesian coordinates
 exchange correlation table for  LEXCH =        8
   RHO(1)=    0.500       N(1)  =     2000
   RHO(2)=  100.500       N(2)  =     4000

 VTST: version 3.2, (02/03/18)

 CHAIN: initializing optimizer
 
 OPT: Using FIRE optimizer
 OPT: FIRE, Init
 OPT: FIRE, MAXMOVE       0.20000
 OPT: FIRE, TIMESTEP      0.10000
 OPT: FIRE, FTIMEMAX      1.00000
 OPT: FIRE, FTIMEINC      1.10000
 OPT: FIRE, FTIMEDEC      0.50000
 OPT: FIRE, FALPHADEC     0.99000
 OPT: FIRE, FALPHA        0.10000
 OPT: FIRE, FNMIN         5
 
 CHAIN: Read ICHAIN            0
 CHAIN: Running the NEB
 NEB:          SPRING     -5.000000
 NEB:          LCLIMB      T
 NEB:     LTANGENTOLD      F
 NEB:           LDNEB      F
 NEB:        LDNEBORG      F
 NEB:        LNEBCELL      F
 NEB:          EFIRST      0.000000
 NEB:           ELAST      0.000000
 
 POSCAR: H3 C2 N1                                
  positions in direct lattice
  No initial velocities read in
 
 POSCAR: H3 C2 N1                                
  positions in direct lattice
  No initial velocities read in
 


--------------------------------------------------------------------------------------------------------


 ion  position               nearest neighbor table
   1  0.469  0.468  0.509-   4 1.10
   2  0.472  0.511  0.467-   4 1.10
   3  0.472  0.526  0.525-   4 1.10
   4  0.483  0.501  0.500-   3 1.10   1 1.10   2 1.10   6 1.42
   5  0.570  0.495  0.499-   6 1.18
   6  0.531  0.498  0.500-   5 1.18   4 1.42
 
  LATTYP: Found a simple cubic cell.
 ALAT       =    30.0000000000
  
  Lattice vectors:
  
 A1 = (  30.0000000000,   0.0000000000,   0.0000000000)
 A2 = (   0.0000000000,  30.0000000000,   0.0000000000)
 A3 = (   0.0000000000,   0.0000000000,  30.0000000000)


Analysis of symmetry for initial positions (statically):
=====================================================================
 Subroutine PRICEL returns:
 Original cell was already a primitive cell.
 

 Routine SETGRP: Setting up the symmetry group for a 
 simple cubic supercell.


 Subroutine GETGRP returns: Found  1 space group operations
 (whereof  1 operations were pure point group operations)
 out of a pool of 48 trial point group operations.


The static configuration has the point symmetry C_1 .


Analysis of symmetry for dynamics (positions and initial velocities):
=====================================================================
 Subroutine PRICEL returns:
 Original cell was already a primitive cell.
 

 Routine SETGRP: Setting up the symmetry group for a 
 simple cubic supercell.


 Subroutine GETGRP returns: Found  1 space group operations
 (whereof  1 operations were pure point group operations)
 out of a pool of 48 trial point group operations.


The dynamic configuration has the point symmetry C_1 .
 
 
 KPOINTS: Mo2C                                    

Automatic generation of k-mesh.
Space group operators:
 irot       det(A)        alpha          n_x          n_y          n_z        tau_x        tau_y        tau_z
    1     1.000000     0.000000     1.000000     0.000000     0.000000     0.000000     0.000000     0.000000
 
 Subroutine IBZKPT returns following result:
 ===========================================
 
 Found      4 irreducible k-points:
 
 Following reciprocal coordinates:
            Coordinates               Weight
  0.250000  0.250000  0.250000      2.000000
 -0.250000  0.250000  0.250000      2.000000
  0.250000 -0.250000  0.250000      2.000000
 -0.250000 -0.250000  0.250000      2.000000
 
 Following cartesian coordinates:
            Coordinates               Weight
  0.008333  0.008333  0.008333      2.000000
 -0.008333  0.008333  0.008333      2.000000
  0.008333 -0.008333  0.008333      2.000000
 -0.008333 -0.008333  0.008333      2.000000
 


--------------------------------------------------------------------------------------------------------




 Dimension of arrays:
   k-points           NKPTS =      4   k-points in BZ     NKDIM =      4   number of bands    NBANDS=     12
   number of dos      NEDOS =    301   number of ions     NIONS =      6
   non local maximal  LDIM  =      4   non local SUM 2l+1 LMDIM =      8
   total plane-waves  NPLWV = ******
   max r-space proj   IRMAX =   2395   max aug-charges    IRDMAX=   1738
   dimension x,y,z NGX =   150 NGY =  150 NGZ =  150
   dimension x,y,z NGXF=   300 NGYF=  300 NGZF=  300
   support grid    NGXF=   300 NGYF=  300 NGZF=  300
   ions per type =               3   2   1
 NGX,Y,Z   is equivalent  to a cutoff of   8.31,  8.31,  8.31 a.u.
 NGXF,Y,Z  is equivalent  to a cutoff of  16.62, 16.62, 16.62 a.u.


 I would recommend the setting:
   dimension x,y,z NGX =   147 NGY =  147 NGZ =  147
 SYSTEM =  unknown system                          
 POSCAR =  H3 C2 N1                                

 Startparameter for this run:
   NWRITE =      2    write-flag & timer
   PREC   = normal    normal or accurate (medium, high low for compatibility)
   ISTART =      0    job   : 0-new  1-cont  2-samecut
   ICHARG =      2    charge: 1-file 2-atom 10-const
   ISPIN  =      1    spin polarized calculation?
   LNONCOLLINEAR =      F non collinear calculations
   LSORBIT =      F    spin-orbit coupling
   INIWAV =      1    electr: 0-lowe 1-rand  2-diag
   LASPH  =      F    aspherical Exc in radial PAW
   METAGGA=      F    non-selfconsistent MetaGGA calc.

 Electronic Relaxation 1
   ENCUT  =  400.0 eV  29.40 Ry    5.42 a.u.  48.92 48.92 48.92*2*pi/ulx,y,z
   ENINI  =  400.0     initial cutoff
   ENAUG  =  644.9 eV  augmentation charge cutoff
   NELM   =    500;   NELMIN=  6; NELMDL= -5     # of ELM steps 
   EDIFF  = 0.1E-03   stopping-criterion for ELM
   LREAL  =      T    real-space projection
   NLSPLINE    = F    spline interpolate recip. space projectors
   LCOMPAT=      F    compatible to vasp.4.4
   GGA_COMPAT  = T    GGA compatible to vasp.4.4-vasp.4.6
   LMAXPAW     = -100 max onsite density
   LMAXMIX     =    2 max onsite mixed and CHGCAR
   VOSKOWN=      0    Vosko Wilk Nusair interpolation
   ROPT   =   -0.00050  -0.00050  -0.00050
 Ionic relaxation
   EDIFFG = -.1E+00   stopping-criterion for IOM
   NSW    =    300    number of steps for IOM
   NBLOCK =      1;   KBLOCK =    300    inner block; outer block 
   IBRION =      3    ionic relax: 0-MD 1-quasi-New 2-CG
   NFREE  =      0    steps in history (QN), initial steepest desc. (CG)
   ISIF   =      2    stress and relaxation
   IWAVPR =     11    prediction:  0-non 1-charg 2-wave 3-comb
   ISYM   =      2    0-nonsym 1-usesym 2-fastsym
   LCORR  =      T    Harris-Foulkes like correction to forces

   POTIM  = 0.0000    time-step for ionic-motion
   TEIN   =    0.0    initial temperature
   TEBEG  =    0.0;   TEEND  =   0.0 temperature during run
   SMASS  =   2.00    Nose mass-parameter (am)
   estimated Nose-frequenzy (Omega)   =  0.12E+10 period in steps =  0.00 mass=   0.137E-25a.u.
   SCALEE = 1.0000    scale energy and forces
   NPACO  =    256;   APACO  = 16.0  distance and # of slots for P.C.
   PSTRESS=    0.0 pullay stress

  Mass of Ions in am
   POMASS =   1.00 12.01 14.00
  Ionic Valenz
   ZVAL   =   1.00  4.00  5.00
  Atomic Wigner-Seitz radii
   RWIGS  =  -1.00 -1.00 -1.00
  virtual crystal weights 
   VCA    =   1.00  1.00  1.00
   NELECT =      16.0000    total number of electrons
   NUPDOWN=      -1.0000    fix difference up-down

 DOS related values:
   EMIN   =  10.00;   EMAX   =-10.00  energy-range for DOS
   EFERMI =   0.00
   ISMEAR =     0;   SIGMA  =   0.20  broadening in eV -4-tet -1-fermi 0-gaus

 Electronic relaxation 2 (details)
   IALGO  =     38    algorithm
   LDIAG  =      T    sub-space diagonalisation (order eigenvalues)
   LSUBROT=      F    optimize rotation matrix (better conditioning)
   TURBO    =      0    0=normal 1=particle mesh
   IRESTART =      0    0=no restart 2=restart with 2 vectors
   NREBOOT  =      0    no. of reboots
   NMIN     =      0    reboot dimension
   EREF     =   0.00    reference energy to select bands
   IMIX   =      4    mixing-type and parameters
     AMIX     =   0.40;   BMIX     =  1.00
     AMIX_MAG =   1.60;   BMIX_MAG =  1.00
     AMIN     =   0.10
     WC   =   100.;   INIMIX=   1;  MIXPRE=   1;  MAXMIX= -45

 Intra band minimization:
   WEIMIN = 0.0010     energy-eigenvalue tresh-hold
   EBREAK =  0.21E-05  absolut break condition
   DEPER  =   0.30     relativ break condition  

   TIME   =   0.40     timestep for ELM

  volume/ion in A,a.u.               =    4500.00     30367.50
  Fermi-wavevector in a.u.,A,eV,Ry     =   0.137508  0.259852  0.257264  0.018908
  Thomas-Fermi vector in A             =   0.790710
 
 Write flags
   LWAVE  =      F    write WAVECAR
   LCHARG =      F    write CHGCAR
   LVTOT  =      F    write LOCPOT, total local potential
   LVHAR  =      F    write LOCPOT, Hartree potential only
   LELF   =      F    write electronic localiz. function (ELF)
   LORBIT =      0    0 simple, 1 ext, 2 COOP (PROOUT)


 Dipole corrections
   LMONO  =      F    monopole corrections only (constant potential shift)
   LDIPOL =      F    correct potential (dipole corrections)
   IDIPOL =      0    1-x, 2-y, 3-z, 4-all directions 
   EPSILON=  1.0000000 bulk dielectric constant

 Exchange correlation treatment:
   GGA     =    PE    GGA type
   LEXCH   =     8    internal setting for exchange type
   VOSKOWN=      0    Vosko Wilk Nusair interpolation
   LHFCALC =     F    Hartree Fock is set to
   LHFONE  =     F    Hartree Fock one center treatment
   AEXX    =    0.0000 exact exchange contribution

 Linear response parameters
   LEPSILON=     F    determine dielectric tensor
   LRPA    =     F    only Hartree local field effects (RPA)
   LNABLA  =     F    use nabla operator in PAW spheres
   LVEL    =     F    velocity operator in full k-point grid
   LINTERFAST=   F  fast interpolation
   KINTER  =     0    interpolate to denser k-point grid
   CSHIFT  =0.1000    complex shift for real part using Kramers Kronig
   OMEGAMAX=  -1.0    maximum frequency
   DEG_THRESHOLD= 0.2000000E-02 threshold for treating states as degnerate
   RTIME   =    0.100 relaxation time in fs

 Orbital magnetization related:
   ORBITALMAG=     F  switch on orbital magnetization
   LCHIMAG   =     F  perturbation theory with respect to B field
   DQ        =  0.001000  dq finite difference perturbation B field



--------------------------------------------------------------------------------------------------------


 quickmin algorithm: (dynamic with friction)
 charge density and potential will be updated during run
 non-spin polarized calculation
 Variant of blocked Davidson
 Davidson routine will perform the subspace rotation
 perform sub-space diagonalisation
    after iterative eigenvector-optimisation
 modified Broyden-mixing scheme, WC =      100.0
 initial mixing is a Kerker type mixing with AMIX =  0.4000 and BMIX =      1.0000
 Hartree-type preconditioning will be used
 using additional bands            4
 real space projection scheme for non local part
 use partial core corrections
 calculate Harris-corrections to forces 
   (improved forces if not selfconsistent)
 use gradient corrections 
 use of overlap-Matrix (Vanderbilt PP)
 Gauss-broadening in eV      SIGMA  =   0.20


--------------------------------------------------------------------------------------------------------


  energy-cutoff  :      400.00
  volume of cell :    27000.00
      direct lattice vectors                 reciprocal lattice vectors
    30.000000000  0.000000000  0.000000000     0.033333333  0.000000000  0.000000000
     0.000000000 30.000000000  0.000000000     0.000000000  0.033333333  0.000000000
     0.000000000  0.000000000 30.000000000     0.000000000  0.000000000  0.033333333

  length of vectors
    30.000000000 30.000000000 30.000000000     0.033333333  0.033333333  0.033333333


 
 k-points in units of 2pi/SCALE and weight: Mo2C                                    
   0.00833333  0.00833333  0.00833333       0.250
  -0.00833333  0.00833333  0.00833333       0.250
   0.00833333 -0.00833333  0.00833333       0.250
  -0.00833333 -0.00833333  0.00833333       0.250
 
 k-points in reciprocal lattice and weights: Mo2C                                    
   0.25000000  0.25000000  0.25000000       0.250
  -0.25000000  0.25000000  0.25000000       0.250
   0.25000000 -0.25000000  0.25000000       0.250
  -0.25000000 -0.25000000  0.25000000       0.250
 
 position of ions in fractional coordinates (direct lattice) 
   0.46920181  0.46841375  0.50901635
   0.47156006  0.51063099  0.46688769
   0.47222727  0.52586670  0.52456540
   0.48347442  0.50096985  0.50016142
   0.56982351  0.49504654  0.49923945
   0.53060055  0.49827413  0.50012668
 
 position of ions in cartesian coordinates  (Angst):
  14.07605428 14.05241242 15.27049045
  14.14680177 15.31892965 14.00663066
  14.16681809 15.77600114 15.73696190
  14.50423266 15.02909543 15.00484261
  17.09470543 14.85139629 14.97718357
  15.91801640 14.94822402 15.00380029
 


--------------------------------------------------------------------------------------------------------


 k-point  1 :   0.2500 0.2500 0.2500  plane waves:  490454
 k-point  2 :  -0.2500 0.2500 0.2500  plane waves:  490454
 k-point  3 :   0.2500-0.2500 0.2500  plane waves:  490454
 k-point  4 :  -0.2500-0.2500 0.2500  plane waves:  490454

 maximum and minimum number of plane-waves per node :    490454   490454

 maximum number of plane-waves:    490454
 maximum index in each direction: 
   IXMAX=   49   IYMAX=   49   IZMAX=   48
   IXMIN=  -49   IYMIN=  -49   IZMIN=  -49

 WARNING: aliasing errors must be expected set NGX to 198 to avoid them
 WARNING: aliasing errors must be expected set NGY to 198 to avoid them
 WARNING: aliasing errors must be expected set NGZ to 196 to avoid them
 aliasing errors are usually negligible using standard VASP settings
 and one can safely disregard these warnings

 serial   3D FFT for wavefunctions
 parallel 3D FFT for charge:
    minimum data exchange during FFTs selected (reduces bandwidth)


 total amount of memory used by VASP on root node  3203888. kBytes
========================================================================

   base      :      30000. kBytes
   nonlr-proj:        692. kBytes
   fftplans  :     924480. kBytes
   grid      :    1872000. kBytes
   one-center:         18. kBytes
   wavefun   :     376698. kBytes
 
     INWAV:  cpu time    0.0010: real time    0.0004
 Broyden mixing: mesh for mixing (old mesh)
   NGX = 97   NGY = 97   NGZ = 97
  (NGX  =300   NGY  =300   NGZ  =300)
  gives a total of 912673 points

 initial charge density was supplied:
 charge density of overlapping atoms calculated
 number of electron      16.0000000 magnetization 
 keeping initial charge density in first step


--------------------------------------------------------------------------------------------------------


 Maximum index for non-local projection operator         2271
 Maximum index for augmentation-charges         1493 (set IRDMAX)


--------------------------------------------------------------------------------------------------------


 First call to EWALD:  gamma=   0.059
 Maximum number of real-space cells 3x 3x 3
 Maximum number of reciprocal cells 3x 3x 3

 FEWALD executed in parallel
    FEWALD:  cpu time    0.0020: real time    0.0018


----------------------------------------- Iteration    1(   1)  ---------------------------------------


    POTLOK:  cpu time   17.2904: real time   17.3259
    SETDIJ:  cpu time    0.0060: real time    0.0065
     EDDAV:  cpu time   83.2453: real time   83.4226
       DOS:  cpu time    0.0000: real time    0.0002
    --------------------------------------------
      LOOP:  cpu time  100.5457: real time  100.7603

 eigenvalue-minimisations  :   160
 total energy-change (2. order) : 0.1140734E+03  (-0.2134978E+03)
 number of electron      16.0000000 magnetization 
 augmentation part       16.0000000 magnetization 

 Free energy of the ion-electron system (eV)
  ---------------------------------------------------
  alpha Z        PSCENC =         0.04144063
  Ewald energy   TEWEN  =       702.83441463
  -Hartree energ DENC   =     -1117.17330669
  -exchange      EXHF   =         0.00000000
  -V(xc)+E(xc)   XCENC  =        51.41883720
  PAW double counting   =       428.37890668     -430.73533574
  entropy T*S    EENTRO =        -0.18810563
  eigenvalues    EBANDS =      -116.66879435
  atomic energy  EATOM  =       596.16534815
  Solvation  Ediel_sol  =         0.00000000
  ---------------------------------------------------
  free energy    TOTEN  =       114.07340488 eV

  energy without entropy =      114.26151051  energy(sigma->0) =      114.16745770


--------------------------------------------------------------------------------------------------------




----------------------------------------- Iteration    1(   2)  ---------------------------------------


     EDDAV:  cpu time   98.0631: real time   98.2723
       DOS:  cpu time    0.0000: real time    0.0002
    --------------------------------------------
      LOOP:  cpu time   98.0641: real time   98.2755

 eigenvalue-minimisations  :   192
 total energy-change (2. order) :-0.1156717E+03  (-0.1133667E+03)
 number of electron      16.0000000 magnetization 
 augmentation part       16.0000000 magnetization 

 Free energy of the ion-electron system (eV)
  ---------------------------------------------------
  alpha Z        PSCENC =         0.04144063
  Ewald energy   TEWEN  =       702.83441463
  -Hartree energ DENC   =     -1117.17330669
  -exchange      EXHF   =         0.00000000
  -V(xc)+E(xc)   XCENC  =        51.41883720
  PAW double counting   =       428.37890668     -430.73533574
  entropy T*S    EENTRO =        -0.00000009
  eigenvalues    EBANDS =      -232.52864405
  atomic energy  EATOM  =       596.16534815
  Solvation  Ediel_sol  =         0.00000000
  ---------------------------------------------------
  free energy    TOTEN  =        -1.59833928 eV

  energy without entropy =       -1.59833919  energy(sigma->0) =       -1.59833923


--------------------------------------------------------------------------------------------------------




----------------------------------------- Iteration    1(   3)  ---------------------------------------


     EDDAV:  cpu time   80.0928: real time   80.2658
       DOS:  cpu time    0.0000: real time    0.0001
    --------------------------------------------
      LOOP:  cpu time   80.0948: real time   80.2692

 eigenvalue-minimisations  :   152
 total energy-change (2. order) :-0.3325545E+02  (-0.3317852E+02)
 number of electron      16.0000000 magnetization 
 augmentation part       16.0000000 magnetization 

 Free energy of the ion-electron system (eV)
  ---------------------------------------------------
  alpha Z        PSCENC =         0.04144063
  Ewald energy   TEWEN  =       702.83441463
  -Hartree energ DENC   =     -1117.17330669
  -exchange      EXHF   =         0.00000000
  -V(xc)+E(xc)   XCENC  =        51.41883720
  PAW double counting   =       428.37890668     -430.73533574
  entropy T*S    EENTRO =         0.00000000
  eigenvalues    EBANDS =      -265.78409490
  atomic energy  EATOM  =       596.16534815
  Solvation  Ediel_sol  =         0.00000000
  ---------------------------------------------------
  free energy    TOTEN  =       -34.85379004 eV

  energy without entropy =      -34.85379004  energy(sigma->0) =      -34.85379004


--------------------------------------------------------------------------------------------------------




----------------------------------------- Iteration    1(   4)  ---------------------------------------


     EDDAV:  cpu time   73.2779: real time   73.4352
       DOS:  cpu time    0.0000: real time    0.0002
    --------------------------------------------
      LOOP:  cpu time   73.2799: real time   73.4384

 eigenvalue-minimisations  :   136
 total energy-change (2. order) :-0.4135597E+01  (-0.4106205E+01)
 number of electron      16.0000000 magnetization 
 augmentation part       16.0000000 magnetization 

 Free energy of the ion-electron system (eV)
  ---------------------------------------------------
  alpha Z        PSCENC =         0.04144063
  Ewald energy   TEWEN  =       702.83441463
  -Hartree energ DENC   =     -1117.17330669
  -exchange      EXHF   =         0.00000000
  -V(xc)+E(xc)   XCENC  =        51.41883720
  PAW double counting   =       428.37890668     -430.73533574
  entropy T*S    EENTRO =         0.00000000
  eigenvalues    EBANDS =      -269.91969164
  atomic energy  EATOM  =       596.16534815
  Solvation  Ediel_sol  =         0.00000000
  ---------------------------------------------------
  free energy    TOTEN  =       -38.98938679 eV

  energy without entropy =      -38.98938679  energy(sigma->0) =      -38.98938679


--------------------------------------------------------------------------------------------------------




----------------------------------------- Iteration    1(   5)  ---------------------------------------


     EDDAV:  cpu time   61.4817: real time   61.6134
       DOS:  cpu time    0.0000: real time    0.0001
    CHARGE:  cpu time    4.9412: real time    4.9515
    MIXING:  cpu time    0.5079: real time    0.5093
    --------------------------------------------
      LOOP:  cpu time   66.9318: real time   67.0774

 eigenvalue-minimisations  :   112
 total energy-change (2. order) :-0.1057336E+00  (-0.1044418E+00)
 number of electron      15.9999991 magnetization 
 augmentation part        0.5200214 magnetization 

 Broyden mixing:
  rms(total) = 0.10377E+01    rms(broyden)= 0.10370E+01
  rms(prec ) = 0.10740E+01
  weight for this iteration     100.00

 Free energy of the ion-electron system (eV)
  ---------------------------------------------------
  alpha Z        PSCENC =         0.04144063
  Ewald energy   TEWEN  =       702.83441463
  -Hartree energ DENC   =     -1117.17330669
  -exchange      EXHF   =         0.00000000
  -V(xc)+E(xc)   XCENC  =        51.41883720
  PAW double counting   =       428.37890668     -430.73533574
  entropy T*S    EENTRO =         0.00000000
  eigenvalues    EBANDS =      -270.02542523
  atomic energy  EATOM  =       596.16534815
  Solvation  Ediel_sol  =         0.00000000
  ---------------------------------------------------
  free energy    TOTEN  =       -39.09512037 eV

  energy without entropy =      -39.09512037  energy(sigma->0) =      -39.09512037


--------------------------------------------------------------------------------------------------------




----------------------------------------- Iteration    1(   6)  ---------------------------------------


    POTLOK:  cpu time   16.3405: real time   16.3760
    SETDIJ:  cpu time    0.0070: real time    0.0063
     EDDAV:  cpu time   63.0204: real time   63.1600
       DOS:  cpu time    0.0000: real time    0.0002
    CHARGE:  cpu time    5.2022: real time    5.2150
    MIXING:  cpu time    0.5679: real time    0.5684
    --------------------------------------------
      LOOP:  cpu time   85.1391: real time   85.3299

 eigenvalue-minimisations  :   116
 total energy-change (2. order) : 0.2687981E+01  (-0.4529606E+00)
 number of electron      15.9999991 magnetization 
 augmentation part        0.4735034 magnetization 

 Broyden mixing:
  rms(total) = 0.56228E+00    rms(broyden)= 0.56216E+00
  rms(prec ) = 0.57771E+00
  weight for this iteration     100.00

 eigenvalues of (default mixing * dielectric matrix)
  average eigenvalue GAMMA=   1.6060
  1.6060

 Free energy of the ion-electron system (eV)
  ---------------------------------------------------
  alpha Z        PSCENC =         0.04144063
  Ewald energy   TEWEN  =       702.83441463
  -Hartree energ DENC   =     -1146.33388871
  -exchange      EXHF   =         0.00000000
  -V(xc)+E(xc)   XCENC  =        53.02049580
  PAW double counting   =       719.74500400     -722.43749922
  entropy T*S    EENTRO =         0.00000000
  eigenvalues    EBANDS =      -239.44245457
  atomic energy  EATOM  =       596.16534815
  Solvation  Ediel_sol  =         0.00000000
  ---------------------------------------------------
  free energy    TOTEN  =       -36.40713929 eV

  energy without entropy =      -36.40713929  energy(sigma->0) =      -36.40713929


--------------------------------------------------------------------------------------------------------




----------------------------------------- Iteration    1(   7)  ---------------------------------------


    POTLOK:  cpu time   16.7874: real time   16.8260
    SETDIJ:  cpu time    0.0060: real time    0.0065
     EDDAV:  cpu time   68.0017: real time   68.1504
       DOS:  cpu time    0.0000: real time    0.0002
    CHARGE:  cpu time    5.0782: real time    5.0903
    MIXING:  cpu time    0.5919: real time    0.5932
    --------------------------------------------
      LOOP:  cpu time   90.4662: real time   90.6702

 eigenvalue-minimisations  :   128
 total energy-change (2. order) : 0.6984919E+00  (-0.1798621E+00)
 number of electron      15.9999991 magnetization 
 augmentation part        0.4579034 magnetization 

 Broyden mixing:
  rms(total) = 0.22408E+00    rms(broyden)= 0.22401E+00
  rms(prec ) = 0.22921E+00
  weight for this iteration     100.00

 eigenvalues of (default mixing * dielectric matrix)
  average eigenvalue GAMMA=   1.5744
  1.0867  2.0622

 Free energy of the ion-electron system (eV)
  ---------------------------------------------------
  alpha Z        PSCENC =         0.04144063
  Ewald energy   TEWEN  =       702.83441463
  -Hartree energ DENC   =     -1166.12026916
  -exchange      EXHF   =         0.00000000
  -V(xc)+E(xc)   XCENC  =        54.28470374
  PAW double counting   =      1096.74654179    -1099.62818043
  entropy T*S    EENTRO =         0.00000000
  eigenvalues    EBANDS =      -220.03264672
  atomic energy  EATOM  =       596.16534815
  Solvation  Ediel_sol  =         0.00000000
  ---------------------------------------------------
  free energy    TOTEN  =       -35.70864737 eV

  energy without entropy =      -35.70864737  energy(sigma->0) =      -35.70864737


--------------------------------------------------------------------------------------------------------




----------------------------------------- Iteration    1(   8)  ---------------------------------------


    POTLOK:  cpu time   16.9974: real time   17.0382
    SETDIJ:  cpu time    0.0060: real time    0.0063
     EDDAV:  cpu time   68.0996: real time   68.2480
       DOS:  cpu time    0.0000: real time    0.0002
    CHARGE:  cpu time    5.0322: real time    5.0439
    MIXING:  cpu time    0.6109: real time    0.6122
    --------------------------------------------
      LOOP:  cpu time   90.7482: real time   90.9522

 eigenvalue-minimisations  :   128
 total energy-change (2. order) : 0.7057259E-01  (-0.1423498E-01)
 number of electron      15.9999991 magnetization 
 augmentation part        0.4492219 magnetization 

 Broyden mixing:
  rms(total) = 0.87794E-01    rms(broyden)= 0.87772E-01
  rms(prec ) = 0.92064E-01
  weight for this iteration     100.00

 eigenvalues of (default mixing * dielectric matrix)
  average eigenvalue GAMMA=   1.5915
  2.3166  0.8264  1.6315

 Free energy of the ion-electron system (eV)
  ---------------------------------------------------
  alpha Z        PSCENC =         0.04144063
  Ewald energy   TEWEN  =       702.83441463
  -Hartree energ DENC   =     -1172.53437772
  -exchange      EXHF   =         0.00000000
  -V(xc)+E(xc)   XCENC  =        54.70140526
  PAW double counting   =      1273.54866977    -1276.45148448
  entropy T*S    EENTRO =         0.00000000
  eigenvalues    EBANDS =      -213.94349102
  atomic energy  EATOM  =       596.16534815
  Solvation  Ediel_sol  =         0.00000000
  ---------------------------------------------------
  free energy    TOTEN  =       -35.63807477 eV

  energy without entropy =      -35.63807477  energy(sigma->0) =      -35.63807477


--------------------------------------------------------------------------------------------------------




----------------------------------------- Iteration    1(   9)  ---------------------------------------


    POTLOK:  cpu time   16.9334: real time   16.9702
    SETDIJ:  cpu time    0.0060: real time    0.0062
     EDDAV:  cpu time   66.5029: real time   66.6463
       DOS:  cpu time    0.0000: real time    0.0002
    CHARGE:  cpu time    4.9013: real time    4.9113
    MIXING:  cpu time    0.6259: real time    0.6270
    --------------------------------------------
      LOOP:  cpu time   88.9705: real time   89.1646

 eigenvalue-minimisations  :   124
 total energy-change (2. order) : 0.1817126E-01  (-0.2129341E-02)
 number of electron      15.9999991 magnetization 
 augmentation part        0.4497965 magnetization 

 Broyden mixing:
  rms(total) = 0.21652E-01    rms(broyden)= 0.21640E-01
  rms(prec ) = 0.27892E-01
  weight for this iteration     100.00

 eigenvalues of (default mixing * dielectric matrix)
  average eigenvalue GAMMA=   1.5447
  2.0126  2.0126  0.8503  1.3034

 Free energy of the ion-electron system (eV)
  ---------------------------------------------------
  alpha Z        PSCENC =         0.04144063
  Ewald energy   TEWEN  =       702.83441463
  -Hartree energ DENC   =     -1173.76183388
  -exchange      EXHF   =         0.00000000
  -V(xc)+E(xc)   XCENC  =        54.78528282
  PAW double counting   =      1338.92872443    -1341.80414518
  entropy T*S    EENTRO =         0.00000000
  eigenvalues    EBANDS =      -212.80913512
  atomic energy  EATOM  =       596.16534815
  Solvation  Ediel_sol  =         0.00000000
  ---------------------------------------------------
  free energy    TOTEN  =       -35.61990351 eV

  energy without entropy =      -35.61990351  energy(sigma->0) =      -35.61990351


--------------------------------------------------------------------------------------------------------




----------------------------------------- Iteration    1(  10)  ---------------------------------------


    POTLOK:  cpu time   16.6785: real time   16.7135
    SETDIJ:  cpu time    0.0070: real time    0.0062
     EDDAV:  cpu time   67.5107: real time   67.6549
       DOS:  cpu time    0.0000: real time    0.0002
    CHARGE:  cpu time    4.6793: real time    4.6893
    MIXING:  cpu time    0.7039: real time    0.7050
    --------------------------------------------
      LOOP:  cpu time   89.5794: real time   89.7729

 eigenvalue-minimisations  :   124
 total energy-change (2. order) : 0.2293026E-03  (-0.4215846E-03)
 number of electron      15.9999991 magnetization 
 augmentation part        0.4506512 magnetization 

 Broyden mixing:
  rms(total) = 0.13082E-01    rms(broyden)= 0.13074E-01
  rms(prec ) = 0.18764E-01
  weight for this iteration     100.00

 eigenvalues of (default mixing * dielectric matrix)
  average eigenvalue GAMMA=   1.5122
  2.1879  2.1879  0.8927  0.8927  1.3999

 Free energy of the ion-electron system (eV)
  ---------------------------------------------------
  alpha Z        PSCENC =         0.04144063
  Ewald energy   TEWEN  =       702.83441463
  -Hartree energ DENC   =     -1174.74473793
  -exchange      EXHF   =         0.00000000
  -V(xc)+E(xc)   XCENC  =        54.80853130
  PAW double counting   =      1333.88723842    -1336.75796376
  entropy T*S    EENTRO =         0.00000000
  eigenvalues    EBANDS =      -211.85394565
  atomic energy  EATOM  =       596.16534815
  Solvation  Ediel_sol  =         0.00000000
  ---------------------------------------------------
  free energy    TOTEN  =       -35.61967421 eV

  energy without entropy =      -35.61967421  energy(sigma->0) =      -35.61967421


--------------------------------------------------------------------------------------------------------




----------------------------------------- Iteration    1(  11)  ---------------------------------------


    POTLOK:  cpu time   16.1725: real time   16.2067
    SETDIJ:  cpu time    0.0060: real time    0.0062
     EDDAV:  cpu time   68.9885: real time   69.1365
       DOS:  cpu time    0.0000: real time    0.0002
    CHARGE:  cpu time    4.7773: real time    4.7881
    MIXING:  cpu time    0.7479: real time    0.7481
    --------------------------------------------
      LOOP:  cpu time   90.6922: real time   90.8899

 eigenvalue-minimisations  :   128
 total energy-change (2. order) :-0.1630636E-02  (-0.1698614E-03)
 number of electron      15.9999991 magnetization 
 augmentation part        0.4501408 magnetization 

 Broyden mixing:
  rms(total) = 0.80687E-02    rms(broyden)= 0.80671E-02
  rms(prec ) = 0.12978E-01
  weight for this iteration     100.00

 eigenvalues of (default mixing * dielectric matrix)
  average eigenvalue GAMMA=   1.6584
  2.6405  2.6405  1.4474  1.4474  0.8874  0.8874

 Free energy of the ion-electron system (eV)
  ---------------------------------------------------
  alpha Z        PSCENC =         0.04144063
  Ewald energy   TEWEN  =       702.83441463
  -Hartree energ DENC   =     -1175.77927438
  -exchange      EXHF   =         0.00000000
  -V(xc)+E(xc)   XCENC  =        54.84027721
  PAW double counting   =      1333.28739337    -1336.15667998
  entropy T*S    EENTRO =         0.00000000
  eigenvalues    EBANDS =      -210.85422447
  atomic energy  EATOM  =       596.16534815
  Solvation  Ediel_sol  =         0.00000000
  ---------------------------------------------------
  free energy    TOTEN  =       -35.62130485 eV

  energy without entropy =      -35.62130485  energy(sigma->0) =      -35.62130485


--------------------------------------------------------------------------------------------------------




----------------------------------------- Iteration    1(  12)  ---------------------------------------


    POTLOK:  cpu time   16.2255: real time   16.2600
    SETDIJ:  cpu time    0.0060: real time    0.0062
     EDDAV:  cpu time   65.7130: real time   65.8543
       DOS:  cpu time    0.0000: real time    0.0002
    CHARGE:  cpu time    4.8193: real time    4.8305
    MIXING:  cpu time    0.7479: real time    0.7492
    --------------------------------------------
      LOOP:  cpu time   87.5137: real time   87.7042

 eigenvalue-minimisations  :   120
 total energy-change (2. order) :-0.5729950E-02  (-0.3111929E-03)
 number of electron      15.9999991 magnetization 
 augmentation part        0.4498334 magnetization 

 Broyden mixing:
  rms(total) = 0.45970E-02    rms(broyden)= 0.45908E-02
  rms(prec ) = 0.73887E-02
  weight for this iteration     100.00

 eigenvalues of (default mixing * dielectric matrix)
  average eigenvalue GAMMA=   1.7911
  3.8640  2.2375  1.8987  1.5966  0.9074  1.0168  1.0168

 Free energy of the ion-electron system (eV)
  ---------------------------------------------------
  alpha Z        PSCENC =         0.04144063
  Ewald energy   TEWEN  =       702.83441463
  -Hartree energ DENC   =     -1177.01279950
  -exchange      EXHF   =         0.00000000
  -V(xc)+E(xc)   XCENC  =        54.86956529
  PAW double counting   =      1329.69664369    -1332.56363817
  entropy T*S    EENTRO =         0.00000000
  eigenvalues    EBANDS =      -209.65800952
  atomic energy  EATOM  =       596.16534815
  Solvation  Ediel_sol  =         0.00000000
  ---------------------------------------------------
  free energy    TOTEN  =       -35.62703480 eV

  energy without entropy =      -35.62703480  energy(sigma->0) =      -35.62703480


--------------------------------------------------------------------------------------------------------




----------------------------------------- Iteration    1(  13)  ---------------------------------------


    POTLOK:  cpu time   16.1066: real time   16.1400
    SETDIJ:  cpu time    0.0060: real time    0.0063
     EDDAV:  cpu time   67.3198: real time   67.4913
       DOS:  cpu time    0.0000: real time    0.0002
    CHARGE:  cpu time    4.9223: real time    4.9360
    MIXING:  cpu time    0.8629: real time    0.8648
    --------------------------------------------
      LOOP:  cpu time   89.2174: real time   89.4420

 eigenvalue-minimisations  :   124
 total energy-change (2. order) :-0.5986868E-02  (-0.1622836E-03)
 number of electron      15.9999991 magnetization 
 augmentation part        0.4496751 magnetization 

 Broyden mixing:
  rms(total) = 0.28503E-02    rms(broyden)= 0.28475E-02
  rms(prec ) = 0.43577E-02
  weight for this iteration     100.00

 eigenvalues of (default mixing * dielectric matrix)
  average eigenvalue GAMMA=   1.8856
  4.8851  2.3982  1.7516  1.7516  1.4674  0.9064  0.9622  0.9622

 Free energy of the ion-electron system (eV)
  ---------------------------------------------------
  alpha Z        PSCENC =         0.04144063
  Ewald energy   TEWEN  =       702.83441463
  -Hartree energ DENC   =     -1177.61188330
  -exchange      EXHF   =         0.00000000
  -V(xc)+E(xc)   XCENC  =        54.87655885
  PAW double counting   =      1329.02129473    -1331.88867248
  entropy T*S    EENTRO =         0.00000000
  eigenvalues    EBANDS =      -209.07152288
  atomic energy  EATOM  =       596.16534815
  Solvation  Ediel_sol  =         0.00000000
  ---------------------------------------------------
  free energy    TOTEN  =       -35.63302166 eV

  energy without entropy =      -35.63302166  energy(sigma->0) =      -35.63302166


--------------------------------------------------------------------------------------------------------




----------------------------------------- Iteration    1(  14)  ---------------------------------------


    POTLOK:  cpu time   16.5785: real time   16.6152
    SETDIJ:  cpu time    0.0060: real time    0.0063
     EDDAV:  cpu time   69.3155: real time   69.4705
       DOS:  cpu time    0.0000: real time    0.0002
    CHARGE:  cpu time    4.8793: real time    4.8898
    MIXING:  cpu time    0.9739: real time    0.9764
    --------------------------------------------
      LOOP:  cpu time   91.7541: real time   91.9626

 eigenvalue-minimisations  :   128
 total energy-change (2. order) :-0.3919414E-02  (-0.4781782E-04)
 number of electron      15.9999991 magnetization 
 augmentation part        0.4496975 magnetization 

 Broyden mixing:
  rms(total) = 0.18481E-02    rms(broyden)= 0.18474E-02
  rms(prec ) = 0.27071E-02
  weight for this iteration     100.00

 eigenvalues of (default mixing * dielectric matrix)
  average eigenvalue GAMMA=   1.9812
  5.1501  2.7908  2.4541  1.8656  1.5730  1.1083  1.1083  0.8902  0.8902

 Free energy of the ion-electron system (eV)
  ---------------------------------------------------
  alpha Z        PSCENC =         0.04144063
  Ewald energy   TEWEN  =       702.83441463
  -Hartree energ DENC   =     -1177.79458001
  -exchange      EXHF   =         0.00000000
  -V(xc)+E(xc)   XCENC  =        54.87065043
  PAW double counting   =      1327.42082183    -1330.28811312
  entropy T*S    EENTRO =         0.00000000
  eigenvalues    EBANDS =      -208.88692363
  atomic energy  EATOM  =       596.16534815
  Solvation  Ediel_sol  =         0.00000000
  ---------------------------------------------------
  free energy    TOTEN  =       -35.63694108 eV

  energy without entropy =      -35.63694108  energy(sigma->0) =      -35.63694108


--------------------------------------------------------------------------------------------------------




----------------------------------------- Iteration    1(  15)  ---------------------------------------


    POTLOK:  cpu time   16.9154: real time   16.9521
    SETDIJ:  cpu time    0.0060: real time    0.0062
     EDDAV:  cpu time   68.7845: real time   68.9348
       DOS:  cpu time    0.0000: real time    0.0002
    CHARGE:  cpu time    5.0642: real time    5.0760
    MIXING:  cpu time    0.9829: real time    0.9851
    --------------------------------------------
      LOOP:  cpu time   91.7541: real time   91.9587

 eigenvalue-minimisations  :   128
 total energy-change (2. order) :-0.3338677E-02  (-0.3714812E-04)
 number of electron      15.9999991 magnetization 
 augmentation part        0.4497406 magnetization 

 Broyden mixing:
  rms(total) = 0.11851E-02    rms(broyden)= 0.11850E-02
  rms(prec ) = 0.15962E-02
  weight for this iteration     100.00

 eigenvalues of (default mixing * dielectric matrix)
  average eigenvalue GAMMA=   2.0890
  6.5003  3.4706  2.3519  1.6345  1.6345  1.5431  0.9265  0.9265  0.8799  1.0221

 Free energy of the ion-electron system (eV)
  ---------------------------------------------------
  alpha Z        PSCENC =         0.04144063
  Ewald energy   TEWEN  =       702.83441463
  -Hartree energ DENC   =     -1177.82452984
  -exchange      EXHF   =         0.00000000
  -V(xc)+E(xc)   XCENC  =        54.86443933
  PAW double counting   =      1328.31003884    -1331.17757566
  entropy T*S    EENTRO =         0.00000000
  eigenvalues    EBANDS =      -208.85385583
  atomic energy  EATOM  =       596.16534815
  Solvation  Ediel_sol  =         0.00000000
  ---------------------------------------------------
  free energy    TOTEN  =       -35.64027976 eV

  energy without entropy =      -35.64027976  energy(sigma->0) =      -35.64027976


--------------------------------------------------------------------------------------------------------




----------------------------------------- Iteration    1(  16)  ---------------------------------------


    POTLOK:  cpu time   16.8374: real time   16.8753
    SETDIJ:  cpu time    0.0060: real time    0.0062
     EDDAV:  cpu time   68.6846: real time   68.8373
       DOS:  cpu time    0.0000: real time    0.0002
    CHARGE:  cpu time    5.2672: real time    5.2798
    MIXING:  cpu time    1.0908: real time    1.0928
    --------------------------------------------
      LOOP:  cpu time   91.8900: real time   92.0957

 eigenvalue-minimisations  :   128
 total energy-change (2. order) :-0.1192963E-02  (-0.1060342E-04)
 number of electron      15.9999991 magnetization 
 augmentation part        0.4497110 magnetization 

 Broyden mixing:
  rms(total) = 0.65796E-03    rms(broyden)= 0.65767E-03
  rms(prec ) = 0.90815E-03
  weight for this iteration     100.00

 eigenvalues of (default mixing * dielectric matrix)
  average eigenvalue GAMMA=   2.1408
  7.1945  3.4216  2.2629  2.2629  1.6461  1.6461  1.3371  0.9931  0.9931  0.8955
  0.8955

 Free energy of the ion-electron system (eV)
  ---------------------------------------------------
  alpha Z        PSCENC =         0.04144063
  Ewald energy   TEWEN  =       702.83441463
  -Hartree energ DENC   =     -1177.85667170
  -exchange      EXHF   =         0.00000000
  -V(xc)+E(xc)   XCENC  =        54.86244025
  PAW double counting   =      1328.17385502    -1331.04141236
  entropy T*S    EENTRO =         0.00000000
  eigenvalues    EBANDS =      -208.82088734
  atomic energy  EATOM  =       596.16534815
  Solvation  Ediel_sol  =         0.00000000
  ---------------------------------------------------
  free energy    TOTEN  =       -35.64147272 eV

  energy without entropy =      -35.64147272  energy(sigma->0) =      -35.64147272


--------------------------------------------------------------------------------------------------------




----------------------------------------- Iteration    1(  17)  ---------------------------------------


    POTLOK:  cpu time   16.7824: real time   16.8191
    SETDIJ:  cpu time    0.0060: real time    0.0062
     EDDAV:  cpu time   49.8484: real time   49.9594
       DOS:  cpu time    0.0000: real time    0.0002
    CHARGE:  cpu time    4.9352: real time    4.9472
    MIXING:  cpu time    1.1788: real time    1.1808
    --------------------------------------------
      LOOP:  cpu time   72.7519: real time   72.9171

 eigenvalue-minimisations  :    84
 total energy-change (2. order) :-0.8129209E-03  (-0.2634337E-05)
 number of electron      15.9999991 magnetization 
 augmentation part        0.4496835 magnetization 

 Broyden mixing:
  rms(total) = 0.40458E-03    rms(broyden)= 0.40445E-03
  rms(prec ) = 0.53733E-03
  weight for this iteration     100.00

 eigenvalues of (default mixing * dielectric matrix)
  average eigenvalue GAMMA=   2.2553
  8.0770  4.2752  2.7290  2.3385  1.6191  1.6191  1.5746  1.0920  0.9846  0.9846
  0.8846  0.8846

 Free energy of the ion-electron system (eV)
  ---------------------------------------------------
  alpha Z        PSCENC =         0.04144063
  Ewald energy   TEWEN  =       702.83441463
  -Hartree energ DENC   =     -1177.86589092
  -exchange      EXHF   =         0.00000000
  -V(xc)+E(xc)   XCENC  =        54.86136431
  PAW double counting   =      1328.04224112    -1330.90955179
  entropy T*S    EENTRO =         0.00000000
  eigenvalues    EBANDS =      -208.81165176
  atomic energy  EATOM  =       596.16534815
  Solvation  Ediel_sol  =         0.00000000
  ---------------------------------------------------
  free energy    TOTEN  =       -35.64228564 eV

  energy without entropy =      -35.64228564  energy(sigma->0) =      -35.64228564


--------------------------------------------------------------------------------------------------------




----------------------------------------- Iteration    1(  18)  ---------------------------------------


    POTLOK:  cpu time   16.9364: real time   16.9748
    SETDIJ:  cpu time    0.0060: real time    0.0063
     EDDAV:  cpu time   45.4961: real time   45.5971
       DOS:  cpu time    0.0000: real time    0.0002
    CHARGE:  cpu time    5.0032: real time    5.0151
    MIXING:  cpu time    1.1778: real time    1.1804
    --------------------------------------------
      LOOP:  cpu time   68.6226: real time   68.7784

 eigenvalue-minimisations  :    72
 total energy-change (2. order) :-0.3812551E-03  (-0.2714030E-05)
 number of electron      15.9999991 magnetization 
 augmentation part        0.4496859 magnetization 

 Broyden mixing:
  rms(total) = 0.27421E-03    rms(broyden)= 0.27417E-03
  rms(prec ) = 0.33724E-03
  weight for this iteration     100.00

 eigenvalues of (default mixing * dielectric matrix)
  average eigenvalue GAMMA=   2.3572
  8.4426  4.7611  2.6717  2.6717  2.5300  1.6493  1.6493  1.4648  1.0006  1.0006
  0.8954  0.8954  1.0107

 Free energy of the ion-electron system (eV)
  ---------------------------------------------------
  alpha Z        PSCENC =         0.04144063
  Ewald energy   TEWEN  =       702.83441463
  -Hartree energ DENC   =     -1177.85885791
  -exchange      EXHF   =         0.00000000
  -V(xc)+E(xc)   XCENC  =        54.86058079
  PAW double counting   =      1328.25393697    -1331.12125690
  entropy T*S    EENTRO =         0.00000000
  eigenvalues    EBANDS =      -208.81827326
  atomic energy  EATOM  =       596.16534815
  Solvation  Ediel_sol  =         0.00000000
  ---------------------------------------------------
  free energy    TOTEN  =       -35.64266690 eV

  energy without entropy =      -35.64266690  energy(sigma->0) =      -35.64266690


--------------------------------------------------------------------------------------------------------




----------------------------------------- Iteration    1(  19)  ---------------------------------------


    POTLOK:  cpu time   15.8426: real time   15.8769
    SETDIJ:  cpu time    0.0060: real time    0.0062
     EDDAV:  cpu time   48.7906: real time   48.8988
       DOS:  cpu time    0.0000: real time    0.0002
    CHARGE:  cpu time    5.0752: real time    5.0864
    MIXING:  cpu time    1.3938: real time    1.3964
    --------------------------------------------
      LOOP:  cpu time   71.1092: real time   71.2696

 eigenvalue-minimisations  :    80
 total energy-change (2. order) :-0.2353861E-03  (-0.1055484E-05)
 number of electron      15.9999991 magnetization 
 augmentation part        0.4497014 magnetization 

 Broyden mixing:
  rms(total) = 0.29529E-03    rms(broyden)= 0.29519E-03
  rms(prec ) = 0.31599E-03
  weight for this iteration     100.00

 eigenvalues of (default mixing * dielectric matrix)
  average eigenvalue GAMMA=   2.3306
  8.6705  5.3215  3.2613  2.5865  2.0983  1.7569  1.6072  1.6072  1.0182  1.0182
  1.0720  0.8796  0.8796  0.8508

 Free energy of the ion-electron system (eV)
  ---------------------------------------------------
  alpha Z        PSCENC =         0.04144063
  Ewald energy   TEWEN  =       702.83441463
  -Hartree energ DENC   =     -1177.85196217
  -exchange      EXHF   =         0.00000000
  -V(xc)+E(xc)   XCENC  =        54.86004478
  PAW double counting   =      1328.20075605    -1331.06820045
  entropy T*S    EENTRO =         0.00000000
  eigenvalues    EBANDS =      -208.82474391
  atomic energy  EATOM  =       596.16534815
  Solvation  Ediel_sol  =         0.00000000
  ---------------------------------------------------
  free energy    TOTEN  =       -35.64290228 eV

  energy without entropy =      -35.64290228  energy(sigma->0) =      -35.64290228


--------------------------------------------------------------------------------------------------------




----------------------------------------- Iteration    1(  20)  ---------------------------------------


    POTLOK:  cpu time   16.6815: real time   16.7196
    SETDIJ:  cpu time    0.0070: real time    0.0063
     EDDAV:  cpu time   54.9916: real time   55.1446
       DOS:  cpu time    0.0000: real time    0.0003
    --------------------------------------------
      LOOP:  cpu time   71.6811: real time   71.8745

 eigenvalue-minimisations  :    96
 total energy-change (2. order) :-0.3614338E-04  (-0.2777622E-06)
 number of electron      15.9999991 magnetization 
 augmentation part        0.4497014 magnetization 

 Free energy of the ion-electron system (eV)
  ---------------------------------------------------
  alpha Z        PSCENC =         0.04144063
  Ewald energy   TEWEN  =       702.83441463
  -Hartree energ DENC   =     -1177.85264827
  -exchange      EXHF   =         0.00000000
  -V(xc)+E(xc)   XCENC  =        54.85996704
  PAW double counting   =      1328.12405050    -1330.99143900
  entropy T*S    EENTRO =         0.00000000
  eigenvalues    EBANDS =      -208.82407210
  atomic energy  EATOM  =       596.16534815
  Solvation  Ediel_sol  =         0.00000000
  ---------------------------------------------------
  free energy    TOTEN  =       -35.64293842 eV

  energy without entropy =      -35.64293842  energy(sigma->0) =      -35.64293842


--------------------------------------------------------------------------------------------------------




 average (electrostatic) potential at core
  the test charge radii are     0.5201  0.6991  0.7089
  (the norm of the test charge is              1.0000)
       1 -43.0792       2 -43.0797       3 -43.0782       4 -60.5330       5 -59.3500
       6 -74.8314
 
 
 
 E-fermi :  -6.1894     XC(G=0):  -0.0946     alpha+bet : -0.0137


 k-point     1 :       0.2500    0.2500    0.2500
  band No.  band energies     occupation 
      1     -23.8891      2.00000
      2     -19.2977      2.00000
      3     -13.8812      2.00000
      4     -11.8047      2.00000
      5     -11.7938      2.00000
      6      -8.3023      2.00000
      7      -8.2980      2.00000
      8      -7.1454      2.00000
      9      -0.7698      0.00000
     10      -0.6694      0.00000
     11      -0.6582      0.00000
     12      -0.0129      0.00000

 k-point     2 :      -0.2500    0.2500    0.2500
  band No.  band energies     occupation 
      1     -23.8891      2.00000
      2     -19.2977      2.00000
      3     -13.8812      2.00000
      4     -11.8047      2.00000
      5     -11.7938      2.00000
      6      -8.3023      2.00000
      7      -8.2980      2.00000
      8      -7.1454      2.00000
      9      -0.7698      0.00000
     10      -0.6694      0.00000
     11      -0.6582      0.00000
     12      -0.0127      0.00000

 k-point     3 :       0.2500   -0.2500    0.2500
  band No.  band energies     occupation 
      1     -23.8891      2.00000
      2     -19.2977      2.00000
      3     -13.8812      2.00000
      4     -11.8047      2.00000
      5     -11.7938      2.00000
      6      -8.3023      2.00000
      7      -8.2980      2.00000
      8      -7.1454      2.00000
      9      -0.7698      0.00000
     10      -0.6694      0.00000
     11      -0.6582      0.00000
     12      -0.0129      0.00000

 k-point     4 :      -0.2500   -0.2500    0.2500
  band No.  band energies     occupation 
      1     -23.8891      2.00000
      2     -19.2977      2.00000
      3     -13.8812      2.00000
      4     -11.8047      2.00000
      5     -11.7938      2.00000
      6      -8.3023      2.00000
      7      -8.2980      2.00000
      8      -7.1454      2.00000
      9      -0.7698      0.00000
     10      -0.6694      0.00000
     11      -0.6582      0.00000
     12      -0.0128      0.00000


--------------------------------------------------------------------------------------------------------


 soft charge-density along one line, spin component           1
         0         1         2         3         4         5         6         7         8         9
 total charge-density along one line
 
 pseudopotential strength for first ion, spin component:           1
 -2.363  -4.075  -0.002   0.000  -0.001
 -4.075  -6.942  -0.005   0.001  -0.002
 -0.002  -0.005  -0.330  -0.001   0.002
  0.000   0.001  -0.001  -0.334   0.000
 -0.001  -0.002   0.002   0.000  -0.333
 total augmentation occupancy for first ion, spin component:           1
  3.521  -0.634   0.394  -0.107   0.175
 -0.634   0.131  -0.073   0.020  -0.032
  0.394  -0.073   0.046  -0.010   0.017
 -0.107   0.020  -0.010   0.012  -0.005
  0.175  -0.032   0.017  -0.005   0.013


------------------------ aborting loop because EDIFF is reached ----------------------------------------


    CHARGE:  cpu time    4.9862: real time    4.9981
    FORLOC:  cpu time    2.3206: real time    2.3262
    FORNL :  cpu time   16.3405: real time   16.3783
    STRESS:  cpu time   49.4425: real time   49.5516
    FORCOR:  cpu time   18.2262: real time   18.2646
    FORHAR:  cpu time    6.2640: real time    6.2777
    MIXING:  cpu time    1.2328: real time    1.2354
    OFIELD:  cpu time    0.0000: real time    0.0000

  FORCE on cell =-STRESS in cart. coord.  units (eV):
  Direction    XX          YY          ZZ          XY          YZ          ZX
  --------------------------------------------------------------------------------------
  Alpha Z     0.04144     0.04144     0.04144
  Ewald     621.17771    42.13713    39.51927   -40.76692     0.39018    -7.14436
  Hartree   595.71383   291.73399   290.40966   -20.57558     0.16489    -3.07880
  E(xc)     -58.76850   -60.18907   -60.19556    -0.10642     0.00120    -0.02290
  Local   -1355.50481  -508.64213  -504.86942    58.57004    -0.51451     9.58296
  n-local   -26.66586   -24.39589   -24.37431     0.24939    -0.00610     0.10334
  augment     0.45914     0.99700     0.99654     0.03821    -0.00045     0.00672
  Kinetic   222.71337   257.33116   257.47209     2.60137    -0.02710     0.56946
  Fock        0.00000     0.00000     0.00000     0.00000     0.00000     0.00000
  -------------------------------------------------------------------------------------
  Total      -0.83369    -0.98637    -1.00028     0.01010     0.00812     0.01642
  in kB      -0.04947    -0.05853    -0.05936     0.00060     0.00048     0.00097
  external pressure =       -0.06 kB  Pullay stress =        0.00 kB


 VOLUME and BASIS-vectors are now :
 -----------------------------------------------------------------------------
  energy-cutoff  :      400.00
  volume of cell :    27000.00
      direct lattice vectors                 reciprocal lattice vectors
    30.000000000  0.000000000  0.000000000     0.033333333  0.000000000  0.000000000
     0.000000000 30.000000000  0.000000000     0.000000000  0.033333333  0.000000000
     0.000000000  0.000000000 30.000000000     0.000000000  0.000000000  0.033333333

  length of vectors
    30.000000000 30.000000000 30.000000000     0.033333333  0.033333333  0.033333333


 FORCES acting on ions
    electron-ion (+dipol)            ewald-force                    non-local-force                 convergence-correction
 -----------------------------------------------------------------------------------------------
   0.374E+02 0.536E+02 -.149E+02   -.396E+02 -.587E+02 0.162E+02   0.225E+01 0.503E+01 -.137E+01   -.191E-04 0.337E-03 -.866E-04
   0.334E+02 -.170E+02 0.556E+02   -.353E+02 0.185E+02 -.607E+02   0.188E+01 -.150E+01 0.514E+01   -.443E-04 -.899E-04 0.335E-03
   0.321E+02 -.424E+02 -.408E+02   -.338E+02 0.463E+02 0.446E+02   0.179E+01 -.385E+01 -.378E+01   -.437E-04 -.249E-03 -.247E-03
   0.121E+03 -.750E+01 -.477E+00   -.129E+03 0.793E+01 0.464E+00   0.757E+01 -.425E+00 0.157E-01   -.185E-02 0.964E-04 0.324E-04
   -.230E+03 0.181E+02 0.449E+01   0.256E+03 -.203E+02 -.514E+01   -.265E+02 0.225E+01 0.668E+00   0.217E-02 -.201E-03 -.584E-04
   0.158E+02 -.560E+01 -.409E+01   -.187E+02 0.632E+01 0.457E+01   0.304E+01 -.747E+00 -.508E+00   -.195E-02 0.123E-03 0.352E-04
 -----------------------------------------------------------------------------------------------
   0.997E+01 -.764E+00 -.175E+00   -.284E-13 0.178E-14 0.888E-15   -.997E+01 0.767E+00 0.174E+00   -.174E-02 0.174E-04 0.108E-04
 
 
 POSITION                                       TOTAL-FORCE (eV/Angst)
 -----------------------------------------------------------------------------------
     14.07605     14.05241     15.27049        -0.014131     -0.003869     -0.006569
     14.14680     15.31893     14.00663        -0.013096     -0.002171      0.006301
     14.16682     15.77600     15.73696         0.011932      0.011536      0.001522
     14.50423     15.02910     15.00484        -0.008765     -0.001472      0.003047
     17.09471     14.85140     14.97718        -0.044176      0.025534      0.024532
     15.91802     14.94822     15.00380         0.068237     -0.029558     -0.028833
 -----------------------------------------------------------------------------------
    total drift:                               -0.007467      0.003722     -0.000611


--------------------------------------------------------------------------------------------------------



  FREE ENERGIE OF THE ION-ELECTRON SYSTEM (eV)
  ---------------------------------------------------
  free  energy   TOTEN  =       -35.64293842 eV

  energy  without entropy=      -35.64293842  energy(sigma->0) =      -35.64293842
 


--------------------------------------------------------------------------------------------------------


    POTLOK:  cpu time   15.2757: real time   15.3077


--------------------------------------------------------------------------------------------------------


 NEB: the previous image is higher in energy: F
 NEB: the next image is higher in energy    : T
 NEB: only next energy greater

 NEB: Tangent
 ----------------------------------------------
      0.10934      0.07773      0.06941
      0.12977      0.12707      0.11835
     -0.12640      0.07906      0.13079
      0.02405      0.12871      0.14775
     -0.12555     -0.52428     -0.73765
      0.02369      0.09615      0.08554

 NEB: forces: par spring, perp REAL, dneb     0.089758    0.096351    0.000000
 NEB: distance to prev, next image, angle between     0.190403    0.172452  120.965958
 NEB: projections on to tangent (spring, REAL)    -0.089758   -0.033508

 stress matrix after NEB project (eV)
     -0.83369      0.01010      0.01642
      0.01010     -0.98637      0.00812
      0.01642      0.00812     -1.00028
  FORCES: max atom, RMS     0.093619    0.053759
  FORCE total and by dimension    0.131682    0.066904
  Stress total and by dimension    1.633826    1.000278
 
 OPT: Flag T
 OPT: FIRE Step
 OPT: FIRE, TIMESTEP      0.10000
 OPT: FIRE, alpha         0.10000


--------------------------------------------------------------------------------------------------------


    WAVPRE:  cpu time    7.6698: real time    8.6970
 FEWALD executed in parallel
    FEWALD:  cpu time    0.0000: real time    0.0004
    ORTHCH:  cpu time    7.2579: real time    7.7737
     LOOP+:  cpu time 2814.2972: real time 2821.5114


----------------------------------------- Iteration    2(   1)  ---------------------------------------


    POTLOK:  cpu time   23.4044: real time   23.4579
    SETDIJ:  cpu time    0.0070: real time    0.0065
     EDDAV:  cpu time   67.6697: real time   67.8265
       DOS:  cpu time    0.0000: real time    0.0002
    CHARGE:  cpu time    6.9519: real time    6.9694
    MIXING:  cpu time    0.6189: real time    0.6196
    --------------------------------------------
      LOOP:  cpu time   98.6540: real time   98.8822

 eigenvalue-minimisations  :   100
 total energy-change (2. order) :-0.1310733E-03  (-0.5089316E-03)
 number of electron      15.9999991 magnetization 
 augmentation part        0.4498924 magnetization 

 Broyden mixing:
  rms(total) = 0.26767E-02    rms(broyden)= 0.26710E-02
  rms(prec ) = 0.27503E-02
  weight for this iteration     100.00

 Free energy of the ion-electron system (eV)
  ---------------------------------------------------
  alpha Z        PSCENC =         0.04144063
  Ewald energy   TEWEN  =       702.93704914
  -Hartree energ DENC   =     -1177.89933318
  -exchange      EXHF   =         0.00000000
  -V(xc)+E(xc)   XCENC  =        54.86244006
  PAW double counting   =      1328.16286894    -1331.03025027
  entropy T*S    EENTRO =         0.00000000
  eigenvalues    EBANDS =      -208.88259682
  atomic energy  EATOM  =       596.16534815
  Solvation  Ediel_sol  =         0.00000000
  ---------------------------------------------------
  free energy    TOTEN  =       -35.64303335 eV

  energy without entropy =      -35.64303335  energy(sigma->0) =      -35.64303335


--------------------------------------------------------------------------------------------------------




----------------------------------------- Iteration    2(   2)  ---------------------------------------


    POTLOK:  cpu time   24.2703: real time   24.3274
    SETDIJ:  cpu time    0.0070: real time    0.0068
     EDDAV:  cpu time   68.9285: real time   69.2567
       DOS:  cpu time    0.0000: real time    0.0002
    CHARGE:  cpu time    5.6091: real time    5.6232
    MIXING:  cpu time    0.6919: real time    0.6940
    --------------------------------------------
      LOOP:  cpu time   99.5089: real time   99.9125

 eigenvalue-minimisations  :    96
 total energy-change (2. order) :-0.3855930E-05  (-0.1082928E-04)
 number of electron      15.9999991 magnetization 
 augmentation part        0.4500345 magnetization 

 Broyden mixing:
  rms(total) = 0.13910E-02    rms(broyden)= 0.13898E-02
  rms(prec ) = 0.14235E-02
  weight for this iteration     100.00

 eigenvalues of (default mixing * dielectric matrix)
  average eigenvalue GAMMA=   1.1387
  1.1387

 Free energy of the ion-electron system (eV)
  ---------------------------------------------------
  alpha Z        PSCENC =         0.04144063
  Ewald energy   TEWEN  =       702.93704914
  -Hartree energ DENC   =     -1177.90325155
  -exchange      EXHF   =         0.00000000
  -V(xc)+E(xc)   XCENC  =        54.86307738
  PAW double counting   =      1328.52976922    -1331.39751012
  entropy T*S    EENTRO =         0.00000000
  eigenvalues    EBANDS =      -208.87896005
  atomic energy  EATOM  =       596.16534815
  Solvation  Ediel_sol  =         0.00000000
  ---------------------------------------------------
  free energy    TOTEN  =       -35.64303721 eV

  energy without entropy =      -35.64303721  energy(sigma->0) =      -35.64303721


--------------------------------------------------------------------------------------------------------




----------------------------------------- Iteration    2(   3)  ---------------------------------------


    POTLOK:  cpu time   22.1676: real time   22.2213
    SETDIJ:  cpu time    0.0070: real time    0.0066
     EDDAV:  cpu time   52.9320: real time   53.0600
       DOS:  cpu time    0.0000: real time    0.0002
    CHARGE:  cpu time    6.3940: real time    6.4105
    MIXING:  cpu time    0.6769: real time    0.6778
    --------------------------------------------
      LOOP:  cpu time   82.1795: real time   82.3799

 eigenvalue-minimisations  :    64
 total energy-change (2. order) :-0.6018882E-05  (-0.2010682E-05)
 number of electron      15.9999991 magnetization 
 augmentation part        0.4500345 magnetization 

 Broyden mixing:
  rms(total) = 0.76642E-03    rms(broyden)= 0.76613E-03
  rms(prec ) = 0.77896E-03
  weight for this iteration     100.00

 eigenvalues of (default mixing * dielectric matrix)
  average eigenvalue GAMMA=   1.4763
  1.0866  1.8659

 Free energy of the ion-electron system (eV)
  ---------------------------------------------------
  alpha Z        PSCENC =         0.04144063
  Ewald energy   TEWEN  =       702.93704914
  -Hartree energ DENC   =     -1177.92328375
  -exchange      EXHF   =         0.00000000
  -V(xc)+E(xc)   XCENC  =        54.86411433
  PAW double counting   =      1328.83508916    -1331.70320062
  entropy T*S    EENTRO =         0.00000000
  eigenvalues    EBANDS =      -208.85960027
  atomic energy  EATOM  =       596.16534815
  Solvation  Ediel_sol  =         0.00000000
  ---------------------------------------------------
  free energy    TOTEN  =       -35.64304323 eV

  energy without entropy =      -35.64304323  energy(sigma->0) =      -35.64304323


--------------------------------------------------------------------------------------------------------




----------------------------------------- Iteration    2(   4)  ---------------------------------------


    POTLOK:  cpu time   20.5799: real time   20.6294
    SETDIJ:  cpu time    0.0060: real time    0.0065
     EDDAV:  cpu time   54.7577: real time   54.8896
[...]
  Solvation  Ediel_sol  =         0.00000000
  ---------------------------------------------------
  free energy    TOTEN  =       -35.64343031 eV

  energy without entropy =      -35.64343031  energy(sigma->0) =      -35.64343031


--------------------------------------------------------------------------------------------------------




----------------------------------------- Iteration   28(   2)  ---------------------------------------


    POTLOK:  cpu time   23.9324: real time   23.9904
    SETDIJ:  cpu time    0.0070: real time    0.0069
     EDDAV:  cpu time   42.1596: real time   42.2562
       DOS:  cpu time    0.0000: real time    0.0002
    CHARGE:  cpu time    5.9721: real time    5.9856
    MIXING:  cpu time    0.6909: real time    0.6931
    --------------------------------------------
      LOOP:  cpu time   72.7629: real time   72.9365

 eigenvalue-minimisations  :    48
 total energy-change (2. order) :-0.2201439E-06  (-0.4088205E-07)
 number of electron      15.9999992 magnetization 
 augmentation part        0.4497684 magnetization 

 Broyden mixing:
  rms(total) = 0.36607E-04    rms(broyden)= 0.36571E-04
  rms(prec ) = 0.38239E-04
  weight for this iteration     100.00

 eigenvalues of (default mixing * dielectric matrix)
  average eigenvalue GAMMA=   1.5323
  1.5323

 Free energy of the ion-electron system (eV)
  ---------------------------------------------------
  alpha Z        PSCENC =         0.04144063
  Ewald energy   TEWEN  =       702.79904935
  -Hartree energ DENC   =     -1177.81532328
  -exchange      EXHF   =         0.00000000
  -V(xc)+E(xc)   XCENC  =        54.86017475
  PAW double counting   =      1328.37525931    -1331.24288989
  entropy T*S    EENTRO =         0.00000000
  eigenvalues    EBANDS =      -208.82648955
  atomic energy  EATOM  =       596.16534815
  Solvation  Ediel_sol  =         0.00000000
  ---------------------------------------------------
  free energy    TOTEN  =       -35.64343053 eV

  energy without entropy =      -35.64343053  energy(sigma->0) =      -35.64343053


--------------------------------------------------------------------------------------------------------




----------------------------------------- Iteration   28(   3)  ---------------------------------------


    POTLOK:  cpu time   25.4071: real time   25.4668
    SETDIJ:  cpu time    0.0060: real time    0.0066
     EDDAV:  cpu time   44.4972: real time   44.6037
       DOS:  cpu time    0.0000: real time    0.0002
    CHARGE:  cpu time    6.4590: real time    6.4751
    MIXING:  cpu time    0.7539: real time    0.7558
    --------------------------------------------
      LOOP:  cpu time   77.1253: real time   77.3126

 eigenvalue-minimisations  :    48
 total energy-change (2. order) :-0.2594052E-06  (-0.9204302E-08)
 number of electron      15.9999992 magnetization 
 augmentation part        0.4497689 magnetization 

 Broyden mixing:
  rms(total) = 0.16091E-04    rms(broyden)= 0.16068E-04
  rms(prec ) = 0.18081E-04
  weight for this iteration     100.00

 eigenvalues of (default mixing * dielectric matrix)
  average eigenvalue GAMMA=   1.6422
  1.0867  2.1978

 Free energy of the ion-electron system (eV)
  ---------------------------------------------------
  alpha Z        PSCENC =         0.04144063
  Ewald energy   TEWEN  =       702.79904935
  -Hartree energ DENC   =     -1177.81546947
  -exchange      EXHF   =         0.00000000
  -V(xc)+E(xc)   XCENC  =        54.86018326
  PAW double counting   =      1328.37695121    -1331.24458511
  entropy T*S    EENTRO =         0.00000000
  eigenvalues    EBANDS =      -208.82634881
  atomic energy  EATOM  =       596.16534815
  Solvation  Ediel_sol  =         0.00000000
  ---------------------------------------------------
  free energy    TOTEN  =       -35.64343079 eV

  energy without entropy =      -35.64343079  energy(sigma->0) =      -35.64343079


--------------------------------------------------------------------------------------------------------




----------------------------------------- Iteration   28(   4)  ---------------------------------------


    POTLOK:  cpu time   25.2272: real time   25.2864
    SETDIJ:  cpu time    0.0060: real time    0.0064
     EDDAV:  cpu time   43.1584: real time   43.2580
       DOS:  cpu time    0.0000: real time    0.0002
    CHARGE:  cpu time    6.2241: real time    6.2385
    MIXING:  cpu time    0.7619: real time    0.7645
    --------------------------------------------
      LOOP:  cpu time   75.3805: real time   75.5585

 eigenvalue-minimisations  :    48
 total energy-change (2. order) :-0.2595996E-06  (-0.4971702E-08)
 number of electron      15.9999992 magnetization 
 augmentation part        0.4497688 magnetization 

 Broyden mixing:
  rms(total) = 0.60821E-05    rms(broyden)= 0.60723E-05
  rms(prec ) = 0.87527E-05
  weight for this iteration     100.00

 eigenvalues of (default mixing * dielectric matrix)
  average eigenvalue GAMMA=   1.6036
  2.3641  0.9816  1.4650

 Free energy of the ion-electron system (eV)
  ---------------------------------------------------
  alpha Z        PSCENC =         0.04144063
  Ewald energy   TEWEN  =       702.79904935
  -Hartree energ DENC   =     -1177.81560382
  -exchange      EXHF   =         0.00000000
  -V(xc)+E(xc)   XCENC  =        54.86019000
  PAW double counting   =      1328.37870989    -1331.24634605
  entropy T*S    EENTRO =         0.00000000
  eigenvalues    EBANDS =      -208.82621919
  atomic energy  EATOM  =       596.16534815
  Solvation  Ediel_sol  =         0.00000000
  ---------------------------------------------------
  free energy    TOTEN  =       -35.64343105 eV

  energy without entropy =      -35.64343105  energy(sigma->0) =      -35.64343105


--------------------------------------------------------------------------------------------------------




----------------------------------------- Iteration   28(   5)  ---------------------------------------


    POTLOK:  cpu time   25.3262: real time   25.3845
    SETDIJ:  cpu time    0.0060: real time    0.0067
     EDDAV:  cpu time   44.5972: real time   44.7030
       DOS:  cpu time    0.0000: real time    0.0002
    CHARGE:  cpu time    6.6210: real time    6.6370
    MIXING:  cpu time    0.8389: real time    0.8400
    --------------------------------------------
      LOOP:  cpu time   77.3922: real time   77.5760

 eigenvalue-minimisations  :    48
 total energy-change (2. order) :-0.1941337E-06  (-0.3744118E-08)
 number of electron      15.9999992 magnetization 
 augmentation part        0.4497687 magnetization 

 Broyden mixing:
  rms(total) = 0.46802E-05    rms(broyden)= 0.46747E-05
  rms(prec ) = 0.69230E-05
  weight for this iteration     100.00

 eigenvalues of (default mixing * dielectric matrix)
  average eigenvalue GAMMA=   1.6693
  2.7290  2.0036  1.1561  0.7884

 Free energy of the ion-electron system (eV)
  ---------------------------------------------------
  alpha Z        PSCENC =         0.04144063
  Ewald energy   TEWEN  =       702.79904935
  -Hartree energ DENC   =     -1177.81560495
  -exchange      EXHF   =         0.00000000
  -V(xc)+E(xc)   XCENC  =        54.86019017
  PAW double counting   =      1328.37968885    -1331.24732524
  entropy T*S    EENTRO =         0.00000000
  eigenvalues    EBANDS =      -208.82621821
  atomic energy  EATOM  =       596.16534815
  Solvation  Ediel_sol  =         0.00000000
  ---------------------------------------------------
  free energy    TOTEN  =       -35.64343124 eV

  energy without entropy =      -35.64343124  energy(sigma->0) =      -35.64343124


--------------------------------------------------------------------------------------------------------




----------------------------------------- Iteration   28(   6)  ---------------------------------------


    POTLOK:  cpu time   25.0542: real time   25.1118
    SETDIJ:  cpu time    0.0070: real time    0.0066
     EDDAV:  cpu time   59.4360: real time   59.5737
       DOS:  cpu time    0.0000: real time    0.0002
    --------------------------------------------
      LOOP:  cpu time   84.4992: real time   84.6954

 eigenvalue-minimisations  :    80
 total energy-change (2. order) :-0.2947604E-06  (-0.3524411E-08)
 number of electron      15.9999992 magnetization 
 augmentation part        0.4497687 magnetization 

 Free energy of the ion-electron system (eV)
  ---------------------------------------------------
  alpha Z        PSCENC =         0.04144063
  Ewald energy   TEWEN  =       702.79904935
  -Hartree energ DENC   =     -1177.81556560
  -exchange      EXHF   =         0.00000000
  -V(xc)+E(xc)   XCENC  =        54.86018844
  PAW double counting   =      1328.38080860    -1331.24844473
  entropy T*S    EENTRO =         0.00000000
  eigenvalues    EBANDS =      -208.82625638
  atomic energy  EATOM  =       596.16534815
  Solvation  Ediel_sol  =         0.00000000
  ---------------------------------------------------
  free energy    TOTEN  =       -35.64343154 eV

  energy without entropy =      -35.64343154  energy(sigma->0) =      -35.64343154


--------------------------------------------------------------------------------------------------------




 average (electrostatic) potential at core
  the test charge radii are     0.5201  0.6991  0.7089
  (the norm of the test charge is              1.0000)
       1 -43.0791       2 -43.0799       3 -43.0786       4 -60.5349       5 -59.3473
       6 -74.8310
 
 
 
 E-fermi :  -6.1625     XC(G=0):  -0.0598     alpha+bet : -0.0137


 k-point     1 :       0.2500    0.2500    0.2500
  band No.  band energies     occupation 
      1     -23.8892      2.00000
      2     -19.2981      2.00000
      3     -13.8810      2.00000
      4     -11.8003      2.00000
      5     -11.7958      2.00000
      6      -8.3044      2.00000
      7      -8.3010      2.00000
      8      -7.1433      2.00000
      9      -0.7657      0.00000
     10      -0.6642      0.00000
     11      -0.6593      0.00000
     12       0.0252      0.00000

 k-point     2 :      -0.2500    0.2500    0.2500
  band No.  band energies     occupation 
      1     -23.8892      2.00000
      2     -19.2981      2.00000
      3     -13.8810      2.00000
      4     -11.8003      2.00000
      5     -11.7958      2.00000
      6      -8.3043      2.00000
      7      -8.3010      2.00000
      8      -7.1433      2.00000
      9      -0.7657      0.00000
     10      -0.6642      0.00000
     11      -0.6593      0.00000
     12       0.0254      0.00000

 k-point     3 :       0.2500   -0.2500    0.2500
  band No.  band energies     occupation 
      1     -23.8892      2.00000
      2     -19.2981      2.00000
      3     -13.8810      2.00000
      4     -11.8004      2.00000
      5     -11.7958      2.00000
      6      -8.3043      2.00000
      7      -8.3010      2.00000
      8      -7.1433      2.00000
      9      -0.7657      0.00000
     10      -0.6642      0.00000
     11      -0.6593      0.00000
     12       0.0252      0.00000

 k-point     4 :      -0.2500   -0.2500    0.2500
  band No.  band energies     occupation 
      1     -23.8892      2.00000
      2     -19.2981      2.00000
      3     -13.8810      2.00000
      4     -11.8004      2.00000
      5     -11.7958      2.00000
      6      -8.3043      2.00000
      7      -8.3010      2.00000
      8      -7.1433      2.00000
      9      -0.7657      0.00000
     10      -0.6642      0.00000
     11      -0.6593      0.00000
     12       0.0252      0.00000


--------------------------------------------------------------------------------------------------------


 soft charge-density along one line, spin component           1
         0         1         2         3         4         5         6         7         8         9
 total charge-density along one line
 
 pseudopotential strength for first ion, spin component:           1
 -2.363  -4.075  -0.002   0.000  -0.001
 -4.075  -6.942  -0.005   0.001  -0.002
 -0.002  -0.005  -0.330  -0.001   0.002
  0.000   0.001  -0.001  -0.334   0.000
 -0.001  -0.002   0.002   0.000  -0.333
 total augmentation occupancy for first ion, spin component:           1
  3.521  -0.634   0.394  -0.107   0.177
 -0.634   0.131  -0.073   0.020  -0.032
  0.394  -0.073   0.046  -0.010   0.018
 -0.107   0.020  -0.010   0.012  -0.005
  0.177  -0.032   0.018  -0.005   0.014


------------------------ aborting loop because EDIFF is reached ----------------------------------------


    CHARGE:  cpu time    6.2411: real time    6.2556
    FORLOC:  cpu time    2.5186: real time    2.5242
    FORNL :  cpu time   18.8931: real time   18.9370
    STRESS:  cpu time   55.6345: real time   55.7622
    FORCOR:  cpu time   23.9304: real time   23.9819
    FORHAR:  cpu time    7.8188: real time    7.8349
    MIXING:  cpu time    0.8089: real time    0.8099
    OFIELD:  cpu time    0.0000: real time    0.0000

  FORCE on cell =-STRESS in cart. coord.  units (eV):
  Direction    XX          YY          ZZ          XY          YZ          ZX
  --------------------------------------------------------------------------------------
  Alpha Z     0.04144     0.04144     0.04144
  Ewald     621.30292    42.11364    39.38218   -40.43063     0.44917    -7.16679
  Hartree   595.71248   291.74238   290.36070   -20.66174     0.20407    -3.33313
  E(xc)     -58.76833   -60.18956   -60.19650    -0.10351     0.00137    -0.02106
  Local   -1355.57315  -508.64093  -504.70990    58.41409    -0.61231     9.93052
  n-local   -26.67292   -24.39346   -24.37852     0.21679    -0.00285     0.07518
  augment     0.45787     0.99680     0.99660     0.03786    -0.00051     0.00653
  Kinetic   222.68765   257.32826   257.50586     2.52993    -0.03790     0.52108
  Fock        0.00000     0.00000     0.00000     0.00000     0.00000     0.00000
  -------------------------------------------------------------------------------------
  Total      -0.81205    -1.00144    -0.99814     0.00280     0.00103     0.01234
  in kB      -0.04819    -0.05943    -0.05923     0.00017     0.00006     0.00073
  external pressure =       -0.06 kB  Pullay stress =        0.00 kB


 VOLUME and BASIS-vectors are now :
 -----------------------------------------------------------------------------
  energy-cutoff  :      400.00
  volume of cell :    27000.00
      direct lattice vectors                 reciprocal lattice vectors
    30.000000000  0.000000000  0.000000000     0.033333333  0.000000000  0.000000000
     0.000000000 30.000000000  0.000000000     0.000000000  0.033333333  0.000000000
     0.000000000  0.000000000 30.000000000     0.000000000  0.000000000  0.033333333

  length of vectors
    30.000000000 30.000000000 30.000000000     0.033333333  0.033333333  0.033333333


 FORCES acting on ions
    electron-ion (+dipol)            ewald-force                    non-local-force                 convergence-correction
 -----------------------------------------------------------------------------------------------
   0.375E+02 0.535E+02 -.148E+02   -.398E+02 -.585E+02 0.162E+02   0.227E+01 0.503E+01 -.136E+01   -.247E-05 0.781E-05 0.110E-04
   0.336E+02 -.172E+02 0.554E+02   -.355E+02 0.188E+02 -.605E+02   0.190E+01 -.152E+01 0.513E+01   -.287E-05 0.880E-05 0.101E-04
   0.317E+02 -.425E+02 -.410E+02   -.334E+02 0.463E+02 0.448E+02   0.175E+01 -.385E+01 -.379E+01   0.327E-05 0.862E-05 0.109E-04
   0.121E+03 -.780E+01 -.961E+00   -.128E+03 0.826E+01 0.993E+00   0.757E+01 -.460E+00 -.356E-01   -.109E-04 0.365E-04 0.442E-04
   -.230E+03 0.172E+02 0.388E+01   0.256E+03 -.193E+02 -.440E+01   -.265E+02 0.209E+01 0.540E+00   0.119E-04 0.467E-04 0.597E-04
   0.161E+02 -.398E+01 -.263E+01   -.192E+02 0.452E+01 0.294E+01   0.306E+01 -.548E+00 -.325E+00   0.393E-04 0.386E-04 0.530E-04
 -----------------------------------------------------------------------------------------------
   0.996E+01 -.736E+00 -.163E+00   0.568E-13 0.178E-14 0.444E-15   -.996E+01 0.741E+00 0.164E+00   0.382E-04 0.147E-03 0.189E-03
 
 
 POSITION                                       TOTAL-FORCE (eV/Angst)
 -----------------------------------------------------------------------------------
     14.07252     14.05338     15.26926        -0.008808      0.001684     -0.000786
     14.14353     15.32275     14.00950        -0.009015     -0.000675      0.002335
     14.17449     15.77659     15.74019         0.011846      0.000552     -0.000354
     14.50455     15.02892     15.00518         0.001181     -0.002967     -0.003537
     17.09525     14.85123     14.97570         0.001805      0.012405      0.014927
     15.91846     14.94219     14.99779         0.002992     -0.010999     -0.012584
 -----------------------------------------------------------------------------------
    total drift:                               -0.007781      0.004376      0.000826


--------------------------------------------------------------------------------------------------------



  FREE ENERGIE OF THE ION-ELECTRON SYSTEM (eV)
  ---------------------------------------------------
  free  energy   TOTEN  =       -35.64343154 eV

  energy  without entropy=      -35.64343154  energy(sigma->0) =      -35.64343154
 
 d Force = 0.2080127E-05[ 0.207E-05, 0.209E-05]  d Energy = 0.3744407E-05-0.166E-05
 d Force =-0.6473189E-03[-0.647E-03,-0.648E-03]  d Ewald  =-0.6473188E-03-0.686E-10


--------------------------------------------------------------------------------------------------------


    POTLOK:  cpu time   22.2616: real time   22.3080


--------------------------------------------------------------------------------------------------------


 NEB: the previous image is higher in energy: F
 NEB: the next image is higher in energy    : T
 NEB: only next energy greater

 NEB: Tangent
 ----------------------------------------------
      0.08973      0.06415     -0.02957
      0.10946      0.25426      0.15262
     -0.04403      0.00337      0.21840
      0.03997      0.12426      0.13380
     -0.09908     -0.55745     -0.68992
      0.03661      0.04944      0.04591

 NEB: forces: par spring, perp REAL, dneb     0.025742    0.023411    0.000000
 NEB: distance to prev, next image, angle between     0.196065    0.190916  124.180370
 NEB: projections on to tangent (spring, REAL)    -0.025742   -0.021258

 stress matrix after NEB project (eV)
     -0.81205      0.00280      0.01234
      0.00280     -1.00144      0.00103
      0.01234      0.00103     -0.99814
  FORCES: max atom, RMS     0.023494    0.014205
  FORCE total and by dimension    0.034795    0.018021
  Stress total and by dimension    1.630612    1.001439
 OPT: skip step - force has converged


--------------------------------------------------------------------------------------------------------


  
 reached required accuracy - stopping structural energy minimisation
     LOOP+:  cpu time  739.0846: real time  740.7240
    4ORBIT:  cpu time    0.0000: real time    0.0000

 total amount of memory used by VASP on root node  3203888. kBytes
========================================================================

   base      :      30000. kBytes
   nonlr-proj:        692. kBytes
   fftplans  :     924480. kBytes
   grid      :    1872000. kBytes
   one-center:         18. kBytes
   wavefun   :     376698. kBytes
 
  
  
 General timing and accounting informations for this job:
 ========================================================
  
                  Total CPU time used (sec):    22537.076
                            User time (sec):    22234.797
                          System time (sec):      302.280
                         Elapsed time (sec):    22605.899
  
                   Maximum memory used (kb):     4760192.
                   Average memory used (kb):           0.
  
                          Minor page faults:      3030791
                          Major page faults:            9
                 Voluntary context switches:         3672
