unknown system                          
           1
    30.000000    0.000000    0.000000
     0.000000   30.000000    0.000000
     0.000000    0.000000   30.000000
   H    C    N 
   3   2   1
Direct configuration=     1
   0.46919505  0.46841100  0.50901286
   0.47155326  0.51062788  0.46688757
   0.47223362  0.52586907  0.52456345
   0.48347105  0.50096694  0.50015967
   0.56981114  0.49506488  0.49926146
   0.53062285  0.49826248  0.50011546
Direct configuration=     2
   0.46919372  0.46841058  0.50901212
   0.47155192  0.51062728  0.46688775
   0.47223523  0.52586964  0.52456310
   0.48347194  0.50096619  0.50015930
   0.56981774  0.49506786  0.49926563
   0.53061629  0.49826076  0.50011318
Direct configuration=     3
   0.46919097  0.46840973  0.50901063
   0.47154912  0.51062605  0.46688811
   0.47223850  0.52587076  0.52456236
   0.48347313  0.50096467  0.50015851
   0.56982745  0.49507430  0.49927429
   0.53060743  0.49825691  0.50010846
Direct configuration=     4
   0.46918675  0.46840850  0.50900841
   0.47154481  0.51062418  0.46688861
   0.47224343  0.52587235  0.52456116
   0.48347368  0.50096241  0.50015727
   0.56983469  0.49508465  0.49928758
   0.53060286  0.49825050  0.50010128
Direct configuration=     5
   0.46918126  0.46840700  0.50900558
   0.47153918  0.51062179  0.46688924
   0.47224981  0.52587426  0.52455956
   0.48347319  0.50095954  0.50015562
   0.56983649  0.49509859  0.49930484
   0.53060579  0.49824162  0.50009201
Direct configuration=     6
   0.46917465  0.46840533  0.50900225
   0.47153236  0.51061897  0.46689002
   0.47225766  0.52587643  0.52455756
   0.48347196  0.50095613  0.50015360
   0.56983411  0.49511560  0.49932551
   0.53061441  0.49823060  0.50008087
Direct configuration=     7
   0.46916693  0.46840363  0.50899845
   0.47152435  0.51061582  0.46689105
   0.47226735  0.52587885  0.52455521
   0.48347096  0.50095206  0.50015122
   0.56983274  0.49513518  0.49934927
   0.53062216  0.49821780  0.50006790
Direct configuration=     8
   0.46915765  0.46840187  0.50899402
   0.47151466  0.51061222  0.46689253
   0.47227985  0.52588164  0.52455238
   0.48347116  0.50094704  0.50014833
   0.56983803  0.49515804  0.49937717
   0.53062240  0.49820285  0.50005235
Direct configuration=     9
   0.46914666  0.46840023  0.50898909
   0.47150310  0.51060831  0.46689456
   0.47229577  0.52588466  0.52454909
   0.48347278  0.50094097  0.50014469
   0.56985064  0.49518420  0.49940900
   0.53061399  0.49818564  0.50003426
Direct configuration=    10
   0.46913330  0.46839896  0.50898378
   0.47148891  0.51060417  0.46689723
   0.47231663  0.52588756  0.52454513
   0.48347392  0.50093367  0.50013981
   0.56985901  0.49521547  0.49944578
   0.53061033  0.49816454  0.50001307
Direct configuration=    11
   0.46911792  0.46839822  0.50897860
   0.47147245  0.51060019  0.46690027
   0.47234223  0.52588999  0.52454073
   0.48347340  0.50092552  0.50013387
   0.56985647  0.49525089  0.49948556
   0.53061880  0.49813992  0.49998978
Direct configuration=    12
   0.46910061  0.46839883  0.50897452
   0.47145377  0.51059792  0.46690376
   0.47237547  0.52589139  0.52453672
   0.48347377  0.50091641  0.50012706
   0.56985906  0.49528692  0.49952397
   0.53061823  0.49811343  0.49996526
Direct configuration=    13
   0.46910050  0.46839898  0.50897473
   0.47145366  0.51059825  0.46690379
   0.47237616  0.52589130  0.52453693
   0.48347390  0.50091642  0.50012702
   0.56985991  0.49528645  0.49952321
   0.53061688  0.49811345  0.49996531
Direct configuration=    14
   0.46910029  0.46839933  0.50897514
   0.47145348  0.51059903  0.46690392
   0.47237751  0.52589112  0.52453744
   0.48347412  0.50091651  0.50012700
   0.56986116  0.49528529  0.49952138
   0.53061469  0.49811347  0.49996543
Direct configuration=    15
   0.46910006  0.46839990  0.50897573
   0.47145329  0.51060040  0.46690426
   0.47237946  0.52589089  0.52453841
   0.48347433  0.50091677  0.50012710
   0.56986202  0.49528312  0.49951803
   0.53061258  0.49811347  0.49996562
Direct configuration=    16
   0.46909986  0.46840074  0.50897644
   0.47145318  0.51060254  0.46690495
   0.47238189  0.52589061  0.52453999
   0.48347445  0.50091730  0.50012742
   0.56986181  0.49527960  0.49951272
   0.53061137  0.49811340  0.49996587
Direct configuration=    17
   0.46909976  0.46840188  0.50897717
   0.47145325  0.51060575  0.46690615
   0.47238474  0.52589029  0.52454246
   0.48347449  0.50091822  0.50012811
   0.56986030  0.49527420  0.49950486
   0.53061135  0.49811324  0.49996615
Direct configuration=    18
   0.46909980  0.46840338  0.50897778
   0.47145358  0.51061039  0.46690809
   0.47238806  0.52588989  0.52454613
   0.48347455  0.50091964  0.50012929
   0.56985763  0.49526640  0.49949386
   0.53061235  0.49811294  0.49996638
Direct configuration=    19
   0.46910000  0.46840544  0.50897833
   0.47145425  0.51061717  0.46691110
   0.47239229  0.52588939  0.52455162
   0.48347476  0.50092180  0.50013117
   0.56985412  0.49525493  0.49947802
   0.53061372  0.49811246  0.49996652
Direct configuration=    20
   0.46910034  0.46840818  0.50897878
   0.47145529  0.51062661  0.46691545
   0.47239768  0.52588878  0.52455937
   0.48347534  0.50092483  0.50013392
   0.56985098  0.49523894  0.49945629
   0.53061402  0.49811178  0.49996647
Direct configuration=    21
   0.46910071  0.46841170  0.50897909
   0.47145665  0.51063913  0.46692142
   0.47240448  0.52588807  0.52456983
   0.48347653  0.50092894  0.50013765
   0.56984926  0.49521767  0.49942773
   0.53061212  0.49811077  0.49996601
Direct configuration=    22
   0.46910089  0.46841614  0.50897922
   0.47145819  0.51065527  0.46692931
   0.47241310  0.52588733  0.52458350
   0.48347815  0.50093426  0.50014254
   0.56984829  0.49519061  0.49939151
   0.53060911  0.49810899  0.49996470
Direct configuration=    23
   0.46910039  0.46842166  0.50897907
   0.47145946  0.51067543  0.46693936
   0.47242404  0.52588663  0.52460080
   0.48347953  0.50094080  0.50014867
   0.56984523  0.49515786  0.49934754
   0.53060914  0.49810554  0.49996173
Direct configuration=    24
   0.46909844  0.46842844  0.50897848
   0.47145974  0.51069990  0.46695182
   0.47243818  0.52588609  0.52462202
   0.48348046  0.50094836  0.50015608
   0.56984007  0.49512007  0.49929647
   0.53061327  0.49809932  0.49995579
Direct configuration=    25
   0.46909393  0.46843658  0.50897727
   0.47145789  0.51072828  0.46696657
   0.47245697  0.52588590  0.52464672
   0.48348244  0.50095644  0.50016470
   0.56984103  0.49507866  0.49924111
   0.53061232  0.49808962  0.49994513
Direct configuration=    26
   0.46908469  0.46844577  0.50897545
   0.47145159  0.51075845  0.46698317
   0.47248221  0.52588614  0.52467318
   0.48348491  0.50096415  0.50017309
   0.56984167  0.49504014  0.49918885
   0.53061504  0.49807360  0.49992718
Direct configuration=    27
   0.46908412  0.46844585  0.50897540
   0.47145100  0.51075833  0.46698327
   0.47248294  0.52588618  0.52467309
   0.48348497  0.50096393  0.50017281
   0.56984175  0.49504109  0.49919000
   0.53061530  0.49807290  0.49992639
Direct configuration=    28
   0.46908412  0.46844585  0.50897540
   0.47145100  0.51075833  0.46698327
   0.47248294  0.52588618  0.52467309
   0.48348497  0.50096393  0.50017281
   0.56984175  0.49504109  0.49919000
   0.53061530  0.49807290  0.49992639
