<?xml version="1.0" encoding="ISO-8859-1"?>
<modeling>
 <generator>
  <i name="program" type="string">vasp </i>
  <i name="version" type="string">5.4.1  </i>
  <i name="subversion" type="string">24Jun15 (build Jan 13 2020 12:58:22) complex                          parallel </i>
  <i name="platform" type="string">IFC91_ompi </i>
  <i name="date" type="string">2020 02 03 </i>
  <i name="time" type="string">09:59:13 </i>
 </generator>
 <incar>
  <i type="int" name="ISTART">     0</i>
  <i type="string" name="PREC">normal</i>
  <i type="int" name="NELM">   500</i>
  <i type="int" name="NELMIN">     6</i>
  <i type="int" name="IBRION">     3</i>
  <i name="EDIFF">      0.00010000</i>
  <i name="EDIFFG">     -0.10000000</i>
  <i type="int" name="NSW">   300</i>
  <i type="int" name="ISIF">     2</i>
  <i name="ENCUT">    400.00000000</i>
  <i name="POTIM">      0.00000000</i>
  <i name="SMASS">      2.00000000</i>
  <i type="string" name="LREAL"> Auto</i>
  <i type="int" name="ISMEAR">     0</i>
  <i name="SIGMA">      0.20000000</i>
  <i type="logical" name="LWAVE"> F  </i>
  <i type="logical" name="LCHARG"> F  </i>
  <v type="int" name="KPOINT_BSE">    -1     0     0     0</v>
  <i type="int" name="NELM">   500</i>
  <i type="string" name="GGA"> PE</i>
 </incar>
 <kpoints>
  <generation param="Monkhorst-Pack">
   <v type="int" name="divisions">       2        2        2 </v>
   <v name="usershift">      0.00000000       0.00000000       0.00000000 </v>
   <v name="genvec1">      0.50000000       0.00000000       0.00000000 </v>
   <v name="genvec2">      0.00000000       0.50000000       0.00000000 </v>
   <v name="genvec3">      0.00000000       0.00000000       0.50000000 </v>
   <v name="shift">      0.50000000       0.50000000       0.50000000 </v>
  </generation>
  <varray name="kpointlist" >
   <v>       0.25000000       0.25000000       0.25000000 </v>
   <v>      -0.25000000       0.25000000       0.25000000 </v>
   <v>       0.25000000      -0.25000000       0.25000000 </v>
   <v>      -0.25000000      -0.25000000       0.25000000 </v>
  </varray>
  <varray name="weights" >
   <v>       0.25000000 </v>
   <v>       0.25000000 </v>
   <v>       0.25000000 </v>
   <v>       0.25000000 </v>
  </varray>
 </kpoints>
 <parameters>
  <separator name="general" >
   <i type="string" name="SYSTEM">unknown system</i>
   <i type="logical" name="LCOMPAT"> F  </i>
  </separator>
  <separator name="electronic" >
   <i type="string" name="PREC">normal</i>
   <i name="ENMAX">    400.00000000</i>
   <i name="ENAUG">    644.87300000</i>
   <i name="EDIFF">      0.00010000</i>
   <i type="int" name="IALGO">    38</i>
   <i type="int" name="IWAVPR">    11</i>
   <i type="int" name="NBANDS">    41</i>
   <i name="NELECT">     58.00000000</i>
   <i type="int" name="TURBO">     0</i>
   <i type="int" name="IRESTART">     0</i>
   <i type="int" name="NREBOOT">     0</i>
   <i type="int" name="NMIN">     0</i>
   <i name="EREF">      0.00000000</i>
   <separator name="electronic smearing" >
    <i type="int" name="ISMEAR">     0</i>
    <i name="SIGMA">      0.20000000</i>
    <i name="KSPACING">      0.50000000</i>
    <i type="logical" name="KGAMMA"> T  </i>
   </separator>
   <separator name="electronic projectors" >
    <i type="logical" name="LREAL"> T  </i>
    <v name="ROPT">     -0.00050000     -0.00050000     -0.00050000     -0.00050000</v>
    <i type="int" name="LMAXPAW">  -100</i>
    <i type="int" name="LMAXMIX">     2</i>
    <i type="logical" name="NLSPLINE"> F  </i>
   </separator>
   <separator name="electronic startup" >
    <i type="int" name="ISTART">     0</i>
    <i type="int" name="ICHARG">     2</i>
    <i type="int" name="INIWAV">     1</i>
   </separator>
   <separator name="electronic spin" >
    <i type="int" name="ISPIN">     1</i>
    <i type="logical" name="LNONCOLLINEAR"> F  </i>
    <v name="MAGMOM">      1.00000000      1.00000000      1.00000000      1.00000000      1.00000000      1.00000000      1.00000000      1.00000000      1.00000000      1.00000000      1.00000000      1.00000000      1.00000000      1.00000000      1.00000000      1.00000000      1.00000000      1.00000000      1.00000000      1.00000000
      1.00000000      1.00000000</v>
    <i name="NUPDOWN">     -1.00000000</i>
    <i type="logical" name="LSORBIT"> F  </i>
    <v name="SAXIS">      0.00000000      0.00000000      1.00000000</v>
    <i type="logical" name="LSPIRAL"> F  </i>
    <v name="QSPIRAL">      0.00000000      0.00000000      0.00000000</v>
    <i type="logical" name="LZEROZ"> F  </i>
   </separator>
   <separator name="electronic exchange-correlation" >
    <i type="logical" name="LASPH"> F  </i>
    <i type="logical" name="LMETAGGA"> F  </i>
   </separator>
   <separator name="electronic convergence" >
    <i type="int" name="NELM">   500</i>
    <i type="int" name="NELMDL">    -5</i>
    <i type="int" name="NELMIN">     6</i>
    <i name="ENINI">    400.00000000</i>
    <separator name="electronic convergence detail" >
     <i type="logical" name="LDIAG"> T  </i>
     <i type="logical" name="LSUBROT"> F  </i>
     <i name="WEIMIN">      0.00100000</i>
     <i name="EBREAK">      0.00000061</i>
     <i name="DEPER">      0.30000000</i>
     <i type="int" name="NRMM">     4</i>
     <i name="TIME">      0.40000000</i>
    </separator>
   </separator>
   <separator name="electronic mixer" >
    <i name="AMIX">      0.40000000</i>
    <i name="BMIX">      1.00000000</i>
    <i name="AMIN">      0.10000000</i>
    <i name="AMIX_MAG">      1.60000000</i>
    <i name="BMIX_MAG">      1.00000000</i>
    <separator name="electronic mixer details" >
     <i type="int" name="IMIX">     4</i>
     <i type="logical" name="MIXFIRST"> F  </i>
     <i type="int" name="MAXMIX">   -45</i>
     <i name="WC">    100.00000000</i>
     <i type="int" name="INIMIX">     1</i>
     <i type="int" name="MIXPRE">     1</i>
     <i type="int" name="MREMOVE">     5</i>
    </separator>
   </separator>
   <separator name="electronic dipolcorrection" >
    <i type="logical" name="LDIPOL"> F  </i>
    <i type="logical" name="LMONO"> F  </i>
    <i type="int" name="IDIPOL">     0</i>
    <i name="EPSILON">      1.00000000</i>
    <v name="DIPOL">   -100.00000000   -100.00000000   -100.00000000</v>
    <i name="EFIELD">      0.00000000</i>
   </separator>
  </separator>
  <separator name="grids" >
   <i type="int" name="NGX">   150</i>
   <i type="int" name="NGY">   150</i>
   <i type="int" name="NGZ">   150</i>
   <i type="int" name="NGXF">   300</i>
   <i type="int" name="NGYF">   300</i>
   <i type="int" name="NGZF">   300</i>
   <i type="logical" name="ADDGRID"> F  </i>
  </separator>
  <separator name="ionic" >
   <i type="int" name="NSW">   300</i>
   <i type="int" name="IBRION">     3</i>
   <i type="int" name="ISIF">     2</i>
   <i name="PSTRESS">      0.00000000</i>
   <i name="EDIFFG">     -0.10000000</i>
   <i type="int" name="NFREE">     0</i>
   <i name="POTIM">      0.00000000</i>
   <i name="SMASS">      2.00000000</i>
   <i name="SCALEE">      1.00000000</i>
  </separator>
  <separator name="ionic md" >
   <i name="TEBEG">      0.00010000</i>
   <i name="TEEND">      0.00010000</i>
   <i type="int" name="NBLOCK">     1</i>
   <i type="int" name="KBLOCK">   300</i>
   <i type="int" name="NPACO">   256</i>
   <i name="APACO">     16.00000000</i>
  </separator>
  <separator name="symmetry" >
   <i type="int" name="ISYM">     2</i>
   <i name="SYMPREC">      0.00001000</i>
  </separator>
  <separator name="dos" >
   <i type="logical" name="LORBIT"> F  </i>
   <v name="RWIGS">     -1.00000000     -1.00000000     -1.00000000     -1.00000000</v>
   <i type="int" name="NEDOS">   301</i>
   <i name="EMIN">     10.00000000</i>
   <i name="EMAX">    -10.00000000</i>
   <i name="EFERMI">      0.00000000</i>
  </separator>
  <separator name="writing" >
   <i type="int" name="NWRITE">     2</i>
   <i type="logical" name="LWAVE"> F  </i>
   <i type="logical" name="LCHARG"> F  </i>
   <i type="logical" name="LPARD"> F  </i>
   <i type="logical" name="LVTOT"> F  </i>
   <i type="logical" name="LVHAR"> F  </i>
   <i type="logical" name="LELF"> F  </i>
   <i type="logical" name="LOPTICS"> F  </i>
   <v name="STM">      0.00000000      0.00000000      0.00000000      0.00000000      0.00000000      0.00000000      0.00000000</v>
  </separator>
  <separator name="performance" >
   <i type="int" name="NPAR">     1</i>
   <i type="int" name="NSIM">     4</i>
   <i type="int" name="NBLK">    -1</i>
   <i type="logical" name="LPLANE"> T  </i>
   <i type="logical" name="LSCALAPACK"> T  </i>
   <i type="logical" name="LSCAAWARE"> F  </i>
   <i type="logical" name="LSCALU"> F  </i>
   <i type="logical" name="LASYNC"> F  </i>
   <i type="logical" name="LORBITALREAL"> F  </i>
  </separator>
  <separator name="miscellaneous" >
   <i type="int" name="IDIOT">     3</i>
   <i type="logical" name="LMUSIC"> F  </i>
   <v name="POMASS">      1.00000000     12.01100000     14.00100000     16.00000000</v>
   <v name="DARWINR">      0.00000000      0.00000000      0.00000000      0.00000000</v>
   <v name="DARWINV">      1.00000000      1.00000000      1.00000000      1.00000000</v>
   <i type="logical" name="LCORR"> T  </i>
  </separator>
  <i type="logical" name="GGA_COMPAT"> T  </i>
  <i type="logical" name="LBERRY"> F  </i>
  <i type="int" name="ICORELEVEL">     0</i>
  <i type="logical" name="LDAU"> F  </i>
  <i type="int" name="I_CONSTRAINED_M">     0</i>
  <separator name="electronic exchange-correlation" >
   <i type="string" name="GGA">PE</i>
   <i type="int" name="VOSKOWN">     0</i>
   <i type="logical" name="LHFCALC"> F  </i>
   <i type="string" name="PRECFOCK"></i>
   <i type="logical" name="LSYMGRAD"> F  </i>
   <i type="logical" name="LHFONE"> F  </i>
   <i type="logical" name="LRHFCALC"> F  </i>
   <i type="logical" name="LTHOMAS"> F  </i>
   <i type="logical" name="LMODELHF"> F  </i>
   <i name="ENCUT4O">     -1.00000000</i>
   <i type="int" name="EXXOEP">     0</i>
   <i type="int" name="FOURORBIT">     0</i>
   <i name="AEXX">      0.00000000</i>
   <i name="HFALPHA">      0.00000000</i>
   <i name="MCALPHA">      0.00000000</i>
   <i name="ALDAX">      1.00000000</i>
   <i name="AGGAX">      1.00000000</i>
   <i name="ALDAC">      1.00000000</i>
   <i name="AGGAC">      1.00000000</i>
   <i type="int" name="NKREDX">     1</i>
   <i type="int" name="NKREDY">     1</i>
   <i type="int" name="NKREDZ">     1</i>
   <i type="logical" name="SHIFTRED"> F  </i>
   <i type="logical" name="ODDONLY"> F  </i>
   <i type="logical" name="EVENONLY"> F  </i>
   <i type="int" name="LMAXFOCK">     0</i>
   <i type="int" name="NMAXFOCKAE">     0</i>
   <i type="logical" name="LFOCKAEDFT"> F  </i>
   <i name="HFSCREEN">      0.00000000</i>
   <i name="HFSCREENC">      0.00000000</i>
   <i type="int" name="NBANDSGWLOW">     0</i>
  </separator>
  <separator name="vdW DFT" >
   <i type="logical" name="LUSE_VDW"> F  </i>
   <i name="Zab_VDW">     -0.84910000</i>
   <i name="PARAM1">      0.12340000</i>
   <i name="PARAM2">      1.00000000</i>
   <i name="PARAM3">      0.00000000</i>
  </separator>
  <separator name="model GW" >
   <i type="int" name="MODEL_GW">     0</i>
   <i name="MODEL_EPS0">    736.36363636</i>
   <i name="MODEL_ALPHA">      1.00000000</i>
  </separator>
  <separator name="linear response parameters" >
   <i type="logical" name="LEPSILON"> F  </i>
   <i type="logical" name="LRPA"> F  </i>
   <i type="logical" name="LNABLA"> F  </i>
   <i type="logical" name="LVEL"> F  </i>
   <i type="int" name="KINTER">     0</i>
   <i name="CSHIFT">      0.10000000</i>
   <i name="OMEGAMAX">     -1.00000000</i>
   <i name="DEG_THRESHOLD">      0.00200000</i>
  </separator>
  <separator name="orbital magnetization" >
   <i type="logical" name="NUCIND"> F  </i>
   <v name="MAGPOS">      0.00000000      0.00000000      0.00000000</v>
   <i type="logical" name="LNICSALL"> T  </i>
   <i type="logical" name="ORBITALMAG"> F  </i>
   <i type="logical" name="LMAGBLOCH"> F  </i>
   <i type="logical" name="LCHIMAG"> F  </i>
   <i type="logical" name="LGAUGE"> T  </i>
   <i type="int" name="MAGATOM">     0</i>
   <v name="MAGDIPOL">      0.00000000      0.00000000      0.00000000</v>
   <v name="AVECCONST">      0.00000000      0.00000000      0.00000000</v>
  </separator>
  <separator name="response functions" >
   <i type="logical" name="LADDER"> F  </i>
   <i type="logical" name="LFXC"> F  </i>
   <i type="logical" name="LHARTREE"> T  </i>
   <i type="int" name="IBSE">     0</i>
   <v type="int" name="KPOINT">    -1     0     0     0</v>
   <i type="logical" name="LTCTE"> F  </i>
   <i type="logical" name="LTETE"> F  </i>
   <i type="logical" name="LTRIPLET"> F  </i>
   <i type="logical" name="LFXCEPS"> F  </i>
   <i type="logical" name="LFXHEG"> F  </i>
   <i type="int" name="NATURALO">     0</i>
   <i type="logical" name="L2ORDER"> F  </i>
   <i type="logical" name="LUSEW"> F  </i>
   <i name="ENCUTGW">     -2.00000000</i>
   <i name="ENCUTGWSOFT">     -2.00000000</i>
   <i name="ENCUTLF">     -1.00000000</i>
   <i type="int" name="LMAXMP2">    -1</i>
   <i name="SCISSOR">      0.00000000</i>
   <i type="int" name="NOMEGA">     0</i>
   <i type="int" name="NOMEGAR">     0</i>
   <i type="int" name="NBANDSGW">    -1</i>
   <i type="int" name="NBANDSO">    -1</i>
   <i type="int" name="NBANDSV">    -1</i>
   <i type="int" name="NELM">   500</i>
   <i type="int" name="NELMHF">     1</i>
   <i type="int" name="DIM">     3</i>
   <i type="int" name="ANTIRES">     0</i>
   <i name="OMEGAMAX">    -30.00000000</i>
   <i name="OMEGAMIN">    -30.00000000</i>
   <i name="OMEGATL">   -200.00000000</i>
   <i type="int" name="OMEGAGRID">     0</i>
   <i name="CSHIFT">     -0.10000000</i>
   <i type="logical" name="SELFENERGY"> F  </i>
   <i type="logical" name="LSPECTRAL"> F  </i>
   <i type="logical" name="LSPECTRALGW"> F  </i>
   <i type="logical" name="LSINGLES"> F  </i>
   <i type="logical" name="LFERMIGW"> F  </i>
   <i type="logical" name="ODDONLYGW"> F  </i>
   <i type="logical" name="EVENONLYGW"> F  </i>
   <i type="int" name="NKREDLFX">     1</i>
   <i type="int" name="NKREDLFY">     1</i>
   <i type="int" name="NKREDLFZ">     1</i>
   <i type="int" name="MAXMEM">  1800</i>
   <i type="int" name="TELESCOPE">     0</i>
   <i type="int" name="TAUPAR">     1</i>
   <i type="int" name="OMEGAPAR">    -1</i>
   <i name="LAMBDA">      1.00000000</i>
  </separator>
  <separator name="External order field" >
   <i name="OFIELD_KAPPA">      0.00000000</i>
   <v name="OFIELD_K">      0.00000000      0.00000000      0.00000000</v>
   <i name="OFIELD_Q6_NEAR">      0.00000000</i>
   <i name="OFIELD_Q6_FAR">      0.00000000</i>
   <i name="OFIELD_A">      0.00000000</i>
  </separator>
  <separator name="solvation model" >
   <i type="logical" name="LSOL"> F  </i>
  </separator>
 </parameters>
 <atominfo>
  <atoms>      22 </atoms>
  <types>       4 </types>
  <array name="atoms" >
   <dimension dim="1">ion</dimension>
   <field type="string">element</field>
   <field type="int">atomtype</field>
   <set>
    <rc><c>H </c><c>   1</c></rc>
    <rc><c>H </c><c>   1</c></rc>
    <rc><c>H </c><c>   1</c></rc>
    <rc><c>H </c><c>   1</c></rc>
    <rc><c>H </c><c>   1</c></rc>
    <rc><c>H </c><c>   1</c></rc>
    <rc><c>H </c><c>   1</c></rc>
    <rc><c>H </c><c>   1</c></rc>
    <rc><c>H </c><c>   1</c></rc>
    <rc><c>H </c><c>   1</c></rc>
    <rc><c>H </c><c>   1</c></rc>
    <rc><c>H </c><c>   1</c></rc>
    <rc><c>C </c><c>   2</c></rc>
    <rc><c>C </c><c>   2</c></rc>
    <rc><c>C </c><c>   2</c></rc>
    <rc><c>C </c><c>   2</c></rc>
    <rc><c>C </c><c>   2</c></rc>
    <rc><c>C </c><c>   2</c></rc>
    <rc><c>N </c><c>   3</c></rc>
    <rc><c>N </c><c>   3</c></rc>
    <rc><c>O </c><c>   4</c></rc>
    <rc><c>O </c><c>   4</c></rc>
   </set>
  </array>
  <array name="atomtypes" >
   <dimension dim="1">type</dimension>
   <field type="int">atomspertype</field>
   <field type="string">element</field>
   <field>mass</field>
   <field>valence</field>
   <field type="string">pseudopotential</field>
   <set>
    <rc><c>  12</c><c>H </c><c>      1.00000000</c><c>      1.00000000</c><c>  PAW_PBE H 15Jun2001                   </c></rc>
    <rc><c>   6</c><c>C </c><c>     12.01100000</c><c>      4.00000000</c><c>  PAW_PBE C 08Apr2002                   </c></rc>
    <rc><c>   2</c><c>N </c><c>     14.00100000</c><c>      5.00000000</c><c>  PAW_PBE N 08Apr2002                   </c></rc>
    <rc><c>   2</c><c>O </c><c>     16.00000000</c><c>      6.00000000</c><c>  PAW_PBE O 08Apr2002                   </c></rc>
   </set>
  </array>
 </atominfo>
 <structure name="initialpos" >
  <crystal>
   <varray name="basis" >
    <v>      30.00000000       0.00000000       0.00000000 </v>
    <v>       0.00000000      30.00000000       0.00000000 </v>
    <v>       0.00000000       0.00000000      30.00000000 </v>
   </varray>
   <i name="volume">  27000.00000000 </i>
   <varray name="rec_basis" >
    <v>       0.03333333       0.00000000       0.00000000 </v>
    <v>       0.00000000       0.03333333       0.00000000 </v>
    <v>       0.00000000       0.00000000       0.03333333 </v>
   </varray>
  </crystal>
  <varray name="positions" >
   <v>       0.37363983       0.53734892       0.49738609 </v>
   <v>       0.38257341       0.48874347       0.46397062 </v>
   <v>       0.37985998       0.48394245       0.52288899 </v>
   <v>       0.44624290       0.44824857       0.49143534 </v>
   <v>       0.50861781       0.43903640       0.54000798 </v>
   <v>       0.56477170       0.43348008       0.47389935 </v>
   <v>       0.52192549       0.45774119       0.44053389 </v>
   <v>       0.51347014       0.40459965       0.46614357 </v>
   <v>       0.50778731       0.55044947       0.51089755 </v>
   <v>       0.60783074       0.54885018       0.51865799 </v>
   <v>       0.57930835       0.57737554       0.47502477 </v>
   <v>       0.57737441       0.59927354       0.53021829 </v>
   <v>       0.39049981       0.50537461       0.49541942 </v>
   <v>       0.44002108       0.51367748       0.49979862 </v>
   <v>       0.51070596       0.46213104       0.51141185 </v>
   <v>       0.52888687       0.43746730       0.47013111 </v>
   <v>       0.54706710       0.49598191       0.52395310 </v>
   <v>       0.57835381       0.56856394       0.51051309 </v>
   <v>       0.46418867       0.47526820       0.50155135 </v>
   <v>       0.54009424       0.53996513       0.51854782 </v>
   <v>       0.45476467       0.55236034       0.50275820 </v>
   <v>       0.58350442       0.47922692       0.53425147 </v>
  </varray>
 </structure>
 <calculation>
  <scstep>
   <time name="dav">  259.86  259.64</time>
   <time name="total">  279.83  279.60</time>
   <energy>
    <i name="alphaZ">      0.51957394 </i>
    <i name="ewald">   6118.61585499 </i>
    <i name="hartreedc">  -7860.43263453 </i>
    <i name="XCdc">    202.19707278 </i>
    <i name="pawpsdc">   1779.70502452 </i>
    <i name="pawaedc">  -1789.20730229 </i>
    <i name="eentropy">     -0.80101216 </i>
    <i name="bandstr">   -297.67506033 </i>
    <i name="atom">   2425.98333211 </i>
    <i name="e_fr_energy">    578.90484903 </i>
    <i name="e_wo_entrp">    579.70586119 </i>
    <i name="e_0_energy">    579.30535511 </i>
   </energy>
  </scstep>
  <scstep>
   <time name="dav">  354.84  354.55</time>
   <time name="total">  354.85  354.55</time>
   <energy>
    <i name="e_fr_energy">    263.26548108 </i>
    <i name="e_wo_entrp">    263.65899338 </i>
    <i name="e_0_energy">    263.46223723 </i>
   </energy>
  </scstep>
  <scstep>
   <time name="dav">  303.94  303.69</time>
   <time name="total">  303.95  303.70</time>
   <energy>
    <i name="e_fr_energy">    -46.44086489 </i>
    <i name="e_wo_entrp">    -46.43834786 </i>
    <i name="e_0_energy">    -46.43960638 </i>
   </energy>
  </scstep>
  <scstep>
   <time name="dav">  253.59  253.38</time>
   <time name="total">  253.60  253.39</time>
   <energy>
    <i name="e_fr_energy">   -136.73106863 </i>
    <i name="e_wo_entrp">   -136.73106863 </i>
    <i name="e_0_energy">   -136.73106863 </i>
   </energy>
  </scstep>
  <scstep>
   <time name="dav">  287.28  287.04</time>
   <time name="total">  304.55  304.78</time>
   <energy>
    <i name="e_fr_energy">   -141.48589597 </i>
    <i name="e_wo_entrp">   -141.48589597 </i>
    <i name="e_0_energy">   -141.48589597 </i>
   </energy>
  </scstep>
  <scstep>
   <time name="dav">  275.06  274.83</time>
   <time name="total">  310.58  310.32</time>
   <energy>
    <i name="e_fr_energy">   -131.38776086 </i>
    <i name="e_wo_entrp">   -131.38776086 </i>
    <i name="e_0_energy">   -131.38776086 </i>
   </energy>
  </scstep>
  <scstep>
   <time name="dav">  273.21  272.98</time>
   <time name="total">  308.72  308.46</time>
   <energy>
    <i name="e_fr_energy">   -129.62804570 </i>
    <i name="e_wo_entrp">   -129.62804570 </i>
    <i name="e_0_energy">   -129.62804570 </i>
   </energy>
  </scstep>
  <scstep>
   <time name="dav">  281.18  280.95</time>
   <time name="total">  316.74  316.48</time>
   <energy>
    <i name="e_fr_energy">   -129.13941585 </i>
    <i name="e_wo_entrp">   -129.13941584 </i>
    <i name="e_0_energy">   -129.13941585 </i>
   </energy>
  </scstep>
  <scstep>
   <time name="dav">  289.73  289.49</time>
   <time name="total">  325.40  325.78</time>
   <energy>
    <i name="e_fr_energy">   -129.07240427 </i>
    <i name="e_wo_entrp">   -129.07240427 </i>
    <i name="e_0_energy">   -129.07240427 </i>
   </energy>
  </scstep>
  <scstep>
   <time name="dav">  280.36  280.13</time>
   <time name="total">  316.11  315.86</time>
   <energy>
    <i name="e_fr_energy">   -129.06048432 </i>
    <i name="e_wo_entrp">   -129.06048432 </i>
    <i name="e_0_energy">   -129.06048432 </i>
   </energy>
  </scstep>
  <scstep>
   <time name="dav">  284.62  284.39</time>
   <time name="total">  320.51  320.25</time>
   <energy>
    <i name="e_fr_energy">   -129.05474241 </i>
    <i name="e_wo_entrp">   -129.05474241 </i>
    <i name="e_0_energy">   -129.05474241 </i>
   </energy>
  </scstep>
  <scstep>
   <time name="dav">  254.38  254.17</time>
   <time name="total">  290.36  290.13</time>
   <energy>
    <i name="e_fr_energy">   -129.05470067 </i>
    <i name="e_wo_entrp">   -129.05470067 </i>
    <i name="e_0_energy">   -129.05470067 </i>
   </energy>
  </scstep>
  <scstep>
   <time name="dav">  273.78  273.55</time>
   <time name="total">  309.83  309.58</time>
   <energy>
    <i name="e_fr_energy">   -129.06076500 </i>
    <i name="e_wo_entrp">   -129.06076500 </i>
    <i name="e_0_energy">   -129.06076500 </i>
   </energy>
  </scstep>
  <scstep>
   <time name="dav">  268.64  268.41</time>
   <time name="total">  304.93  304.68</time>
   <energy>
    <i name="e_fr_energy">   -129.06757449 </i>
    <i name="e_wo_entrp">   -129.06757449 </i>
    <i name="e_0_energy">   -129.06757449 </i>
   </energy>
  </scstep>
  <scstep>
   <time name="dav">  264.09  263.87</time>
   <time name="total">  300.16  299.91</time>
   <energy>
    <i name="e_fr_energy">   -129.40218749 </i>
    <i name="e_wo_entrp">   -129.40218749 </i>
    <i name="e_0_energy">   -129.40218749 </i>
   </energy>
  </scstep>
  <scstep>
   <time name="dav">  236.44  236.24</time>
   <time name="total">  272.68  272.60</time>
   <energy>
    <i name="e_fr_energy">   -129.40807490 </i>
    <i name="e_wo_entrp">   -129.40807490 </i>
    <i name="e_0_energy">   -129.40807490 </i>
   </energy>
  </scstep>
  <scstep>
   <time name="dav">  242.81  242.61</time>
   <time name="total">  279.00  278.77</time>
   <energy>
    <i name="e_fr_energy">   -129.41072079 </i>
    <i name="e_wo_entrp">   -129.41072079 </i>
    <i name="e_0_energy">   -129.41072079 </i>
   </energy>
  </scstep>
  <scstep>
   <time name="dav">  236.76  236.57</time>
   <time name="total">  273.00  272.78</time>
   <energy>
    <i name="e_fr_energy">   -129.41237484 </i>
    <i name="e_wo_entrp">   -129.41237484 </i>
    <i name="e_0_energy">   -129.41237484 </i>
   </energy>
  </scstep>
  <scstep>
   <time name="dav">  237.61  237.41</time>
   <time name="total">  273.83  273.60</time>
   <energy>
    <i name="e_fr_energy">   -129.41322209 </i>
    <i name="e_wo_entrp">   -129.41322209 </i>
    <i name="e_0_energy">   -129.41322209 </i>
   </energy>
  </scstep>
  <scstep>
   <time name="dav">  225.34  225.15</time>
   <time name="total">  261.68  261.47</time>
   <energy>
    <i name="e_fr_energy">   -129.41364389 </i>
    <i name="e_wo_entrp">   -129.41364389 </i>
    <i name="e_0_energy">   -129.41364389 </i>
   </energy>
  </scstep>
  <scstep>
   <time name="dav">  234.33  234.14</time>
   <time name="total">  270.67  270.44</time>
   <energy>
    <i name="e_fr_energy">   -129.41384350 </i>
    <i name="e_wo_entrp">   -129.41384350 </i>
    <i name="e_0_energy">   -129.41384350 </i>
   </energy>
  </scstep>
  <scstep>
   <time name="dav">  195.64  195.48</time>
   <time name="total">  232.15  231.96</time>
   <energy>
    <i name="e_fr_energy">   -129.41397826 </i>
    <i name="e_wo_entrp">   -129.41397826 </i>
    <i name="e_0_energy">   -129.41397826 </i>
   </energy>
  </scstep>
  <scstep>
   <time name="dav">  240.95  240.75</time>
   <time name="total">  259.44  259.22</time>
   <energy>
    <i name="alphaZ">      0.51957394 </i>
    <i name="ewald">   6094.00564238 </i>
    <i name="hartreedc">  -8097.64562999 </i>
    <i name="XCdc">    214.15627918 </i>
    <i name="pawpsdc">   4780.92277777 </i>
    <i name="pawaedc">  -4792.14128958 </i>
    <i name="eentropy">      0.00000000 </i>
    <i name="bandstr">   -755.21470198 </i>
    <i name="atom">   2425.98333211 </i>
    <i name="e_fr_energy">   -129.41401616 </i>
    <i name="e_wo_entrp">   -129.41401616 </i>
    <i name="e_0_energy">   -129.41401616 </i>
   </energy>
  </scstep>
  <structure>
   <crystal>
    <varray name="basis" >
     <v>      30.00000000       0.00000000       0.00000000 </v>
     <v>       0.00000000      30.00000000       0.00000000 </v>
     <v>       0.00000000       0.00000000      30.00000000 </v>
    </varray>
    <i name="volume">  27000.00000000 </i>
    <varray name="rec_basis" >
     <v>       0.03333333       0.00000000       0.00000000 </v>
     <v>       0.00000000       0.03333333       0.00000000 </v>
     <v>       0.00000000       0.00000000       0.03333333 </v>
    </varray>
   </crystal>
   <varray name="positions" >
    <v>       0.38296509       0.55291554       0.50973226 </v>
    <v>       0.38582257       0.50489593       0.47427728 </v>
    <v>       0.38012934       0.49832477       0.53292657 </v>
    <v>       0.44974115       0.45593784       0.48895030 </v>
    <v>       0.51272959       0.47731458       0.55572013 </v>
    <v>       0.55468987       0.41069833       0.52120608 </v>
    <v>       0.51320009       0.40826442       0.47968530 </v>
    <v>       0.49815207       0.39861228       0.53641818 </v>
    <v>       0.51921244       0.55191392       0.50914876 </v>
    <v>       0.60765124       0.55037413       0.46236126 </v>
    <v>       0.56033860       0.56505060       0.42938522 </v>
    <v>       0.57609268       0.59891070       0.47592122 </v>
    <v>       0.39553489       0.51868243       0.50662011 </v>
    <v>       0.44549331       0.51879291       0.51453032 </v>
    <v>       0.51226613       0.46844819       0.51994056 </v>
    <v>       0.51958676       0.41832714       0.51431157 </v>
    <v>       0.55104347       0.49344572       0.49604045 </v>
    <v>       0.57416462       0.56445177       0.46365752 </v>
    <v>       0.46778045       0.48098575       0.50306714 </v>
    <v>       0.54664537       0.53822568       0.49343368 </v>
    <v>       0.46418994       0.55129646       0.53242060 </v>
    <v>       0.58275677       0.47238494       0.48033687 </v>
   </varray>
  </structure>
  <varray name="forces" >
   <v>       0.04542857      -0.08088635      -0.04662623 </v>
   <v>       0.00355131      -0.09995513      -0.14991327 </v>
   <v>      -0.11032590      -0.02860297      -0.00332851 </v>
   <v>       0.03984601       0.02961817       0.00652266 </v>
   <v>       0.10552256       0.05790848      -0.04973965 </v>
   <v>      -0.07624490      -0.03158876       0.01267173 </v>
   <v>       0.03334581      -0.00900124      -0.07374872 </v>
   <v>      -0.08781611       0.03113648       0.08970135 </v>
   <v>       0.03460828       0.01204365      -0.11870071 </v>
   <v>       0.19951260      -0.10530038      -0.03016309 </v>
   <v>       0.07892172      -0.01773045       0.13979449 </v>
   <v>      -0.00098613      -0.01468354      -0.00276962 </v>
   <v>       0.13150665       0.14479041       0.14432480 </v>
   <v>      -0.14863270       0.11217218       0.09224584 </v>
   <v>       0.04316314      -0.06668549       0.02981310 </v>
   <v>      -0.07552138       0.11380568       0.08374541 </v>
   <v>      -0.14848236       0.04040604      -0.06022255 </v>
   <v>      -0.15655341       0.25514921       0.02616857 </v>
   <v>       0.02552185      -0.12435897       0.05894875 </v>
   <v>      -0.12093160      -0.06028179      -0.01539399 </v>
   <v>      -0.02783115      -0.12013022       0.06729043 </v>
   <v>       0.2123971  <energy>
   <i name="e_fr_energy">   -129.01443728 </i>
   <i name="e_wo_entrp">   -129.01443728 </i>
   <i name="e_0_energy">      0.00000000 </i>
  </energy>
  <time name="totalsc"> 7066.57 7064.15</time>
 </calculation>
178       0.00858360      -0.21514448 </v>
  </varray>
  <energy>
   <i name="e_fr_energy">   -129.30446897 </i>
   <i name="e_wo_entrp">   -129.48882304 </i>
   <i name="e_0_energy">      0.00000000 </i>
  </energy>
  <time name="totalsc"> 7066.17 7065.57</time>
 </calculation>
 <calculation>
  <scstep>
   <time name="dav">  229.   <time name="dav   <time name="total">  26   <time name="total">  26   <time name="total">  272.01  271.78</time>
   <energy>
    <i name="alphaZ"   <time name="total">  274.20  273.97</time>
   <energy>
    <i name="alphaZ"   <time name="total">  27   <time name="total">  276.57  276.35</time>
   <energy>
    <i name="alphaZ">      0.51957394 </i>
      <time name="total">  290.56  290.32</time>
   <energy>
    <i name="alphaZ">      0.51957394 </i>
    <i name="ewald">   6104.88550053 </i>
    <i name="hartreedc">  -8106.95980141 </i>
    <i name="XCdc">    214.27904497 </i>
    <i name="pawpsdc">   4777.42161633 </i>
    <i name="p   <time name="dav">  263.   <time name="dav">  286.   <time name="dav   <time name="total">  32   <time name="total">  333.65  333.37</time>
   <energy>
    <i name="e_fr_energy">   -128.90645538 </i>
    <i name="e_wo_entrp">   -128.90645538 </i>
      <time name="total">  33     <time name="dav">  235.   <time name="dav">  233.   <time name="dav">  247.05  246.85</time>
   <time name="total">  284.95  284.82</time>
   <energy>
    <i name="e_fr_energy">   -128.90639767 </i>
    <i name="e_wo_entrp"   <time name="total">  320.27  320.02</time>
   <ener   <time name="dav">  227.   <time name="dav   <time   <time name="dav">  229.84  229.65</time>
   <time name="total">  267.74  267.52</time>
   <energy>
    <i name="e_fr_energy">     <time name="dav">  251.90  251.70</time>
   <time name="total">  289.66  289.43</time>
   <ener   <time name="dav">  224.   <time name="dav">  229.   <time name="dav">  230.55  230.36</time>
   <time name="total">  268.15  268.01</time>
   <energy>
    <i name="e_fr_energy">     <time name="dav">  232.24  232.05</time>
   <time name="total">  269.69  269.47</time>
   <ener   <time name="dav">  174.   <time name="dav">  195.   <time name="dav">  163.   <time name="dav">  203.81  203.64</time>
   <time name="total">  223.97  223.79</time>
   <energy>
     <time name="dav">  221.15  220.97</time>
   <time name="total">  241.32  241.13</time>
   <energy>
    <i name="alphaZ">      0.51957394 </i>
    <i name="ewald">   6091.09723249 </i>
    <i name="hartreedc">  -8095.74200560 </i>
    <i name="XCdc">    214.08032897 </i>
    <i name="pawpsdc">   4779.13128961 </i>
    <i name="pawaedc">  -4790.34857771 </i>
    <i name="eentropy">      0.00000000 </i>
    <i name="bandstr">   -754.23147018 </i>
    <i name="atom">   2425  <structure>
   <crystal>  <structure>
   <crystal>  <structure>
   <crystal>  <structure>
   <crystal>
    <varray name="basis" >
     <v>      30.00000000       0.00000000       0  <structure>
   <crystal>
    <varray name="basis" >
     <v>      30.00000000       0.00000000       0.00000000 </v>
     <v>       0.00000000      30.00000000       0.00000000 </v>
     <v>       0.00000000       0.00000000      30.00000000 </v>
    </varray>
    <i name="volume">  27000.00000000 </i>
    <varray name="rec_basis" >
     <v>       0.03333333       0.00000000       0.00000000 </v>
     <v>       0.00000000       0.03333333       0.00000000 </v>
     <v>       0.00000000       0.00000000       0.03333333 </v>
    </varray>
   </crystal>
   <varray name="positions" >
    <v>       0.38429247       0.55302792       0.51314383 </v>
    <v>       0.38574785       0.50242466       0.48156562 </v>
    <v>       0.38010910       0.50025593       0.54045276 </v>
    <v>       0.45028491       0.45240878       0.50076933 </v>
    <v>       0.52155957       0.49141530       0.55369692 </v>
    <v>       0.56223167       0.41987449       0.53647258 </v>
    <v>       0.51843874       0.40400141       0.50017713 </v>
    <v>       0.50774150       0.40962364       0.55869288 </v>
    <v>       0.52409932       0.55412715       0.50262104 </v>
    <v>       0.60151545       0.54362739       0.44102909 </v>
    <v>       0.55041378       0.55541293       0.41392861 </v>
    <v>       0.57294159       0.59406779       0.45374557 </v>
    <v>       0.39603513       0.51843795       0.51286164 </v>
    <v>       0.44603719       0.51841225       0.51934313 </v>
    <v>       0.51505921       0.47242640       0.52301897 </v>
    <v>       0.52623957       0.42342381       0.53025424 </v>
    <v>       0.54447185       0.49160434       0.48515330 </v>
    <v>       0.56853803       0.55866153       0.44584279 </v>
    <v>       0.46752281       0.47887040       0.51311726 </v>
    <v>       0.54582079       0.53673592       0.48259459 </v>
    <v>       0.46618706       0.55270775       0.53137827 </v>
    <v>       0.56490244       0.46665175       0.45939099 </v>
   </varray>
  </structure>
  <varray name="forces" >
   <v>       0.00416798      -0.03378767      -0.00281768 </v>
   <v>       0.02689467      -0.04419342      -0.04329347 </v>
   <v>      -0.04320491       0.01091116       0.00688563 </v>
   <v>       0.00110947       0.00977686       0.01514597 </v>
   <v>       0.04851865       0.10242208       0.04927906 </v>
   <v>      -0.14104350      -0.01281460      -0.02436760 </v>
   <v>       0.05973611      -0.02982856      -0.00467645 </v>
   <v>      -0.02307269       0.03446845       0.03705976 </v>
   <v>      -0.01143880      -0.06710158      -0.05184366 </v>
   <v>       0.04604490      -0.05522729       0.00454254 </v>
   <v>      -0.03519366       0.01338237       0.10906565 </v>
   <v>      -0.06294867       0.03479522       0.00641798 </v>
   <v>      -0.02095688      -0.04548975      -0.01329733 </v>
   <v>       0.09792798       0.13725756       0.11725012 </v>
   <v>       0.03017794       0.05761837       0.03302231 </v>
   <v>      -0.10460190       0.03406555      -0.00866046 </v>
   <v>       0.05807414      -0.03060192      -0.13961546 </v>
   <v>       0.05470412       0.00286476       0.03307066 </v>
   <v>      -0.00177820      -0.02510059       0.00529769 </v>
   <v>      -0.01762410      -0.02169269      -0.08406993 </v>
   <v>      -0.01426252      -0.11145775       0.03139260 </v>
   <v>       0.04876985       0.03973347      -0.07578792 </v>
  </varray>
  <varray name="stress" >
   <v>      -0.2279  <energy>
   <i name="e_f  <energy>
   <i name="e_fr_ener   <i name="e_wo_entrp">   -129   <i name="e_fr_energy">   -129.34434738 </i>
   <i   <i name="e_fr_ener  <time name="totalsc"> 2050.24 2048.72</time>
 </ca  <time name="totalsc"> 20  <time name="totalsc"> 2049.46 2048.88</time>
 </calculation>
62</time>
 </calculation>
88</time>
 </ca  <time name="totalsc"> 20  <time name="totalsc"> 20  <time name="totalsc"> 20  <time name="totalsc"> 20  <time name="totalsc"> 2048.50 2047.21</time>
 </ca  <time name="totalsc"> 2047.42 2045.87</time>
 </calculation>
00</time>
 </calculation>
 <calculation>
  <scstep>
   <time name="dav">  220.   <time name="dav   <time   <time name="dav">  243.   <time name="dav   <time name="total">  28   <time name="total">  287.37  287.14</time>
   <energy>
    <i name="alphaZ">      0.51957394 </i>
    <i name="ewald">   6126.30192030 </i>
    <i name="hartreedc">  -8130.93460815 </i>
    <i name="XCdc">    214.04395831 </i>
    <i name="pawpsdc">   4770.51867508 </i>
    <i name="pawaedc">  -4781.73611267 </i>
    <i name="eentropy">      0.00000000 </i>
    <i name="bandstr">   -754.09790716 </i>
    <i name="atom">   2425.98333211 </i>
    <i name="e_fr_energy">   -129.40116826 </i>
    <i name="e_wo_entrp">   -129.40116826 </i>
    <   <time name="dav">  268.   <time name="dav   <time   <time name="dav">  266.98  266.76</time>
   <time name="total">  304.43  304.18</time>
   <energy>
    <i name="e_fr_energy">   -129.48223570 </i>
    <i name="e_wo_entrp">   -129.48223570 </i>
    <i name="e_0_energy">   -12   <time name="dav">  221.   <time name="dav   <time   <time name="dav">  227.61  227.42</time>
   <time name="total">  264.89  26   <time name="dav">  266.53  266.33</time>
   <time name="total">  302.81  302.58</time>
   <energy>
    <i name="e_fr_energy">   -128.97424874 </i>
   <time name="dav">  203.23  203.06</time>
   <time   <time name="dav">  201.82  201.65</time>
   <time name="total">  239.30  23   <time name="dav">  247.11  246.91</time>
   <time name="total">  283.10  282.89</time>
   <energy>
    <i name="e_fr_energy">   -128.97427250 </i>
   <time name="dav">  202.86  202.69</time>
   <time   <time name="dav">  196.17  196.00</time>
   <time name="total">  233.81  23   <time name="dav">  220.80  220.62</time>
   <time name="total">  258.00  257.78</time>
   <energy>
    <i name="e_fr_energy">   -128.92121916 </i>
   <time name="dav">  164.54  164.41</time>
   <time   <time name="dav">  194.35  194.19</time>
   <time name="total">  214.69  21   <time name="dav">  176.09  175.94</time>
   <time name="total">  196.35  196.19</time>
   <energy>
    <i name="alphaZ">      0.51957394 </i>
    <i name="ewald">   6142.09146205 </i>
    <i name="hartreedc">  -8143.17999133 </i>
    <i name="XCdc">    214.66637776 </i>
    <i name="pawpsdc">   4836.84320234 </i>
    <i name="pawaedc">  -4848.09717504 </i>
    <i name="eentropy">      0.00000000 </i>
    <i name="bandstr">   -757.74800426 </i>
    <i name="atom">   2425.98333211 </i>
    <i name="e_fr_energy">   -128.921  <structure>
   <crystal>
    <varray name="basis"   <structure>
   <crystal>
    <varray name="basis" >
     <v>      30.0000000  <structure>
   <crystal>
    <varray name="basis" >
     <v>      30.00000000       0.00000000       0.00000000 </v>
     <v>       0.00000000      30.00000000       0.00000000 </v>
     <v>       0.00000000       0.00000000      30.00000000 </v>
    </varray>
    <i name="volume">  27000.00000000 </i>
    <varray name="rec_basis" >
     <v>       0.03333333       0.00000000       0.00000000 </v>
     <v>       0.00000000       0.03333333       0.00000000 </v>
     <v>       0.00000000       0.00000000       0.03333333 </v>
    </varray>
   </crystal>
   <varray name="positions" >
    <v>       0.37469330       0.53844429       0.49783514 </v>
    <v>       0.38494786       0.48953605       0.46440704 </v>
    <v>       0.38078501       0.48465500       0.52360935 </v>
    <v>       0.44832850       0.45031945       0.48794741 </v>
    <v>       0.50734940       0.44694174       0.54643148 </v>
    <v>       0.56231872       0.42639536       0.48286490 </v>
    <v>       0.52065708       0.44664590       0.44528006 </v>
    <v>       0.50832837       0.40007791       0.48027880 </v>
    <v>       0.50829761       0.55252759       0.51213271 </v>
    <v>       0.60876397       0.55014320       0.50823053 </v>
    <v>       0.57561482       0.57569585       0.46591623 </v>
    <v>       0.57844203       0.60049120       0.52056218 </v>
    <v>       0.39175039       0.50638561       0.49616309 </v>
    <v>       0.44080916       0.51491752       0.50178228 </v>
    <v>       0.51040885       0.46414674       0.51406144 </v>
    <v>       0.52662192       0.43167907       0.47827574 </v>
    <v>       0.54842452       0.49766159       0.52046774 </v>
    <v>       0.57819350       0.56908392       0.50200829 </v>
    <v>       0.46532750       0.47710091       0.50001424 </v>
    <v>       0.54099995       0.54138882       0.51480333 </v>
    <v>       0.45478285       0.55337784       0.50832202 </v>
    <v>       0.58574323       0.48111191       0.52788220 </v>
   </varray>
  </structure>
  <varray name="forces" >
   <v>      -0.22040667       0.02665735      -0.08593824 </v>
   <v>      -0.16174406      -0.00181827      -0.06248695 </v>
   <v>      -0.18508430       0.03863633      -0.06794800 </v>
   <v>      -0.10143925      -0.01126121       0.17094485 </v>
   <v>       0.02217140      -0.10788194       0.00717619 </v>
   <v>       0.07137341      -0.28031718      -0.00748102 </v>
   <v>       0.08313131      -0.05517542      -0.00024447 </v>
   <v>       0.01474383      -0.15360703      -0.05508552 </v>
   <v>      -0.01244265      -0.03860125      -0.18344660 </v>
   <v>       0.11784331       0.11718209       0.07724905 </v>
   <v>       0.12508210       0.24179689       0.03268978 </v>
   <v>       0.07533338       0.14593088       0.02314609 </v>
   <v>      -0.09034997      -0.00577438       0.00194920 </v>
   <v>      -0.19541469       0.07707887       0.05419852 </v>
   <v>       0.01493370      -0.10634243       0.01143203 </v>
   <v>      -0.00575082      -0.10677523      -0.09291454 </v>
   <v>       0.17239754       0.02142462      -0.00909312 </v>
   <v>      -0.01122095       0.14636751      -0.06921050 </v>
   <v>       0.15499931       0.09481823       0.09265114 </v>
   <v>       0.28962093      -0.14377496      -0.07623318 </v>
   <v>      -0.12759305       0.08150804       0.21509269 </v>
   <v>      -0.03018380       0.01992849       0.02355258 </v>
  </varray>
  <varray name="stress" >
   <v>       0.04434189       0.01113924       0.00725572 </v>
   <v>    <energy>
   <i name="e_fr_energy">   -129.12167821 </i>
   <i name="e_wo_entrp">   -129.12167821 </i>
   <i name="e_0_energy">      0.00000   <i name="e_fr_ener  <time name="totalsc"> 19  <time name="totalsc"> 19  <time name="totalsc"> 1961.07 1959.69</time>
 </calculation>
48</time>
 </ca  <time name="totalsc"> 19  <time name="totalsc"> 19  <time name="totalsc"> 1961.33 1959.88</time>
 </calculation>
81</time>
 </calculation>
e="totalsc"> 19  <time name="totalsc"> 1961.07 1959.59</time>
 </ca   <time name="dav">  222.   <time name="dav   <time name="total">  25   <time name="total">  267.85  267.62</time>
   <energy>
    <i name="alphaZ">      0.51957394 </i>
    <i name="ewald">   6126.80006183 </i>
    <i name="hartreedc">  -8131.3454865   <time name="total">  26   <time name="total">  267.24  267.02</time>
   <en   <time name="total">  271.42  271.25</time>
   <energy>
    <i name="alphaZ">      0.51957394 </i>
    <i name="ewald">   6142.00929638 </i>
    <i name="hartreedc">  -8145.98892882 </i>
    <i name="XCdc">    214.17145632 </i>
    <i name="pawpsdc">   4785.91115857 </i>
    <i name="pawaedc">  -4797.13699793 </i>
    <i name="eentropy"   <time name="dav">  225.   <time name="dav   <time   <time name="dav">  269.   <time name="dav   <time name="total">  30   <time name="total">  308.51  308.26</time>
   <energy>
    <i name="e_fr_en   <time name="total">  309.54  309.28</time>
   <en   <time name="total">  315.   <time name="dav">  274.61  274.67</time>
   <time name="total">  310.90  310.96</time>
   <en   <time name="total">  27   <time   <time name="dav">  275.26  275.03</time>
   <time name="total">  312.83  312.58</time>
   <energy>
    <i name="e_fr_energy">   -128.94147291 </i>
   <time name="dav">  239.30  239.34</time>
   <time name="total">  275.52  275.54</time>
   <energy>
    <i name="e_fr_energy">     <time name="dav">  281.47  281.24</time>
   <time name="total">  318.83  318.57</time>
   <energy>
    <i name="e_fr_energy">   -128.94156979 </i>
   <time name="dav">  243.38  243.47</time>
   <time name="total">  279.63  279.73</time>
   <energy>
    <i name="e_fr_energy">     <time name="dav">  228.78  228.59</time>
   <time name="total">  266.07  265.86</time>
   <energy>
    <i name="e_fr_energy">   -128.94158871 </i>
   <time name="dav">  209.78  209.62</time>
   <time name="total">  228.77  228.64</time>
   <energy>
    <i name="alphaZ">      0   <time name="dav">  209.17  209.00</time>
   <time name="total">  229.32  229.14</time>
   <energy>
    <i name="alphaZ">      0.51957394 </i>
    <i name="ewald">   6131.53308110 </i>
    <i name="hartreedc">  -8132.87005941 </i>
    <i name="XCdc">    214.57156014 </i>
    <i name="pawpsdc">   4822.17214859 </i>
    <i name="pawaedc">  -4833.41809357 </i>
    <i name="eentropy">      0.00000000 </i>
    <i name="bandstr">   -757.43313982 </i>
    <i name="atom">   2425.98333211 </i>
    <i name="e_fr_energy">   -128.941  <structure>
   <crystal>
    <varray name="basis" >
     <v>      30.00000000       0.00000000       0.00000000 </v>
     <v>     <structure>
   <crystal>
    <varray name="basis" >
     <v>      30.00000000       0.00000000       0.00000000 </v>
     <v>       0.00000000      30.00000000       0.00000000 </v>
     <v>       0.00000000       0.00000000      30.00000000 </v>
    </varray>
    <i name="volume">  27000.00000000 </i>
    <varray name="rec_basis" >
     <v>       0.03333333       0.00000000       0.00000000 </v>
     <v>       0.00000000       0.03333333       0.00000000 </v>
     <v>       0.00000000       0.00000000       0.03333333 </v>
    </varray>
   </crystal>
   <varray name="positions" >
    <v>       0.37446144       0.53847142       0.49774750 </v>
    <v>       0.38477544       0.48952948       0.46434169 </v>
    <v>       0.38058131       0.48465996       0.52357929 </v>
    <v>       0.44826529       0.45035426       0.48815359 </v>
    <v>       0.50736906       0.44679982       0.54646558 </v>
    <v>       0.56238527       0.42611449       0.48284724 </v>
    <v>       0.52072652       0.44664149       0.44521356 </v>
    <v>       0.50834197       0.39990541       0.48021076 </v>
    <v>       0.50837337       0.55243280       0.51194881 </v>
    <v>       0.60885501       0.55028222       0.50831722 </v>
    <v>       0.57573239       0.57595837       0.46590610 </v>
    <v>       0.57851816       0.60063987       0.52058859 </v>
    <v>       0.39160724       0.50641031       0.49611251 </v>
    <v>       0.44072902       0.51499566       0.50185222 </v>
    <v>       0.51047192       0.46404886       0.51407247 </v>
    <v>       0.52667531       0.43152842       0.47820496 </v>
    <v>       0.54853614       0.49763926       0.52045963 </v>
    <v>       0.57828358       0.56922883       0.50200610 </v>
    <v>       0.46535260       0.47716949       0.50006268 </v>
    <v>       0.54111923       0.54136859       0.51471647 </v>
    <v>       0.45462402       0.55347645       0.50853611 </v>
    <v>       0.58580419       0.48107239       0.52793322 </v>
   </varray>
  </structure>
  <varray name="forces" >
   <v>      -0.18819873      -0.00498921      -0.08269208 </v>
   <v>      -0.13951126       0.01164491      -0.03649816 </v>
   <v>      -0.16707931       0.06303702      -0.09550115 </v>
   <v>      -0.09111100       0.00595443       0.16729776 </v>
   <v>       0.03185791      -0.07888232      -0.03031285 </v>
   <v>       0.03604091      -0.25552335      -0.01435281 </v>
   <v>       0.09486241      -0.09179294       0.04184737 </v>
   <v>       0.02233333      -0.11239994      -0.06412636 </v>
   <v>       0.01555712      -0.03438329      -0.16490802 </v>
   <v>       0.11093772       0.12962213       0.05851970 </v>
   <v>       0.12973862       0.22015350       0.06023509 </v>
   <v>       0.05844439       0.12254485       0.02876807 </v>
   <v>      -0.07536694      -0.01215527       0.01752372 </v>
   <v>      -0.18167645       0.05738304       0.06481354 </v>
   <v>       0.01339294      -0.07277594       0.00768253 </v>
   <v>      -0.03025100      -0.06695177      -0.07342167 </v>
   <v>       0.12485244      -0.00990798      -0.02068385 </v>
   <v>      -0.02004585       0.10439596      -0.06859176 </v>
   <v>       0.11913436       0.08696227       0.08096010 </v>
   <v>       0.23236488      -0.10122756      -0.09903377 </v>
   <v>      -0.11275376       0.02599719       0.19108006 </v>
   <v>       0.01647729       0.01329427       0.03139455 </v>
  </varray>
  <varray name="stress" >
   <v>       0.01487850       0.01161365       0.00643691 </v>
   <v>    <energy>
   <i name="e_fr_energy">    <i name="e_fr_energy">    <i name="e_fr_ener   <i name="e_wo_entrp">     <i name="e_wo_entrp">   -129.12851236 </i>
   <i   <time name="totalsc"> 20  <time name="totalsc"> 20  <time name="totalsc"> 2037.02 2035.36</time>
 </ca  <time name="totalsc"> 2037.08 2035.44</time>
 </calculation>
35</time>
 </ca  <time name="totalsc"> 2037.05 2035.40</time>
 </ca  <time name="totalsc"> 20  <time name="totalsc"> 20  <time name="totalsc"> 2036.56 2035.02</time>
 </calculation>
67</time>
 </ca  <time name="totalsc"> 20   <time name="dav">  223.39  223.20</time>
   <time name="total">  259.85  259.63</time>
   <energy>
     <time name="dav">  242.96  242.75</time>
   <time name="total">  280.19  279.96</time>
   <energy>
    <i name="alphaZ">      0.51957394 </i>
    <i name="ewald">   6127.35821176 </i>
    <i name="hartreedc">  -8131.84808824 </i>
    <i name="XCdc">    214.06151322 </i>
    <i name="pawpsdc">   4773.36665751 </i>
    <i name="pawaedc">  -4784.58623924 </i>
    <i name="eentropy">      0.00000000 </i>
    <i name="bandstr">   -754.25737864 </i>
    <i name="atom">   2425.98333211 </i>
    <i name="e_fr_energy">   -129.40241757 </i>
    <i name="e_wo_entrp">    <time name="dav">  267.75  267.53</time>
   <time name="total">  303.89  303.64</time>
   <energy>
    <i name="e_fr_en   <time name="total">  318.88  318.62</time>
   <energy>
    <i name="e_fr_energy">   -129.51725321 </i>
    <i name="e_wo_entrp"   <time name="total">  315.   <time name="dav">  232.   <time name="dav">  289.21  288.97</time>
   <time   <time name="dav">  273.13  272.90</time>
   <time name="total">  309.17  308.92</time>
   <energy>
    <i name="e_fr_energy">   -129.51716008 </i>
    <i name="e_wo_entrp">   -129.51716008 </i>
    <   <time name="dav">  190.   <time name="dav">  280.57  280.33</time>
   <time name="total">  316.44  316.18</time>
   <energy>
    <i name="e_fr_energy">     <time name="dav">  277.12  276.89</time>
   <time name="total">  314.37  314.11</time>
   <energy>
    <i name="e_fr_ener   <time name="dav">  192.   <time name="dav">  224.03  223.84</time>
   <time name="total">  259.58  259.37</time>
   <energy>
    <i name="e_fr_energy">     <time name="dav">  229.30  229.11</time>
   <time name="total">  266.69  266.47</time>
   <energy>
    <i name="e_fr_ener   <time name="dav">  187.   <time name="dav">  206.81  206.64</time>
   <time name="total">  225.44  225.25</time>
   <energy>
    <i name="alphaZ">      0   <time name="dav">  226.19  226.00</time>
   <time name="total">  246.32  246.12</time>
   <energy>
    <i name="alphaZ">      0.51957394 </i>
    <i name="ewald">   6119.86795796 </i>
    <i name="hartreedc">  -8121.51468968 </i>
    <i name="XCdc">    214.47480741 </i>
    <i name="pawpsdc">   4808.93434038 </i>
    <i name="pawaedc">  -4820.17246651 </i>
    <i name="eentropy">      0.00000000 </i>
    <i name="bandstr">   -757.05704222 </i>
    <i name="atom">   2425.98333211 </i>
    <i name  <structure>
   <crystal>  <structure>
   <crystal>
    <varray name="basis" >
     <v>      30.00000000       0.00000000       0.00000000 </v>
     <v>     <structure>
   <crystal>
    <varray name="basis" >
     <v>      30.00000000       0.00000000       0.00000000 </v>
     <v>       0.00000000      30.00000000       0.00000000 </v>
     <v>       0.00000000       0.00000000      30.00000000 </v>
    </varray>
    <i name="volume">  27000.00000000 </i>
    <varray name="rec_basis" >
     <v>       0.03333333       0.00000000       0.00000000 </v>
     <v>       0.00000000       0.03333333       0.00000000 </v>
     <v>       0.00000000       0.00000000       0.03333333 </v>
    </varray>
   </crystal>
   <varray name="positions" >
    <v>       0.37416903       0.53849309       0.49763177 </v>
    <v>       0.38455751       0.48952814       0.46426642 </v>
    <v>       0.38032367       0.48469180       0.52350973 </v>
    <v>       0.44816704       0.45038704       0.48841485 </v>
    <v>       0.50740152       0.44663330       0.54647974 </v>
    <v>       0.56246250       0.42575239       0.48282036 </v>
    <v>       0.52083162       0.44660255       0.44516958 </v>
    <v>       0.50836663       0.39970260       0.48011406 </v>
    <v>       0.50844809       0.55233140       0.51170988 </v>
    <v>       0.60898567       0.55046403       0.50842647 </v>
    <v>       0.57589739       0.57629278       0.46592816 </v>
    <v>       0.57861189       0.60082721       0.52063015 </v>
    <v>       0.39144464       0.50642656       0.49607438 </v>
    <v>       0.44057619       0.51509066       0.50194277 </v>
    <v>       0.51053460       0.46392769       0.51408447 </v>
    <v>       0.52671108       0.43136623       0.47810466 </v>
    <v>       0.54869113       0.49761409       0.52044498 </v>
    <v>       0.57835571       0.56940509       0.50197816 </v>
    <v>       0.46542727       0.47726866       0.50014279 </v>
    <v>       0.54132888       0.54130495       0.51459637 </v>
    <v>       0.45443110       0.55357621       0.50881030 </v>
    <v>       0.58586518       0.48104191       0.52799643 </v>
   </varray>
  </structure>
  <varray name="forces" >
   <v>      -0.14341539      -0.05069488      -0.07653781 </v>
   <v>      -0.10737776       0.02841243       0.00257780 </v>
   <v>      -0.15823476       0.05908976      -0.08817231 </v>
   <v>      -0.03590524       0.07494393       0.18525095 </v>
   <v>       0.04253302      -0.05703265      -0.05327259 </v>
   <v>      -0.03537651      -0.21668449      -0.02503403 </v>
   <v>       0.09377959      -0.10437468       0.03350785 </v>
   <v>       0.02264553      -0.06677930      -0.07415955 </v>
   <v>       0.13455917      -0.07076008      -0.13224480 </v>
   <v>       0.07195790       0.16711962       0.02368066 </v>
   <v>       0.12345800       0.20016622       0.04074303 </v>
   <v>       0.02978071       0.07638352       0.02513657 </v>
   <v>      -0.08890208       0.01453115      -0.02127437 </v>
   <v>      -0.05229148       0.01617254       0.09885576 </v>
   <v>       0.05034346      -0.00868605      -0.00547376 </v>
   <v>      -0.00052553      -0.05791649       0.01302489 </v>
   <v>       0.02874602      -0.07918309      -0.03909881 </v>
   <v>       0.06331854       0.05090582       0.00196866 </v>
   <v>      -0.05702107       0.04660754       0.02152264 </v>
   <v>      -0.01025321       0.04475771      -0.14499154 </v>
   <v>      -0.11028761      -0.02880760       0.15900103 </v>
   <v>       0.13846872      -0.03817093       0.05498974 </v>
  </varray>
  <varray name="stress" >
   <v>      -0.01944132       0.01221319       <energy>
   <i name="e_f  <energy>
   <i name="e_fr_energy">   -129.20822366 </i>
   <i   <i name="e_fr_energy">   -129.51716699 </i>
   <i name="e_wo_entrp">    <time name="totalsc"> 2059.87 2058.55</time>
 </calculation>
e="totalsc"> 20  <time name="totalsc"> 20  <time name="totalsc"> 20  <time name="totalsc"> 20  <time name="totalsc"> 2060.16 2058.51</time>
 </ca  <time name="totalsc"> 2060.03 2058.35</time>
 </ca  <time name="totalsc"> 2060.17 2058.62</time>
 </calculation>
e="totalsc"> 20  <time name="totalsc"> 2059.99 2058.35</time>
 </ca   <time name="dav">  221.36  221.18</time>
   <time name="total">  257.58  257.36</time>
   <en   <time name="total">  273.38  273.15</time>
   <en   <time name="total">  289.59  289.35</time>
   <energy>
    <i name="alphaZ">      0.51957394 </i>
    <i name="ewald">   6127.80650668 </i>
    <i name="hartreedc">  -8132.27739652 </i>
    <i name="XCdc">    214.07068803 </i>
    <i name="pawpsdc">   4775.27680615 </i>
    <i name="pawaedc">  -4786.49790838 </i>
    <i name="eentropy">      0.00000000 </i>
    <i name="bandstr">   -754.28479867 </i>
    <i name="atom">   2425.98333211 </i>
    <i name="e_fr_energy">   -129.40319666 </i>
    <i name="e_wo_entrp">    <time name="dav">  237.   <time name="dav">  263.   <time name="dav">  275.98  275.75</time>
   <time name="total">  312.13  311.87</time>
   <energy>
    <i name="e_fr_energy">   -129.51800875 </i>
    <i name="e_wo_entrp">   -129.51800875 </i>
    <i name="e_0_energy">   -     <time name="dav">  280.   <time name="dav">  289.43  289.18</time>
   <time name="total">  325.52  325.25</time>
   <energy>
    <i name="e_fr_energy">   -129.00448796 </i>
    <i name="e_wo_entrp">   -129.00448796 </i>
    <i name="e_0_energy">   -129.00448796 </i>
   </energ   <time name="dav">  266.   <time name="dav">  289.79  289.55</time>
   <time name="total">  325.68  325.41</time>
   <energy>
    <i name="e_fr_energy">   -129.00459548 </i>
    <i name="e_wo_entrp">   -129.00459548 </i>
    <i name="e_0_energy">   -129.00459548 </i>
   </energ   <time name="dav">  225.   <time name="dav">  193.18  193.02</time>
   <time name="total">  229.05  228.86</time>
   <energy>
    <i name="e_fr_energy">   -129.00460219 </i>
    <i   <time name="dav">  227.08  226.90</time>
   <time name="total">  264.56  264.34</time>
   <ener   <time name="dav">  185.   <time name="dav">  216.50  216.32</time>
   <time name="total">  235.20  235.01</time>
   <energy>
    <i name="alphaZ">      0.51957394 </i>
    <i name   <time name="dav">  216.17  215.99</time>
   <time name="total">  236.26  236.06</time>
   <energy>
    <i name="alphaZ">      0   <time name="dav">  224.73  224.54</time>
   <time name="total">  244.84  244.64</time>
   <energy>
    <i name="alphaZ">      0.51957394 </i>
    <i name="ewald">   6096.67421578 </i>
    <i name="hartreedc">  -8098.75474460 </i>
    <i name="XCdc">    214.21929660 </i>
    <i name="pawpsdc">   4773.70384511 </i>
    <i name="pawaedc">  -4784  <structure>
   <crystal>  <structure>
   <crystal>
    <varray name="basis" >
     <v>      30.00000000       0.00000000       0.00000000 </v>
     <v>       0.00000000      30.000  <structure>
   <crystal>
    <varray name="basis" >
     <v>      30.00000000       0.00000000       0.00000000 </v>
     <v>     <structure>
   <crystal>
    <varray name="basis" >
     <v>      30.00000000       0.00000000       0.00000000 </v>
     <v>       0.00000000      30.00000000       0.00000000 </v>
     <v>       0.00000000       0.00000000      30.00000000 </v>
    </varray>
    <i name="volume">  27000.00000000 </i>
    <varray name="rec_basis" >
     <v>       0.03333333       0.00000000       0.00000000 </v>
     <v>       0.00000000       0.03333333       0.00000000 </v>
     <v>       0.00000000       0.00000000       0.03333333 </v>
    </varray>
   </crystal>
   <varray name="positions" >
    <v>       0.37329132       0.53667874       0.49717592 </v>
    <v>       0.38066979       0.48811923       0.46324084 </v>
    <v>       0.37916193       0.48279959       0.52254312 </v>
    <v>       0.44453930       0.44571389       0.49548240 </v>
    <v>       0.51078780       0.43323849       0.53158440 </v>
    <v>       0.56676202       0.44041177       0.46638476 </v>
    <v>       0.52348890       0.46886586       0.43663242 </v>
    <v>       0.51640883       0.41191019       0.45293613 </v>
    <v>       0.50839924       0.54841536       0.51054754 </v>
    <v>       0.60672922       0.54826386       0.53046941 </v>
    <v>       0.58252377       0.57778712       0.48443732 </v>
    <v>       0.57378015       0.59729997       0.54022958 </v>
    <v>       0.39003731       0.50430270       0.49486172 </v>
    <v>       0.44000460       0.51175545       0.49741813 </v>
    <v>       0.51102072       0.46099438       0.50748133 </v>
    <v>       0.53055541       0.44431463       0.46297408 </v>
    <v>       0.54603961       0.49365449       0.52607645 </v>
    <v>       0.57760243       0.56733242       0.51944237 </v>
    <v>       0.46361677       0.47313106       0.50171388 </v>
    <v>       0.53943116       0.53779818       0.52172929 </v>
    <v>       0.45523437       0.55031322       0.49677604 </v>
    <v>       0.58120647       0.47636960       0.53940447 </v>
   </varray>
  </structure>
  <varray name="forces" >
   <v>       0.00073078      -0.04631768      -0.03091238 </v>
   <v>      -0.01741701       0.02424863       0.03639985 </v>
   <v>      -0.09033817       0.02882185      -0.06376615 </v>
   <v>       0.01499845      -0.02065507       0.20770067 </v>
   <v>       0.05255471       0.03770306      -0.03783490 </v>
   <v>      -0.01856559      -0.07927127      -0.01399472 </v>
   <v>       0.05844142      -0.04100125      -0.00822473 </v>
   <v>      -0.06144804       0.09346154       0.03029577 </v>
   <v>       0.05845397       0.01559607      -0.07473318 </v>
   <v>       0.10920258       0.09098699       0.03901182 </v>
   <v>       0.06902353       0.07858122       0.12176239 </v>
   <v>      -0.07275894      -0.06670821       0.03053437 </v>
   <v>      -0.04217715      -0.06144133      -0.03249273 </v>
   <v>      -0.12424531      -0.00564371       0.01003628 </v>
   <v>       0.03253014      -0.09483268      -0.02228724 </v>
   <v>      -0.07563097      -0.05000454      -0.14366904 </v>
   <v>       0.02919996       0.00314497       0.00113089 </v>
   <v>       0.02393104       0.10442523      -0.01398714 </v>
   <v>      -0.09438633       0.03810959       0.00077670 </v>
   <v>       0.13364235       0.06968178      -0.08352157 </v>
   <v>       0.02862491      -0.05834065       0.0061  <energy>
   <i name="e_f  <energy>
   <i name="e_fr_energy">   -129.00460716 </i>
   <i name="e_wo_entrp">   -129.00460716 </i>
   <i name="e_0_energy">      0.  <time name="totalsc"> 20  <time name="totalsc"> 20  <time name="totalsc"> 2060.09 2058.55</time>
 </ca  <time name="totalsc"> 2059.99 2058.51</time>
 </calculation>
30</time>
 </ca  <time name="totalsc"> 20  <time name="totalsc"> 20  <time name="totalsc"> 20  <time name="totalsc"> 2060.16 2058.60</time>
 </calculation>
e="totalsc"> 2059.92 2058.39</time>
 </calculation>
36</time>
 </ca   <time name="dav">  220.   <time name="dav   <time name="total">  25   <time name="total">  25   <time name="total">  257.38  257.17</time>
   <en   <time name="total">  26   <time name="total">  271.66  271.44</time>
   <energy>
    <i name="alphaZ">      0.51957394 </i>
    <i name="ewald">   6090.04918407 </i>
    <i name="hartreedc">  -8094.73694068 </i>
    <i name="XCdc">    214.08720084 </i>
    <i name="pawpsdc">   4782.73823342 </i>
    <i name="pawaedc">  -4793.95905546 </i>
    <i name="eentropy">      0.00000000 </i>
    <i name="bandstr">   -754.20021343 </i>
    <i name="atom">   2425.98333211 </i>
    <i name="e_fr_energy">   -129.51868519 </i>
   <time name="dav">  237.   <time name="dav   <time   <time name="dav   <time name="total">  28   <time name="total">  29   <time name="total">  306.39  306.14</time>
   <en   <time name="total">  294.66  294.42</time>
   <energy>
    <i name="e_fr_energy">   -129.51878368 </i     <time name="dav">  289.21  288.97</time>
   <time name="total">  325.21  324.94</time>
   <en   <time name="total">  30   <time name="total">  306.71  306.46</time>
   <energy>
    <i name="e_fr_energy">   -129.15815932 </i   <time name="total">  31   <time name="total">  314.   <time name="dav">  266.84  266.62</time>
   <time   <time name="dav">  289.   <time name="dav   <time name="total">  32   <time name="total">  324.85  324.59</time>
   <energy>
    <i name="e_fr_energy">   -129.15828436 </i>
    <i name="e_wo_entrp"   <time name="total">  317.   <time name="dav">  209.03  208.86</time>
   <time name="total">  245.29  24   <time name="dav   <time name="total">  22   <time name="total">  227.64  227.46</time>
   <energy>
     <time name="dav">  229.48  229.29</time>
   <time name="total">  266.84  266.62</time>
   <ener   <time name="dav">  188.84  188.68</time>
   <time   <time name="dav">  220.   <time name="dav">  214.59  214.41</time>
   <time name="total">  233.26  233.07</time>
   <energy>
     <time name="dav">  235.31  235.12</time>
   <time name="total">  255.28  255.30</time>
   <energy>
    <i name="alphaZ">      0   <time name="dav">  221.76  221.58</time>
   <time name="total">  242.05  241.85</time>
   <energy>
    <i name="alphaZ">      0.51957394 </i>
    <i name="ewald">   6092.80187294 </i>
    <i name="hartreedc">  -8094.95691372 </i>
    <i name="XCdc">    214.23375880 </i>
    <i name="pawpsdc">   4776.79474215 </i>
    <i name="pawaedc">  -4788  <structure>
   <crystal>
    <varray name="basis"   <structure>
   <crystal>  <structure>
   <crystal>
    <varray name="basis" >
     <v>      30.00000000       0.00000000       0  <structure>
   <crystal>
    <varray name="basis" >
     <v>      30.00000000       0.00000000       0.00000000 </v>
     <v>     <structure>
   <crystal>
    <varray name="basis" >
     <v>      30.00000000       0.00000000       0.00000000 </v>
     <v>       0.00000000      30.00000000       0.00000000 </v>
     <v>       0.00000000       0.00000000      30.00000000 </v>
    </varray>
    <i name="volume">  27000.00000000 </i>
    <varray name="rec_basis" >
     <v>       0.03333333       0.00000000       0.00000000 </v>
     <v>       0.00000000       0.03333333       0.00000000 </v>
     <v>       0.00000000       0.00000000       0.03333333 </v>
    </varray>
   </crystal>
   <varray name="positions" >
    <v>       0.37326003       0.53663797       0.49708429 </v>
    <v>       0.38062895       0.48815542       0.46321795 </v>
    <v>       0.37895894       0.48281364       0.52248495 </v>
    <v>       0.44451558       0.44560948       0.49591863 </v>
    <v>       0.51094029       0.43331530       0.53156169 </v>
    <v>       0.56672219       0.44021911       0.46639185 </v>
    <v>       0.52355270       0.46879349       0.43655179 </v>
    <v>       0.51618579       0.41198142       0.45302209 </v>
    <v>       0.50862077       0.54851955       0.51044042 </v>
    <v>       0.60695929       0.54856136       0.53055999 </v>
    <v>       0.58258614       0.57792491       0.48447760 </v>
    <v>       0.57361588       0.59715789       0.54037630 </v>
    <v>       0.38990522       0.50425849       0.49484904 </v>
    <v>       0.43984691       0.51172210       0.49743764 </v>
    <v>       0.51105624       0.46098080       0.50729268 </v>
    <v>       0.53052041       0.44430287       0.46293025 </v>
    <v>       0.54612399       0.49367151       0.52603798 </v>
    <v>       0.57773689       0.56740507       0.51943964 </v>
    <v>       0.46354367       0.47313398       0.50168232 </v>
    <v>       0.53967986       0.53781581       0.52148750 </v>
    <v>       0.45515900       0.55024516       0.49679900 </v>
    <v>       0.58117298       0.47624376       0.53949755 </v>
   </varray>
  </structure>
  <varray name="forces" >
   <v>      -0.02995606      -0.00663103      -0.02031325 </v>
   <v>      -0.03174113      -0.00385634       0.00168809 </v>
   <v>      -0.10103829       0.00143205      -0.03382489 </v>
   <v>      -0.01373748      -0.02982031       0.18710799 </v>
   <v>       0.03076317       0.05220096      -0.07612148 </v>
   <v>      -0.03683349      -0.07603198      -0.02164478 </v>
   <v>       0.05801368      -0.01958973      -0.03021106 </v>
   <v>      -0.05833017       0.05961015       0.00151759 </v>
   <v>       0.06621877      -0.00755614      -0.07461992 </v>
   <v>       0.10747468       0.06360656       0.02870217 </v>
   <v>       0.09894559       0.10732944       0.10821144 </v>
   <v>      -0.06148898       0.00017912       0.03863872 </v>
   <v>      -0.00122445      -0.03612402      -0.03514169 </v>
   <v>      -0.04475457      -0.02821365       0.01724188 </v>
   <v>       0.00106226       0.00150524       0.14128402 </v>
   <v>      -0.04446637      -0.07923248      -0.16650917 </v>
   <v>       0.00589482      -0.03624047      -0.05044865 </v>
   <v>       0.03227752       0.08973984      -0.00973065 </v>
   <v>      -0.03589986       0.00622066       0.01317283 </v>
   <v>       0.05361140       0.01173501      -0.06419598 </v>
   <v>       0.02380075      -0.04213395       0.0026  <energy>
   <i name="e_fr_energy">    <i name="e_fr_energy">    <i name="e_fr_ener   <i name="e_wo_entrp">   -129.49972319 </i>
   <i name="e_0_energy">      0.  <time name="totalsc"> 2071.12 2069.44</time>
 </ca  <time name="totalsc"> 2071.09 2069.52</time>
 </ca  <time name="totalsc"> 2071.01 2070.09</time>
 </calculation>
e="totalsc"> 20  <time name="totalsc"> 20  <time name="totalsc"> 20  <time name="totalsc"> 2070.70 2069.05</time>
 </ca  <time name="totalsc"> 2070.63 2069.55</time>
 </calculation>
e="totalsc"> 20   <time name="dav">  217.   <time name="dav   <time   <time name="dav">  238.23  238.04</time>
   <time name="total">  274.83  274.60</time>
   <energy>
    <i name="alphaZ">      0.51957394 </i>
    <i name="ewald">   6089.39613062 </i>
    <i name="hartreedc">  -8094.12923590 </i>
    <i name="XCdc">    214.07290809 </i>
    <i name="pawpsdc">   4779.73571043 </i>
    <i name="pawaedc">  -4790.95365199 </i>
    <i name="eentropy">      0.00000000 </i>
    <i name="bandstr">   -754.14349007 </i>
    <i name="atom">   2425.98333211 </i>
    <i name="e_fr_energy">   -129.51872276 </i>
    <i name="e_wo_entrp">   -129.51872276 </i>
    <i name="e_0_energy">   -12   <time name="dav">  251.   <time name="dav   <time   <time name="dav">  264.89  264.67</time>
   <time name="total">  300.92  300.67</time>
   <energy>
    <i name="e_fr_energy">   -129.51882643 </i>
    <i name="e_wo_entrp">   -129.51882643 </i>
    <i name="e_0_energy">   -12   <time name="dav">  267.30  267.07</time>
   <time name="total">  302.81  30   <time name="dav">  289.64  289.40</time>
   <time name="total">  325.82  325.56</time>
   <en   <time name="total">  312.17  311.92</time>
   <energy>
    <i name="e_fr_energy">   -129.03050903    <t   <time name="dav">  273.20  272.98</time>
   <time name="total">  308.78  30   <time name="dav">  276.07  275.85</time>
   <time name="total">  312.26  312.00</time>
   <en   <time name="total">  31   <time name="total">  317.24  316.98</time>
   <energy>
    <i name="e_fr_ener   <time name="dav">  205.68  225.45</time>
   <time name="total">  241.39  26   <time name="dav">  241.65  241.45</time>
   <time   <time name="dav">  244.29  255.85</time>
   <time name="total">  281.52  294.63</time>
   <energy>
    <i name="e_fr_energy">   -129.03097258 </i>
   <time name="dav">  191.12  195.13</time>
   <time name="total">  209.70  21   <time name="dav">  214.84  214.66</time>
   <time   <time name="dav">  225.85  242.00</time>
   <time name="total">  245.74  262.86</time>
   <energy>
    <i name="alphaZ">      0.51957394 </i>
    <i name="ewald">   6079.46131907 </i>
    <i name="hartreedc">  -8081.49583541 </i>
    <i name="XCdc">    214.25156768 </i>
    <i name="pawpsdc">   4773.56748738 </i>
    <i name="pawaedc">  -4784.78755030 </i>
    <i name="eentropy">      0.00000000 </i>
    <i name="bandstr">   -756.53088855 </i>
    <i name="atom">   2425.98333211 </i>
    <i name="e_fr_energy">   -129.030  <structure>
   <crystal>
    <varray name="basis" >
     <v>      30.0000000  <structure>
   <crystal>
    <varray name="basis"   <structure>
   <crystal>
    <varray name="basis" >
     <v>      30.00000000       0.00000000       0.00000000 </v>
     <v>       0.00000000      30.00000000       0.00000000 </v>
     <v>       0.00000000       0.00000000      30.00000000 </v>
    </varray>
    <i name="volume">  27000.00000000 </i>
    <varray name="rec_basis" >
     <v>       0.03333333       0.00000000       0.00000000 </v>
     <v>       0.00000000       0.03333333       0.00000000 </v>
     <v>       0.00000000       0.00000000       0.03333333 </v>
    </varray>
   </crystal>
   <varray name="positions" >
    <v>       0.37307072       0.53836423       0.49712346 </v>
    <v>       0.38374788       0.48961836       0.46411591 </v>
    <v>       0.37918835       0.48490909       0.52311951 </v>
    <v>       0.44781581       0.45067953       0.48962021 </v>
    <v>       0.50763488       0.44606602       0.54629859 </v>
    <v>       0.56246306       0.42430070       0.48264218 </v>
    <v>       0.52138019       0.44622571       0.44509005 </v>
    <v>       0.50848408       0.39909548       0.47958845 </v>
    <v>       0.50903928       0.55189663       0.51074194 </v>
    <v>       0.60950501       0.55143547       0.50876756 </v>
    <v>       0.57670217       0.57769836       0.46611302 </v>
    <v>       0.57886349       0.60140894       0.52085507 </v>
    <v>       0.39079053       0.50653989       0.49585111 </v>
    <v>       0.44011223       0.51528076       0.50247979 </v>
    <v>       0.51082589       0.46366980       0.51403178 </v>
    <v>       0.52684319       0.43080437       0.47799888 </v>
    <v>       0.54920603       0.49736344       0.52028828 </v>
    <v>       0.57876598       0.56998835       0.50205794 </v>
    <v>       0.46536077       0.47759897       0.50039700 </v>
    <v>       0.54176536       0.54118902       0.51383809 </v>
    <v>       0.45366717       0.55371721       0.50992572 </v>
    <v>       0.58635556       0.48088090       0.52833270 </v>
   </varray>
  </structure>
  <varray name="forces" >
   <v>      -0.05844762       0.00774220      -0.04596324 </v>
   <v>      -0.01226358       0.00349931      -0.03033968 </v>
   <v>      -0.13508801       0.02365084      -0.03686687 </v>
   <v>      -0.09869246      -0.07173244       0.07642875 </v>
   <v>       0.04985119       0.03397171      -0.06638044 </v>
   <v>      -0.02686095      -0.10027105       0.02286814 </v>
   <v>       0.08627212      -0.11301647       0.01756574 </v>
   <v>      -0.05213141       0.00583114      -0.03341381 </v>
   <v>      -0.03735155       0.03390930      -0.08953644 </v>
   <v>       0.10088497       0.09636046      -0.00055861 </v>
   <v>       0.11751343       0.10512960       0.06728397 </v>
   <v>      -0.06026773      -0.01662666       0.07686196 </v>
   <v>       0.00577976      -0.02690464       0.02612228 </v>
   <v>      -0.10195734       0.00146150       0.05822876 </v>
   <v>      -0.02914445       0.02720463      -0.03352946 </v>
   <v>      -0.06679780       0.01159375       0.00159253 </v>
   <v>       0.07456195       0.05344896      -0.05458532 </v>
   <v>      -0.04873999       0.03744479      -0.02600577 </v>
   <v>       0.10244513       0.00152265       0.07127395 </v>
   <v>       0.21881897      -0.12510036      -0.13497263 </v>
   <v>       0.00304689      -0.03325847       0.12337182 </v>
   <v>      -0.03143152       0.04413927       0.01055435 </v>
  </varray>
  <varray name="stress" >
   <v>      -0.12607878       0.02910590      -0.00147486 </v>
   <v>    <energy>
   <i name="e_fr_energy">   -129.16861506 </i>
   <i name="e_wo_entrp">   -129.16861506 </i>
   <i name="e_0_energy">      0.   <i name="e_wo_entrp">    <time name="totalsc"> 2071.90 2118.77</time>
 </calculation>
71</time>
 </ca  <time name="totalsc"> 2078.87 2118.56</time>
 </calculation>
99</time>
 </ca  <time name="totalsc"> 2079.82 2117.53</  <time name="totalsc"> 21  <time name="totalsc"> 21  <time name="totalsc"> 2119.19 2117.51</time>
 </ca  <time name="totalsc"> 2119.19 2117.62</time>
 </ca   <time name="dav">  220.78  220.60</time>
   <time name="total">  257.97  257.75</time>
   <energy>
    <i name="alphaZ">      0.51957394 </i>
      <time name="total">  25   <time name="total">  26   <time name="total">  262.57  262.36</time>
   <en   <time name="total">  26   <time name="total">  26   <time name="total">  26   <time name="total">  268.39  268.17</time>
   <energy>
    <i name="alphaZ"   <time name="total">  268.65  268.72</time>
   <energy>
    <i name="alphaZ">      0.51957394 </i>
    <i name="ewald">   6127.50612434 </i>
    <i name="hartreedc">  -8131.62677056 </i>
    <i name="XCdc">    214.13891315 </i>
    <i name="pawpsdc">   4785.05   <time name="dav">  256.01  255.79</time>
   <time name="total">  293.28  293.04</time>
   <energy>
    <i name="e_fr_energy">     <time name="dav">  276.28  276.05</time>
   <time name="total">  313.24  312.98</time>
   <energy>
    <i name="e_fr_energy">   -129.36529294 </i>
   <time name="dav">  273.44  273.21</time>
   <time name="total">  310.45  310.20</time>
   <energy>
    <i name="e_fr_energy">     <time name="dav">  276.08  275.90</time>
   <time name="total">  312.30  312.20</time>
   <energy>
    <i name="e_fr_energy">     <time name="dav">   <time name="dav">  266.38  266.16</time>
   <time name="total">  303.38  303.21</time>
   <energy>
    <i name="e_fr_energy">   -129.05170244 </i   <time name="total">  304.03  303.84</time>
   <energy>
     <time name="dav">  296.78  296.54</time>
   <time name="total">  333.   <time name="dav">  258.93  258.72</time>
   <time name="total">  296.09  295.85</time>
   <energy>
    <i name="e_fr_energy">   -129.05179221 </i>
    <i name="e_wo_entrp">   -129.05179221 </i>
    <i name="e_0_energy">   -129.05179221 </i>
   </ene   <time   <time name="dav">   <time name="dav">  220.80  220.61</time>
   <time name="total">  240.63  240.43</time>
   <energy>
    <i name="alphaZ">      0.51957394 </i>
    <i name="ewald">   6066.07833808 </i>
    <i name="hartreed   <time name="dav">  209.06  208.88</time>
   <time   <time name="dav">  212.72  212.54</time>
   <time name="total">  232.88  232.68</time>
   <energy>
    <i name="alphaZ">      0.51957394 </i>
    <i name="ewald">   6064.67794989 </i>
    <i name="hartreedc">  -8066.84968505 </i>
    <i name="XCdc">    214.18765052 </i>
    <i name="pawpsdc">   4772.07701992 </i>
    <i name="pawaedc">  -4783.29301796 </i>
    <i name="eentropy">      0.000000  <structure>
   <crystal>
    <varray name="basis" >
     <v>      30.00000000       0.00000000       0.00000000 </v>
     <v>       0.00000000      30.00000000       0.00000000 </v>
     <v>       0.0000000  <structure>
   <crystal>
    <varray name="basis"   <structure>
   <crystal>
    <varray name="basis" >
     <v>      30.00000000       0.00000000       0.00000000 </v>
     <v>       0.00000000      30.00000000       0.00000000 </v>
     <v>       0.00000000       0.00000000      30.00000000 </v>
    </varray>
    <i name="volume">  27000.00000000 </i>
    <varray name="rec_basis" >
     <v>       0.03333333       0.00000000       0.00000000 </v>
     <v>       0.00000000       0.03333333       0.00000000 </v>
     <v>       0.00000000       0.00000000       0.03333333 </v>
    </varray>
   </crystal>
   <varray name="positions" >
    <v>       0.37380416       0.54034524       0.49774276 </v>
    <v>       0.38545841       0.49186811       0.46468328 </v>
[...]
       <r>  -10.7329    1.0000 </r>
       <r>  -10.4046    1.0000 </r>
       <r>  -10.1239    1.0000 </r>
       <r>  -10.0352    1.0000 </r>
       <r>   -9.9481    1.0000 </r>
       <r>   -9.3494    1.0000 </r>
       <r>   -9.1127    1.0000 </r>
       <r>   -8.9347    1.0000 </r>
       <r>   -8.7418    1.0000 </r>
       <r>   -8.4489    1.0000 </r>
       <r>   -6.7922    1.0000 </r>
       <r>   -6.2873    1.0000 </r>
       <r>   -5.7677    1.0000 </r>
       <r>   -5.4311    1.0000 </r>
       <r>   -1.1538    0.0000 </r>
       <r>   -1.0226    0.0000 </r>
       <r>   -0.4643    0.0000 </r>
       <r>   -0.2830    0.0000 </r>
       <r>   -0.1984    0.0000 </r>
       <r>   -0.0445    0.0000 </r>
       <r>    0.0408    0.0000 </r>
       <r>    0.1130    0.0000 </r>
       <r>    0.1256    0.0000 </r>
       <r>    0.1440    0.0000 </r>
       <r>    0.1858    0.0000 </r>
       <r>    0.1941    0.0000 </r>
      </set>
      <set comment="kpoint 4">
       <r>  -26.2472    1.0000 </r>
       <r>  -25.4843    1.0000 </r>
       <r>  -23.4788    1.0000 </r>
       <r>  -22.6252    1.0000 </r>
       <r>  -19.6161    1.0000 </r>
       <r>  -18.2976    1.0000 </r>
       <r>  -17.3196    1.0000 </r>
       <r>  -16.1494    1.0000 </r>
       <r>  -14.7730    1.0000 </r>
       <r>  -13.8937    1.0000 </r>
       <r>  -13.2575    1.0000 </r>
       <r>  -12.       <r>  -13.0233       <r>  -11.       <r>  -12.5025    1.0000 </r>
       <r>  -11.7633    1.0000 </r>
       <r>  -11.3759    1.0000 </r>
       <r>  -11.1466    1.0000 </r>
       <r>  -10.5509    1.0000 </r>
       <r>  -10.4116    1.0000 </r>
       <r>  -10.1160    1.0000 </r>
       <r>  -10.0661    1.0000 </r>
       <r>   -9.8945    1.0000 </r>
       <r>   -9.3718    1.0000 </r>
       <r>   -9.1269    1.0000 </r>
       <r>   -8.9516    1.0000 </r>
       <r>   -8.8300    1.0000 </r>
       <r>   -8.4184    1.0000 </r>
       <r>   -6.5443    1.0000 </r>
       <r>   -6.3006    1.0000 </r>
       <r>   -5.7128    1.0000 </r>
       <r>   -5.5680    1.0000 </r>
       <r>   -1.1042    0.0000 </r>
       <r>   -1.0283    0.0000 </r>
       <r>   -0.4716    0.0000 </r>
       <r>   -0.2338    0.0000 </r>
       <r>   -0.1554    0.0000 </r>
       <r>   -0.0639    0.0000 </r>
       <r>    0.0362    0.0000 </r>
       <r>    0.1120    0.0000 </r>
       <r>    0.1315    0.0000 </r>
       <r>    0.1401    0.0000 </r>
       <r>    0.1670    0.0000 </r>
       <r>    0.1910    0.0000 </r>
      </set>
     </set>
    </set>
   </array>
  </eigenvalues>
  <separator name="orbital magnetization" >
   <v name="MAGDIPOLOUT">      0.00000000      0.00000000      0.00000000</v>
  </separator>
  <dos>
   <i name="efermi">     -4.60165034 </i>
   <total>
    <array>
     <dimension dim="1">gridpoints</dimension>
     <dimension dim="2">spin</dimension>
     <field>energy</field>
     <field>total</field>
     <field>integrated</field>
     <set>
      <set comment="spin 1">
       <r>   -28.2650     0.0000     0.0000 </r>
       <r>   -28.1635     0.0000     0.0000 </r>
       <r>   -28.0619     0.0000     0.0000 </r>
       <r>   -27.9604     0.0000     0.0000 </r>
       <r>   -27.8588         <r>   -27.6224     0.0000     0.0000 </r>
       <r>   -27.5213     0.0000     0.0000 </r>
       <r>   -27.4202     0.0000     0.0000 </r>
       <r>   -27.3191     0.0000     0.0000 </r>
       <r>   -27.2180     0.0000     0.0000 </r>
       <r>   -27.1169     0.0000     0.0000 </r>
       <r>   -27.0158     0.0000     0.0000 </r>
       <r>   -26.9147     0.0000     0.0000 </r>
       <r>   -26.8136     0.0000     0.0000 </r>
       <r>   -26.7126     0.0003     0.0000 </r>
       <r>   -26.6115     0.0058     0.0006 </r>
       <r>   -26.5104     0.0613     0.0068 </r>
       <r>   -26.4093     0.3930     0.0466 </r>
       <r>   -26.3082     1.5390     0.2021 </r>
       <r>   -26.2071     3.6888     0.5750 </r>
       <r>   -26.1060     5.4197     1.1229 </r>
       <r>   -26.0049     4.9174     1.6200 </r>
       <r>   -25.9038     2.9925     1.9225 </r>
       <r>   -25.8027     2.1969     2.1446 </r>
       <r>   -25.7017     3.5188     2.5003 </r>
       <r>   -25.6006     5.2952     3.0356 </r>
       <r>   -25.4995     5.1138     3.5526 </r>
       <r>   -25.3984     3.0379     3.8597 </r>
       <r>   -25.2973     1.1057     3.9714 </r>
       <r>   -25.1962     0.2462     3.9963 </r>
       <r>   -25.0951     0.0335     3.9997 </r>
       <r>   -24.9940     0.0028     4.0000 </r>
       <r>   -24.8929     0.0001     4.0000 </r>
       <r>   -24.7918     0.0000     4.0000 </r>
       <r>   -24.6908     0.0000     4.0000 </r>
       <r>   -24.5897     0.0000     4.0000 </r>
       <r>   -24.4886     0.0000     4.0000 </r>
       <r>   -24.3875     0.0000     4.0000 </r>
       <r>   -24.2864     0.0000     4.0000 </r>
       <r>   -24.1853     0.0000     4.0000 </r>
       <r>   -24.0842     0.0       <r>   -24.2765     0.0000     4.0000 </r>
       <r>   -24.1751     0.0000     4.0000 </r>
       <r>   -24.0736     0.0003     4.0000 </r>
       <r>   -23.9722     0.0054     4.0006 </r>
       <r>   -23.8708     0.0577     4.0064 </r>
       <r>   -23.7694     0.3770     4.0447 </r>
       <r>   -23.6679     1.5006     4.1969 </r>
       <r>   -23.5665     3.6437     4.5665 </r>
       <r>   -23.4651     5.4027     5.1145 </r>
       <r>   -23.3636     4.8940     5.6108 </r>
       <r>   -23.2622     2.7082     5.8855 </r>
       <r>   -23.1608     0.9184     5.9787 </r>
       <r>   -23.0593     0.2304     6.0021 </r>
       <r>   -22.9579     0.3189     6.0344 </r>
       <r>   -22.8565     1.2656     6.1628 </r>
       <r>   -22.7551     3.2994     6.4974 </r>
       <r>   -22.6536     5.2591     7.0309 </r>
       <r>   -22.5522     5.1211     7.5503 </r>
       <r>   -22.4508     3.0463     7.8593 </r>
       <r>   -22.3493     1.1063     7.9715 </r>
       <r>   -22.2479     0.2451     7.9964 </r>
       <r>   -22.1465     0.0331     7.9997 </r>
       <r>   -22.0450     0.0027     8.0000 </r>
       <r>   -21.9436     0.0001     8.0000 </r>
       <r>   -21.8422     0.0000     8.0000 </r>
       <r>   -21.7408     0.0000     8.0000 </r>
       <r>   -21.6393     0.0000     8.0000 </r>
       <r>   -21.5379     0.0000     8.0000 </r>
       <r>   -21.4365     0.0000     8.0000 </r>
       <r>   -21.3350     0.0000     8.0000 </r>
       <r>   -21.2336     0.0000     8.0000 </r>
       <r>   -21.1322     0.0000     8.0000 </r>
       <r>   -21.0307     0.0000     8.0000 </r>
       <r>   -20.9293     0.0000     8.0000 </r>
       <r>   -20.8279     0.0000     8.0000 </r>
       <r>   -20.7265     0.0000     8.0000 </r>
       <r>   -20.6250     0.0000     8.0000 </r>
       <r>   -20.5236     0.0000     8.0000 </r>
       <r>   -20.4222     0.0000     8.0000 </r>
       <r>   -20.3207     0.0000     8.0000 </r>
       <r>   -20.2193     0.0002     8.0000 </r>
       <r>   -20.1179     0.0039     8.0004 </r>
       <r>   -20.0164     0.0444     8.0049 </r>
       <r>   -19.9150     0.3079     8.0362 </r>
       <r>   -19.8136     1.3019     8.1682 </r>
       <r>   -19.7122     3.3575     8.5088 </r>
       <r>   -19.6107     5.2869     9.0450 </r>
       <r>   -19.5093     5.0859     9.5609 </r>
       <r>   -19.4079     2.9887     9.8640 </r>
       <r>   -19.3064     1.0722     9.9728 </r>
       <r>   -19.2050     0.2346     9.9966 </r>
       <r>   -19.1036     0.0313     9.9997 </r>
       <r>   -19.0021     0.0025    10.0000 </r>
       <r>   -18.9007     0.0002    10.0000 </r>
       <r>   -18.7993     0.0009    10.0001 </r>
       <r>   -18.6979     0.0129    10.0014 </r>
       <r>   -18.5964     0.1167    10.0132 </r>
       <r>   -18.4950     0.6423    10.0784 </r>
       <r>   -18.3936     2.1551    10.2970 </r>
       <r>   -18.2921     4.4134    10.7446 </r>
       <r>   -18.1907     5.5204    11.3046 </r>
       <r>   -18.0893     4.2188         <r>   -17.4466     5.1899    13.5277 </r>
       <r>   -17.3453     3.1695    13.8487 </r>
       <r>   -17.2440     1.1836    13.9685 </r>
       <r>   -17.1428     0.2700    13.9959 </r>
       <r>   -17.0415     0.0376    13.9997 </r>
       <r>   -16.9402     0.0032    14.0000 </r>
       <r>   -16.8390     0.0002    14.0000 </r>
       <r>   -16.7377     0.0000    14.0000 </r>
       <r>   -16.6365     0.0000    14.0000 </r>
       <r       <r>   -16.8812     0.1503    13.9981 </r>
       <r>   -16.7797     0.0178    13.9999 </r>
       <r>   -16.6782     0.0030    14.0002 </r>
       <r>   -16.5767     0.0230    14.0025 </r>
       <r>   -16.4752     0.1842    14.0212 </r>
       <r>   -16.3738     0.9002    14.1126 </r>
       <r>   -16.2723     2.6820    14.3847 </r>
       <r>   -16.1708     4.8753    14.8795 </r>
       <r>   -16.0693     5.4108    15.4286 </r>
       <r>   -15.9678     3.6668    15.8007 </r>
       <r>   -15.8664     1.5167    15.9546 </r>
       <r>   -15.7649     0.3825    15.9934 </r>
       <r>   -15.6634     0.0588    15.9994 </r>
       <r>   -15.5619     0.0055    16.0000 </r>
       <r>   -15.4604     0.0003    16.0000 </r>
       <r>   -15.3589     0.0003    16.0000 </r>
       <r>   -15.2575     0.0057    16.0006 </r>
       <r>   -15.1560     0.0606    16.0068 </r>
       <r>   -15.0545     0.3918    16.0465 </r>
       <r>   -14.9530     1.5421    16.2030 </r>
       <r>   -14.8515     3.7012    16.5786 </r>
       <r>   -14.7500     5.4219    17.1289 </r>
       <r>   -14.6486     4.8498    17.6210 </r>
       <r>   -14.5471     2.6486    17.8898 </r>
       <r>   -14.4456     0.8835    17.9795 </r>
       <r>   -14.3441     0.1926    17.9990 </r>
       <r>   -14.2426     0.1420    18.0134 </r>
       <r>   -14.1411     0.6574    18.0802 </r>
       <r>   -14.0397     2.1860    18.3020 </r>
       <r>   -13.9382     4.4450    18.7531 </r>
       <r>   -13.8367     5.5184    19.3131 </r>
       <r>   -13.7352     4.1895    19.7383 </r>
       <r>   -13.6337     2.0052    19.9418 </r>
       <r>   -13.5323     0.9822    20.0415 </r>
       <r>   -13.4308     1.7540    20.2195 </r>
       <r>   -13.3293     3.8651    20.6117 </r>
       <r>   -13.2278     5.4656    21.1664 </r>
       <r>   -13.1263     4.7304    21.6464 </r>
       <r>   -13.0248     2.5027    21.9004 </r>
       <r>   -12.9234     0.8420    21.9859 </r>
       <r>   -12.8219     0.4211    22.0286 </r>
       <r>   -12.7204     1.1827    22.1486 </r>
       <r>   -12.6189     3.1435    22.4676 </r>
       <r>   -12.5174     5.1772    22.9930 </r>
       <r>   -12.4159     5.2084    23.5216 </r>
       <r>   -12.3145     3.1994    23.8463 </r>
       <r>   -12.2130     1.1994    23.9680 </r>
       <r>   -12.1115     0.2745    23.9958 </r>
       <r>   -12.0100     0.0447    24.0004 </r>
       <r>   -11.9085     0.0737    24.0078 </r>
       <r>   -11.8070     0.4660    24.0551 </r>
       <r>   -11.7056     1.9336    24.2514 </r>
       <r>   -11.6041     5.1262    24.7716 </r>
       <r>   -11.5026     8.8443    25.6691 </r>
       <r>   -11.4011    10.0849    26.6926 </r>
       <r>   -11.2996     7.6980    27.4738 </r>
       <r>   -11.1982     4.2926    27.9094 </r>
       <r>   -11.0967     3.1295    28.2270 </r>
       <r>   -10.9952     4.8322    28.7174 </r>
       <r>   -10.8937     7.4320    29.4716 </r>
       <r>   -10.7922     8.7509    30.3596 </r>
       <r>   -10.6907     8.1844    31.1902 </r>
       <r>   -10.5893     6.6770    31.8678 </r>
       <r>   -10.4878     6.0648    32.4833 </r>
       <r>   -10.3863     6.7380    33.1671 </r>
       <r>   -10.2848     7.7292    33.9515 </r>
       <r>   -10.1833     9.8165    34.9477 </r>
       <r>   -10.0818    13.2968    36.2971 </r>
       <r>    -9.9804    14.8922    37.8084 </r>
       <r>    -9.8789    11.9700    39.0231 </r>
       <r>    -9.7774     6.5948    39.6924 </r>
       <r>    -9.6759     2.5791    39.9541 </r>
       <r>    -9.5744     1.4685    40.1031 </r>
       <r>    -9.4729     2.8494    40.3923 </r>
       <r>    -9.3715     5.4467    40.9450 </r>
       <r>    -9.2700     7.5323    41.7094 </r>
       <r>    -9.1685     8.7080    42.5931 </r>
       <r>    -9.0670     9.7091    43.5785 </r>
       <r>    -8.9655    10.4265    44.6366 </r>
       <r>    -8.8641    10.4179    45.6938 </r>
       <r>    -8.7626     9.6458    46.6727 </r>
       <r>    -8.6611     8.2575    47.5107 </r>
       <r>    -8.5596     7.0669    48.2278 </r>
       <r>    -8.4581     6.6454    48.9022 </r>
       <r>    -8.3566     5.6857    49.4792 </r>
       <r>    -8.2552     3.4434    49.8287 </r>
       <r>    -8.1537     1.3248    49.9631 </r>
       <r>    -8.0522     0.3139    49.9950 </r>
       <r>    -7.9507     0.0454    49.9996 </r>
       <r>    -7.8492     0.0040    50.0000 </r>
       <r>    -7.7477     0.0002    50.0000 </r>
       <r>    -7.6463     0.0000    50.0000 </r>
       <r>    -7.5448     0.0000    50.0000 </r>
       <r>    -7.4433     0.0000    50.0000 </r>
       <r>    -7.3418     0.0010    50.0001 </r>
       <r>    -7.2403     0.0141    50.0015 </r>
       <r>    -7.1388     0.1252    50.0142 </r>
       <r>    -7.0374     0.6775    50.0830 </r>
       <r>    -6.9359     2.2333    50.3096 </r>
       <r>    -6.8344     4.4921    50.7655 </r>
       <r>    -6.7329     5.5285    51.3265 </r>
       <r>    -6.6314     4.2647    51.7593 </r>
       <r>    -6.5300     2.5938    52.0226 </r>
       <r>    -6.4285     2.8146    52.3082 </r>
       <r>    -6.3270     4.6321    52.7783 </r>
       <r>    -6.2255     5.5273    53.3392 </r>
       <r>    -6.1240     4.1819    53.7636 </r>
       <r>    -6.0225     2.4327    54.0105 </r>
       <r>    -5.9211     2.5500    54.2693 </r>
       <r>    -5.8196     4.4323    54.7191 </r>
       <r>    -5.7181     5.8902    55.3168 </r>
       <r>    -5.6166     5.7889    55.9043 </r>
       <r>    -5.5151     5.6548    56.4781 </r>
       <r>    -5.4136     5.9869    57.0857 </r>
       <r>    -5.3122     5.0502    57.5982 </r>
       <r>    -5.2107     2.7841    57.8808 </r>
       <r>    -5.1092     0.9498    57.9771 </r>
       <r>    -5.0077     0.1980    57.9972 </r>
       <r>    -4.9062     0.0251    57.9998 </r>
       <r>    -4.8047     0.0019    58.0000 </r>
       <r>    -4.7033     0.0001    58.0000 </r>
       <r>    -4.6018     0.0000    58.0000 </r>
       <r>    -4.5003     0.0000    58.0000 </r>
       <r>    -4.3988     0.0000    58.0000 </r>
       <r>    -4.2973     0.0000    58.0000 </r>
       <r>    -4.1959     0.0000    58.0000 </r>
       <r>    -4.0944     0.0000    58.0000 </r>
       <r>    -3.9929     0.0000    58.0000 </r>
       <r>    -3.8914     0.0000    58.0000 </r>
       <r>    -3.7899     0.0000    58.0000 </r>
       <r>    -3.6884     0.0000    58.0000 </r>
       <r>    -3.5870     0.0000    58.0000 </r>
       <r>    -3.4855     0.0000    58.0000 </r>
       <r>    -3.3840     0.0000    58.0000 </r>
       <r>    -3.2825     0.0000    58.0000 </r>
       <r>    -3.1810     0.0000    58.0000 </r>
       <r>    -3.0795     0.0000    58.0000 </r>
       <r>    -2.9781     0.0000    58.0000 </r>
       <r>    -2.8766     0.0000    58.0000 </r>
       <r>    -2.7751     0.0000    58.0000 </r>
       <r>    -2.6736     0.0000    58.0000 </r>
       <r>    -2.5721     0.0000    58.0000 </r>
       <r>    -2.4706     0.0000    58.0000 </r>
       <r>    -2.3692     0.0000    58.0000 </r>
       <r>    -2.2677     0.0000    58.0000 </r>
       <r>    -2.1662     0.0000    58.0000 </r>
       <r>    -2.0647     0.0000    58.0000 </r>
       <r>    -1.9632     0.0000    58.0000 </r>
       <r>    -1.8618     0.0000    58.0000 </r>
       <r>    -1.7603     0.0002    58.0000 </r>
       <r>    -1.6588     0.0034    58.0004 </r>
       <r>    -1.5573     0.0406    58.0045 </r>
       <r>    -1.4558     0.2997    58.0349 </r>
       <r>    -1.3543     1.3823    58.1752 </r>
       <r>    -1.2529     4.0599    58.5872 </r>
       <r>    -1.1514     7.7762    59.3763 </r>
       <r>    -1.0499     9.9366    60.3847 </r>
       <r>    -0.9484     8.5712    61.2546 </r>
       <r>    -0.8469     5.0084    61.7628 </r>
       <r>    -0.7454     2.2792    61.9941 </r>
       <r>    -0.6440     2.1129    62.2086 </r>
       <r>    -0.5425     4.4647    62.6616 </r>
       <r>    -0.4410     8.1320    63.4869 </r>
       <r>    -0.3395    11.7345    64.6777 </r>
       <r>    -0.2380    14.7448    66.1741 </r>
       <r>    -0.1365    17.7375    67.9741 </r>
       <r>    -0.0351    22.9539    70.3036 </r>
       <r>     0.0664    30.7850    73.4277 </r>
       <r>     0.1679    34.6946    76.9486 </r>
       <r>     0.2694    28.0479    79.7950 </r>
       <r>     0.3709    15.1250    81.3299 </r>
       <r>     0.4723     5.2649    81.8642 </r>
       <r>     0.5738     1.1625    81.9822 </r>
       <r>     0.6753     0.1610    81.9985 </r>
       <r>     0.7768     0.0139    81.9999 </r>
       <r>     0.8783     0.0007    82.0000 </r>
       <r>     0.9798     0.0000    82.0000 </r>
       <r>     1.0812     0.0000    82.0000 </r>
       <r>     1.1827     0.0000    82.0000 </r>
       <r>     1.2842     0.0000    82.0000 </r>
       <r>     1.3857     0.0000    82.0000 </r>
       <r>     1.4872     0.0000    82.0000 </r>
       <r>     1.5887     0.0000    82.0000 </r>
       <r>     1.6901     0.0000    82.0000 </r>
       <r>     1.7916     0.0000    82.0000 </r>
       <r>     1.8931     0.0000    82.0000 </r>
       <r>     1.9946     0.0000    82.0000 </r>
       <r>     2.0961     0.0000    82.0000 </r>
       <r>     2.1976     0.0000    82.0000 </r>
      </set>
     </set>
    </array>
   </total>
  </dos>
 </calculation>
 <structure name="finalpos" >
  <crystal>
   <varray name="basis" >
    <v>      30.00000000       0.00000000       0.00000000 </v>
    <v>       0.00000000      30.00000000       0.00000000 </v>
    <v>       0.00000000       0.00000000      30.00000000 </v>
   </varray>
   <i name="volume">  27000.00000000 </i>
   <varray name="rec_basis" >
    <v>       0.03333333       0.00000000       0.00000000 </v>
    <v>       0.00000000       0.03333333       0.00000000 </v>
    <v>       0.00000000       0.00000000       0.03333333 </v>
   </varray>
  </crystal>
  <varray name="positions" >
   <v>       0.37627824       0.53493012       0.49584378 </v>
   <v>       0.37922211       0.48758401       0.46026723 </v>
   <v>       0.37968494       0.48005979       0.51915344 </v>
   <v>       0.44555330       0.44180881       0.50867626 </v>
   <v>       0.51679941       0.42676860       0.51408107 </v>
   <v>       0.56663692       0.45188013       0.45188739 </v>
   <v>       0.52458668       0.48971193       0.43347206 </v>
   <v>       0.51476878       0.43089271       0.43197522 </v>
   <v>       0.51293508       0.54522133       0.50572897 </v>
   <v>       0.59816795       0.54561168       0.55915773 </v>
   <v>       0.59140835       0.57942864       0.51060852 </v>
   <v>       0.55957953       0.59132465       0.55955997 </v>
   <v>       0.39113154       0.50179147       0.49193817 </v>
   <v>       0.44150023       0.50644933       0.49044173 </v>
   <v>       0.51283635       0.45986189       0.49892396 </v>
   <v>       0.53051679       0.45805701       0.45087444 </v>
   <v>       0.54516064       0.48915706       0.52661574 </v>
   <v>       0.57392384       0.56440760       0.53925963 </v>
   <v>       0.46454718       0.46892204       0.50152132 </v>
   <v>       0.53974662       0.53381224       0.52405447 </v>
   <v>       0.45949954       0.54219526       0</modeling>
v>
   <v>       0.57636907       0.47032644       0.54612560 </v>
</modeling>
 </structure>
</modeling>
 </structure>
</modeling>
500853       0</modeling>
v>
   <v>       0.57946992       0.47400724       0.54270270 </v>
  </varray>
 </structure>
</modeling>
 </structure>
</modeling>
