 running on   15 total cores
 each image running on    1 cores
 distrk:  each k-point on    1 cores,    1 groups
 distr:  one band on    1 cores,    1 groups
 vasp.5.4.1 24Jun15 (build Jan 13 2020 12:58:22) complex                        
  
 POSCAR found type information on POSCAR  H  C  N  O 
 01/POSCAR found :  4 types and      22 ions
 scaLAPACK will be used
 LDA part: xc-table for Pade appr. of Perdew
 POSCAR found type information on POSCAR  H  C  N  O 
 00/POSCAR found :  4 types and      22 ions
 POSCAR found type information on POSCAR  H  C  N  O 
 16/POSCAR found :  4 types and      22 ions
 Jacobian:    50.2178792621697     
 POSCAR, INCAR and KPOINTS ok, starting setup
 WARNING: small aliasing (wrap around) errors must be expected
 FFT: planning ...
 WAVECAR not read
 entering main loop
       N       E                     dE             d eps       ncg     rms          rms(c)
DAV:   1     0.610448382109E+03    0.61045E+03   -0.79327E+03   392   0.485E+02
DAV:   2     0.264299788949E+03   -0.34615E+03   -0.33588E+03   586   0.930E+01
DAV:   3    -0.491813533555E+02   -0.31348E+03   -0.30562E+03   488   0.111E+02
DAV:   4    -0.137182264367E+03   -0.88001E+02   -0.87859E+02   399   0.811E+01
DAV:   5    -0.141861616240E+03   -0.46794E+01   -0.46610E+01   432   0.219E+01    0.195E+01
DAV:   6    -0.131764499555E+03    0.10097E+02   -0.24010E+01   416   0.202E+01    0.998E+00
DAV:   7    -0.130018186511E+03    0.17463E+01   -0.44673E+00   424   0.827E+00    0.516E+00
DAV:   8    -0.129526308674E+03    0.49188E+00   -0.87879E-01   432   0.404E+00    0.155E+00
DAV:   9    -0.129458363297E+03    0.67945E-01   -0.10321E-01   464   0.154E+00    0.571E-01
DAV:  10    -0.129447640025E+03    0.10723E-01   -0.25925E-02   416   0.830E-01    0.257E-01
DAV:  11    -0.129442598417E+03    0.50416E-02   -0.79065E-03   456   0.432E-01    0.160E-01
DAV:  12    -0.129443738428E+03   -0.11400E-02   -0.61477E-03   366   0.352E-01    0.975E-02
DAV:  13    -0.129449732097E+03   -0.59937E-02   -0.42897E-03   432   0.293E-01    0.581E-02
DAV:  14    -0.129455801884E+03   -0.60698E-02   -0.15231E-03   392   0.176E-01    0.377E-02
DAV:  15    -0.129463646153E+03   -0.78443E-02   -0.87282E-04   398   0.992E-02    0.232E-02
DAV:  16    -0.129469755244E+03   -0.61091E-02   -0.51316E-04   332   0.743E-02    0.133E-02
DAV:  17    -0.129472197687E+03   -0.24424E-02   -0.11858E-04   336   0.364E-02    0.867E-03
DAV:  18    -0.129473984370E+03   -0.17867E-02   -0.11927E-04   283   0.306E-02    0.517E-03
DAV:  19    -0.129474881254E+03   -0.89688E-03   -0.49353E-05   328   0.199E-02    0.328E-03
DAV:  20    -0.129475326491E+03   -0.44524E-03   -0.18322E-05   274   0.139E-02    0.201E-03
DAV:  21    -0.129475515028E+03   -0.18854E-03   -0.72289E-06   336   0.771E-03    0.117E-03
DAV:  22    -0.129475655618E+03   -0.14059E-03   -0.37611E-06   258   0.639E-03    0.943E-04
DAV:  23    -0.129475688847E+03   -0.33230E-04   -0.93597E-07   368   0.327E-03
   1 F= -.12947569E+03 E0= -.12947569E+03  d E =-.129476E+03
damped:  g(F)=  0.000E+00 g(S)=  0.000E+00 dE (1.order)= 0.000E+00
 bond charge predicted
       N       E                     dE             d eps       ncg     rms          rms(c)
DAV:   1    -0.129478329859E+03   -0.26742E-02   -0.13808E-01   332   0.197E+00    0.110E-01
DAV:   2    -0.129478709321E+03   -0.37946E-03   -0.53030E-03   448   0.330E-01    0.629E-02
DAV:   3    -0.129478662769E+03    0.46552E-04   -0.10821E-04   344   0.600E-02    0.360E-02
DAV:   4    -0.129478650727E+03    0.12042E-04   -0.10312E-04   311   0.548E-02    0.734E-03
DAV:   5    -0.129478654822E+03   -0.40950E-05   -0.20738E-05   336   0.235E-02    0.434E-03
DAV:   6    -0.129478658669E+03   -0.38474E-05   -0.29514E-06   272   0.898E-03
   2 F= -.12947866E+03 E0= -.12947866E+03  d E =-.296982E-02
damped:  g(F)=  0.000E+00 g(S)=  0.000E+00 dE (1.order)= 0.000E+00
 bond charge predicted
       N       E                     dE             d eps       ncg     rms          rms(c)
DAV:   1    -0.129481917897E+03   -0.32631E-02   -0.19486E-01   366   0.230E+00    0.998E-02
DAV:   2    -0.129482235704E+03   -0.31781E-03   -0.47111E-03   414   0.309E-01    0.595E-02
DAV:   3    -0.129482224423E+03    0.11281E-04   -0.11189E-04   334   0.563E-02    0.346E-02
DAV:   4    -0.129482243393E+03   -0.18970E-04   -0.84447E-05   285   0.501E-02    0.702E-03
DAV:   5    -0.129482248580E+03   -0.51867E-05   -0.16554E-05   272   0.218E-02    0.420E-03
DAV:   6    -0.129482253072E+03   -0.44915E-05   -0.31409E-06   270   0.907E-03
   3 F= -.12948225E+03 E0= -.12948225E+03  d E =-.359440E-02
damped:  g(F)=  0.000E+00 g(S)=  0.000E+00 dE (1.order)= 0.000E+00
 bond charge predicted
       N       E                     dE             d eps       ncg     rms          rms(c)
DAV:   1    -0.129487682225E+03   -0.54336E-02   -0.33756E-01   332   0.305E+00    0.129E-01
DAV:   2    -0.129488241063E+03   -0.55884E-03   -0.79807E-03   396   0.403E-01    0.859E-02
DAV:   3    -0.129488215111E+03    0.25952E-04   -0.21180E-04   368   0.825E-02    0.514E-02
DAV:   4    -0.129488252624E+03   -0.37513E-04   -0.17920E-04   264   0.722E-02    0.109E-02
DAV:   5    -0.129488256668E+03   -0.40446E-05   -0.37767E-05   312   0.323E-02    0.625E-03
DAV:   6    -0.129488258128E+03   -0.14601E-05   -0.46378E-06   272   0.118E-02
   4 F= -.12948826E+03 E0= -.12948826E+03  d E =-.600506E-02
damped:  g(F)=  0.000E+00 g(S)=  0.000E+00 dE (1.order)= 0.000E+00
 bond charge predicted
       N       E                     dE             d eps       ncg     rms          rms(c)
DAV:   1    -0.129492575049E+03   -0.43184E-02   -0.50602E-01   330   0.371E+00    0.157E-01
DAV:   2    -0.129493338180E+03   -0.76313E-03   -0.11223E-02   364   0.481E-01    0.102E-01
DAV:   3    -0.129493321176E+03    0.17004E-04   -0.35361E-04   432   0.100E-01    0.607E-02
DAV:   4    -0.129493374735E+03   -0.53560E-04   -0.22217E-04   336   0.814E-02    0.138E-02
DAV:   5    -0.129493377670E+03   -0.29345E-05   -0.50075E-05   304   0.376E-02    0.750E-03
DAV:   6    -0.129493380120E+03   -0.24505E-05   -0.62184E-06   256   0.135E-02
   5 F= -.12949338E+03 E0= -.12949338E+03  d E =-.512199E-02
damped:  g(F)=  0.000E+00 g(S)=  0.000E+00 dE (1.order)= 0.000E+00
 bond charge predicted
       N       E                     dE             d eps       ncg     rms          rms(c)
DAV:   1    -0.129498396038E+03   -0.50184E-02   -0.67090E-01   328   0.421E+00    0.183E-01
DAV:   2    -0.129499437722E+03   -0.10417E-02   -0.14940E-02   364   0.551E-01    0.109E-01
DAV:   3    -0.129499451759E+03   -0.14037E-04   -0.44970E-04   430   0.107E-01    0.629E-02
DAV:   4    -0.129499525632E+03   -0.73872E-04   -0.20925E-04   298   0.827E-02    0.129E-02
DAV:   5    -0.129499532122E+03   -0.64908E-05   -0.53941E-05   360   0.381E-02    0.818E-03
DAV:   6    -0.129499534152E+03   -0.20299E-05   -0.62054E-06   236   0.138E-02
   6 F= -.12949953E+03 E0= -.12949953E+03  d E =-.615403E-02
damped:  g(F)=  0.000E+00 g(S)=  0.000E+00 dE (1.order)= 0.000E+00
 bond charge predicted
       N       E                     dE             d eps       ncg     rms          rms(c)
DAV:   1    -0.129503166651E+03   -0.36345E-02   -0.79517E-01   330   0.459E+00    0.203E-01
DAV:   2    -0.129504438411E+03   -0.12718E-02   -0.18049E-02   364   0.609E-01    0.121E-01
DAV:   3    -0.129504431000E+03    0.74111E-05   -0.54431E-04   429   0.119E-01    0.693E-02
DAV:   4    -0.129504503439E+03   -0.72440E-04   -0.28671E-04   341   0.953E-02    0.149E-02
DAV:   5    -0.129504510144E+03   -0.67048E-05   -0.65527E-05   320   0.425E-02    0.936E-03
DAV:   6    -0.129504514140E+03   -0.39962E-05   -0.86943E-06   270   0.159E-02
   7 F= -.12950451E+03 E0= -.12950451E+03  d E =-.497999E-02
damped:  g(F)=  0.000E+00 g(S)=  0.000E+00 dE (1.order)= 0.000E+00
 bond charge predicted
       N       E                     dE             d eps       ncg     rms          rms(c)
DAV:   1    -0.129509420111E+03   -0.49100E-02   -0.90069E-01   328   0.491E+00    0.218E-01
DAV:   2    -0.129510668185E+03   -0.12481E-02   -0.18576E-02   364   0.622E-01    0.141E-01
DAV:   3    -0.129510638699E+03    0.29486E-04   -0.65302E-04   463   0.137E-01    0.811E-02
DAV:   4    -0.129510743924E+03   -0.10522E-03   -0.39542E-04   361   0.107E-01    0.204E-02
DAV:   5    -0.129510743524E+03    0.40027E-06   -0.89685E-05   304   0.497E-02    0.986E-03
DAV:   6    -0.129510746267E+03   -0.27431E-05   -0.11661E-05   272   0.175E-02
   8 F= -.12951075E+03 E0= -.12951075E+03  d E =-.623213E-02
damped:  g(F)=  0.000E+00 g(S)=  0.000E+00 dE (1.order)= 0.000E+00
 bond charge predicted
       N       E                     dE             d eps       ncg     rms          rms(c)
DAV:   1    -0.129514691973E+03   -0.39484E-02   -0.11708E+00   330   0.559E+00    0.252E-01
DAV:   2    -0.129516203525E+03   -0.15116E-02   -0.22873E-02   372   0.695E-01    0.158E-01
DAV:   3    -0.129516178756E+03    0.24769E-04   -0.87506E-04   428   0.157E-01    0.882E-02
DAV:   4    -0.129516315433E+03   -0.13668E-03   -0.47248E-04   354   0.116E-01    0.230E-02
DAV:   5    -0.129516312469E+03    0.29644E-05   -0.10952E-04   336   0.548E-02    0.106E-02
DAV:   6    -0.129516315005E+03   -0.25361E-05   -0.13978E-05   272   0.191E-02
   9 F= -.12951632E+03 E0= -.12951632E+03  d E =-.556874E-02
damped:  g(F)=  0.000E+00 g(S)=  0.000E+00 dE (1.order)= 0.000E+00
 bond charge predicted
       N       E                     dE             d eps       ncg     rms          rms(c)
DAV:   1    -0.129517360564E+03   -0.10481E-02   -0.18659E+00   328   0.713E+00    0.330E-01
DAV:   2    -0.129520597519E+03   -0.32370E-02   -0.45731E-02   420   0.970E-01    0.198E-01
DAV:   3    -0.129520415546E+03    0.18197E-03   -0.12161E-03   429   0.187E-01    0.114E-01
DAV:   4    -0.129520579207E+03   -0.16366E-03   -0.76497E-04   416   0.149E-01    0.237E-02
DAV:   5    -0.129520590683E+03   -0.11476E-04   -0.12644E-04   368   0.599E-02    0.133E-02
DAV:   6    -0.129520597550E+03   -0.68672E-05   -0.14541E-05   304   0.204E-02
  10 F= -.12952060E+03 E0= -.12952060E+03  d E =-.428255E-02
damped:  g(F)=  0.000E+00 g(S)=  0.000E+00 dE (1.order)= 0.000E+00
 bond charge predicted
       N       E                     dE             d eps       ncg     rms          rms(c)
DAV:   1    -0.129520751933E+03   -0.16125E-03   -0.17117E+00   328   0.699E+00    0.335E-01
DAV:   2    -0.129523039073E+03   -0.22871E-02   -0.36955E-02   396   0.908E-01    0.236E-01
DAV:   3    -0.129522720044E+03    0.31903E-03   -0.18259E-03   464   0.234E-01    0.143E-01
DAV:   4    -0.129522883370E+03   -0.16333E-03   -0.10076E-03   370   0.167E-01    0.364E-02
DAV:   5    -0.129522878887E+03    0.44829E-05   -0.17494E-04   336   0.715E-02    0.135E-02
DAV:   6    -0.129522883595E+03   -0.47079E-05   -0.31443E-05   272   0.296E-02
  11 F= -.12952288E+03 E0= -.12952288E+03  d E =-.228604E-02
damped:  g(F)=  0.000E+00 g(S)=  0.000E+00 dE (1.order)= 0.000E+00
 bond charge predicted
       N       E                     dE             d eps       ncg     rms          rms(c)
DAV:   1    -0.129524240595E+03   -0.13617E-02   -0.60780E-02   382   0.131E+00    0.833E-02
DAV:   2    -0.129524441293E+03   -0.20070E-03   -0.26950E-03   396   0.235E-01    0.458E-02
DAV:   3    -0.129524418384E+03    0.22910E-04   -0.59717E-05   342   0.445E-02    0.254E-02
DAV:   4    -0.129524415808E+03    0.25758E-05   -0.54833E-05   297   0.393E-02    0.518E-03
DAV:   5    -0.129524419926E+03   -0.41186E-05   -0.11022E-05   368   0.168E-02    0.299E-03
DAV:   6    -0.129524423191E+03   -0.32644E-05   -0.16267E-06   232   0.656E-03
  12 F= -.12952442E+03 E0= -.12952442E+03  d E =-.153960E-02
damped:  g(F)=  0.000E+00 g(S)=  0.000E+00 dE (1.order)= 0.000E+00
 bond charge predicted
       N       E                     dE             d eps       ncg     rms          rms(c)
DAV:   1    -0.129523810365E+03    0.60956E-03   -0.99858E-02   391   0.167E+00    0.104E-01
DAV:   2    -0.129524117343E+03   -0.30698E-03   -0.43542E-03   410   0.297E-01    0.564E-02
DAV:   3    -0.129524065614E+03    0.51729E-04   -0.87625E-05   360   0.538E-02    0.315E-02
DAV:   4    -0.129524043429E+03    0.22185E-04   -0.89956E-05   272   0.504E-02    0.636E-03
DAV:   5    -0.129524046637E+03   -0.32074E-05   -0.17221E-05   336   0.213E-02    0.384E-03
DAV:   6    -0.129524050349E+03   -0.37121E-05   -0.24581E-06   284   0.820E-03
  13 F= -.12952405E+03 E0= -.12952405E+03  d E =0.372842E-03
damped:  g(F)=  0.000E+00 g(S)=  0.000E+00 dE (1.order)= 0.000E+00
 bond charge predicted
       N       E                     dE             d eps       ncg     rms          rms(c)
DAV:   1    -0.129524284970E+03   -0.23833E-03   -0.12872E-03   400   0.191E-01    0.125E-02
DAV:   2    -0.129524293316E+03   -0.83459E-05   -0.53541E-05   316   0.350E-02    0.704E-03
DAV:   3    -0.129524297224E+03   -0.39082E-05   -0.44286E-06   262   0.109E-02    0.359E-03
DAV:   4    -0.129524301873E+03   -0.46495E-05   -0.13150E-06   315   0.550E-03    0.115E-03
DAV:   5    -0.129524305004E+03   -0.31308E-05   -0.42325E-07   254   0.293E-03    0.518E-04
DAV:   6    -0.129524306038E+03   -0.10337E-05   -0.10847E-07   256   0.140E-03
  14 F= -.12952431E+03 E0= -.12952431E+03  d E =-.255689E-03
damped:  g(F)=  0.000E+00 g(S)=  0.000E+00 dE (1.order)= 0.000E+00
 bond charge predicted
       N       E                     dE             d eps       ncg     rms          rms(c)
DAV:   1    -0.129524615916E+03   -0.31091E-03   -0.43504E-03   340   0.353E-01    0.223E-02
DAV:   2    -0.129524631684E+03   -0.15769E-04   -0.20031E-04   364   0.655E-02    0.134E-02
DAV:   3    -0.129524630662E+03    0.10225E-05   -0.66406E-06   272   0.150E-02    0.767E-03
DAV:   4    -0.129524631214E+03   -0.55210E-06   -0.52405E-06   264   0.118E-02    0.187E-03
DAV:   5    -0.129524631728E+03   -0.51382E-06   -0.11506E-06   264   0.580E-03    0.885E-04
DAV:   6    -0.129524632074E+03   -0.34650E-06   -0.22083E-07   252   0.238E-03
  15 F= -.12952463E+03 E0= -.12952463E+03  d E =-.326036E-03
damped:  g(F)=  0.000E+00 g(S)=  0.000E+00 dE (1.order)= 0.000E+00
 bond charge predicted
       N       E                     dE             d eps       ncg     rms          rms(c)
DAV:   1    -0.129524830506E+03   -0.19878E-03   -0.69790E-03   358   0.448E-01    0.278E-02
DAV:   2    -0.129524852521E+03   -0.22015E-04   -0.32349E-04   347   0.833E-02    0.172E-02
DAV:   3    -0.129524848515E+03    0.40057E-05   -0.10971E-05   272   0.192E-02    0.995E-03
DAV:   4    -0.129524845933E+03    0.25822E-05   -0.86084E-06   264   0.152E-02    0.248E-03
DAV:   5    -0.129524845614E+03    0.31841E-06   -0.19600E-06   304   0.748E-03    0.121E-03
DAV:   6    -0.129524845704E+03   -0.89321E-07   -0.30749E-07   202   0.302E-03
  16 F= -.12952485E+03 E0= -.12952485E+03  d E =-.213630E-03
damped:  g(F)=  0.000E+00 g(S)=  0.000E+00 dE (1.order)= 0.000E+00
 bond charge predicted
       N       E                     dE             d eps       ncg     rms          rms(c)
DAV:   1    -0.129524856894E+03   -0.11279E-04   -0.70379E-03   391   0.451E-01    0.266E-02
DAV:   2    -0.129524877642E+03   -0.20748E-04   -0.31245E-04   334   0.823E-02    0.172E-02
DAV:   3    -0.129524873941E+03    0.37005E-05   -0.12006E-05   272   0.197E-02    0.103E-02
DAV:   4    -0.129524871473E+03    0.24679E-05   -0.96927E-06   272   0.161E-02    0.269E-03
DAV:   5    -0.129524871421E+03    0.51835E-07   -0.20123E-06   272   0.778E-03    0.121E-03
DAV:   6    -0.129524871764E+03   -0.34247E-06   -0.35989E-07   200   0.319E-03
  17 F= -.12952487E+03 E0= -.12952487E+03  d E =-.260602E-04
damped:  g(F)=  0.000E+00 g(S)=  0.000E+00 dE (1.order)= 0.000E+00
 bond charge predicted
       N       E                     dE             d eps       ncg     rms          rms(c)
DAV:   1    -0.129524795036E+03    0.76385E-04   -0.50401E-03   389   0.381E-01    0.200E-02
DAV:   2    -0.129524806082E+03   -0.11046E-04   -0.17206E-04   259   0.637E-02    0.130E-02
DAV:   3    -0.129524805218E+03    0.86442E-06   -0.14510E-05   164   0.185E-02    0.787E-03
DAV:   4    -0.129524804834E+03    0.38346E-06   -0.71161E-06   208   0.134E-02    0.206E-03
DAV:   5    -0.129524805182E+03   -0.34789E-06   -0.16882E-06   172   0.659E-03    0.997E-04
DAV:   6    -0.129524805697E+03   -0.51457E-06   -0.46668E-07   203   0.306E-03
  18 F= -.12952481E+03 E0= -.12952481E+03  d E =0.660671E-04
damped:  g(F)=  0.000E+00 g(S)=  0.000E+00 dE (1.order)= 0.000E+00
 bond charge predicted
       N       E                     dE             d eps       ncg     rms          rms(c)
DAV:   1    -0.129524812566E+03   -0.73843E-05   -0.38702E-03   394   0.323E-01    0.143E-02
DAV:   2    -0.129524817277E+03   -0.47109E-05   -0.74636E-05   232   0.425E-02    0.934E-03
DAV:   3    -0.129524817787E+03   -0.50915E-06   -0.66556E-06   164   0.127E-02    0.515E-03
DAV:   4    -0.129524818788E+03   -0.10015E-05   -0.27822E-06   203   0.816E-03    0.126E-03
DAV:   5    -0.129524819266E+03   -0.47820E-06   -0.71564E-07   201   0.420E-03    0.638E-04
DAV:   6    -0.129524819673E+03   -0.40669E-06   -0.19891E-07   167   0.192E-03
  19 F= -.12952482E+03 E0= -.12952482E+03  d E =-.139761E-04
damped:  g(F)=  0.000E+00 g(S)=  0.000E+00 dE (1.order)= 0.000E+00
 bond charge predicted
       N       E                     dE             d eps       ncg     rms          rms(c)
DAV:   1    -0.129525007381E+03   -0.18811E-03   -0.67258E-03   391   0.423E-01    0.185E-02
DAV:   2    -0.129525015084E+03   -0.77027E-05   -0.12102E-04   242   0.531E-02    0.115E-02
DAV:   3    -0.129525016122E+03   -0.10385E-05   -0.97462E-06   264   0.155E-02    0.606E-03
DAV:   4    -0.129525017800E+03   -0.16774E-05   -0.44485E-06   274   0.963E-03    0.145E-03
DAV:   5    -0.129525018241E+03   -0.44107E-06   -0.64698E-07   272   0.442E-03    0.695E-04
DAV:   6    -0.129525018473E+03   -0.23253E-06   -0.81009E-08   202   0.175E-03
  20 F= -.12952502E+03 E0= -.12952502E+03  d E =-.198800E-03
damped:  g(F)=  0.000E+00 g(S)=  0.000E+00 dE (1.order)= 0.000E+00
 bond charge predicted
       N       E                     dE             d eps       ncg     rms          rms(c)
DAV:   1    -0.129525306773E+03   -0.28853E-03   -0.14885E-02   367   0.639E-01    0.306E-02
DAV:   2    -0.129525333014E+03   -0.26241E-04   -0.39387E-04   332   0.914E-02    0.192E-02
DAV:   3    -0.129525330545E+03    0.24684E-05   -0.13608E-05   272   0.203E-02    0.110E-02
DAV:   4    -0.129525330433E+03    0.11230E-06   -0.88541E-06   304   0.160E-02    0.205E-03
DAV:   5    -0.129525330576E+03   -0.14288E-06   -0.16165E-06   272   0.669E-03    0.128E-03
DAV:   6    -0.129525330706E+03   -0.12978E-06   -0.22844E-07   240   0.271E-03
  21 F= -.12952533E+03 E0= -.12952533E+03  d E =-.312232E-03
damped:  g(F)=  0.000E+00 g(S)=  0.000E+00 dE (1.order)= 0.000E+00
 bond charge predicted
       N       E                     dE             d eps       ncg     rms          rms(c)
DAV:   1    -0.129525475874E+03   -0.14530E-03   -0.25932E-02   392   0.846E-01    0.415E-02
DAV:   2    -0.129525525504E+03   -0.49630E-04   -0.74153E-04   364   0.125E-01    0.264E-02
DAV:   3    -0.129525518741E+03    0.67639E-05   -0.17288E-05   264   0.244E-02    0.154E-02
DAV:   4    -0.129525518173E+03    0.56716E-06   -0.21503E-05   280   0.241E-02    0.332E-03
DAV:   5    -0.129525518710E+03   -0.53614E-06   -0.41729E-06   272   0.111E-02    0.186E-03
DAV:   6    -0.129525519258E+03   -0.54873E-06   -0.53994E-07   204   0.383E-03
  22 F= -.12952552E+03 E0= -.12952552E+03  d E =-.188553E-03
damped:  g(F)=  0.000E+00 g(S)=  0.000E+00 dE (1.order)= 0.000E+00
 bond charge predicted
       N       E                     dE             d eps       ncg     rms          rms(c)
DAV:   1    -0.129525514634E+03    0.40759E-05   -0.30404E-02   333   0.907E-01    0.414E-02
DAV:   2    -0.129525560253E+03   -0.45620E-04   -0.69144E-04   361   0.122E-01    0.269E-02
DAV:   3    -0.129525555788E+03    0.44652E-05   -0.15651E-05   245   0.237E-02    0.153E-02
DAV:   4    -0.129525558481E+03   -0.26932E-05   -0.18416E-05   234   0.229E-02    0.285E-03
DAV:   5    -0.129525559451E+03   -0.96931E-06   -0.39736E-06   254   0.106E-02    0.177E-03
DAV:   6    -0.129525560453E+03   -0.10026E-05   -0.63693E-07   216   0.391E-03
  23 F= -.12952556E+03 E0= -.12952556E+03  d E =-.411949E-04
damped:  g(F)=  0.000E+00 g(S)=  0.000E+00 dE (1.order)= 0.000E+00
 bond charge predicted
       N       E                     dE             d eps       ncg     rms          rms(c)
DAV:   1    -0.129525757790E+03   -0.19834E-03   -0.32909E-02   332   0.925E-01    0.404E-02
DAV:   2    -0.129525793563E+03   -0.35773E-04   -0.55064E-04   395   0.110E-01    0.266E-02
DAV:   3    -0.129525793457E+03    0.10574E-06   -0.12928E-05   242   0.219E-02    0.135E-02
DAV:   4    -0.129525799144E+03   -0.56867E-05   -0.13936E-05   243   0.178E-02    0.275E-03
DAV:   5    -0.129525799762E+03   -0.61825E-06   -0.25503E-06   263   0.841E-03    0.150E-03
DAV:   6    -0.129525800307E+03   -0.54500E-06   -0.35914E-07   200   0.294E-03
  24 F= -.12952580E+03 E0= -.12952580E+03  d E =-.239854E-03
damped:  g(F)=  0.000E+00 g(S)=  0.000E+00 dE (1.order)= 0.000E+00
 bond charge predicted
       N       E                     dE             d eps       ncg     rms          rms(c)
DAV:   1    -0.129526123569E+03   -0.32381E-03   -0.48456E-02   333   0.114E+00    0.518E-02
DAV:   2    -0.129526198551E+03   -0.74982E-04   -0.11002E-03   396   0.155E-01    0.360E-02
DAV:   3    -0.129526191718E+03    0.68329E-05   -0.29253E-05   335   0.316E-02    0.202E-02
DAV:   4    -0.129526195388E+03   -0.36704E-05   -0.25648E-05   266   0.262E-02    0.344E-03
DAV:   5    -0.129526195791E+03   -0.40271E-06   -0.48008E-06   272   0.113E-02    0.214E-03
DAV:   6    -0.129526196025E+03   -0.23423E-06   -0.71592E-07   254   0.429E-03
  25 F= -.12952620E+03 E0= -.12952620E+03  d E =-.395718E-03
damped:  g(F)=  0.000E+00 g(S)=  0.000E+00 dE (1.order)= 0.000E+00
 bond charge predicted
       N       E                     dE             d eps       ncg     rms          rms(c)
DAV:   1    -0.129526287448E+03   -0.91657E-04   -0.59211E-02   339   0.127E+00    0.575E-02
DAV:   2    -0.129526376920E+03   -0.89472E-04   -0.13397E-03   380   0.172E-01    0.401E-02
DAV:   3    -0.129526367959E+03    0.89613E-05   -0.36240E-05   296   0.355E-02    0.229E-02
DAV:   4    -0.129526372247E+03   -0.42881E-05   -0.32250E-05   280   0.295E-02    0.420E-03
DAV:   5    -0.129526372814E+03   -0.56731E-06   -0.62857E-06   272   0.133E-02    0.234E-03
DAV:   6    -0.129526373426E+03   -0.61131E-06   -0.94268E-07   252   0.502E-03
  26 F= -.12952637E+03 E0= -.12952637E+03  d E =-.177400E-03
damped:  g(F)=  0.000E+00 g(S)=  0.000E+00 dE (1.order)= 0.000E+00
 bond charge predicted
       N       E                     dE             d eps       ncg     rms          rms(c)
DAV:   1    -0.129526428041E+03   -0.55226E-04   -0.31413E-04   292   0.946E-02    0.514E-03
DAV:   2    -0.129526430034E+03   -0.19932E-05   -0.15664E-05   270   0.207E-02    0.308E-03
DAV:   3    -0.129526430923E+03   -0.88880E-06   -0.16138E-06   202   0.667E-03    0.181E-03
DAV:   4    -0.129526432259E+03   -0.13369E-05   -0.52052E-07   300   0.342E-03    0.557E-04
DAV:   5    -0.129526432837E+03   -0.57735E-06   -0.59279E-08   270   0.158E-03    0.269E-04
DAV:   6    -0.129526433356E+03   -0.51911E-06    0.93282E-09   234   0.786E-04
  27 F= -.12952643E+03 E0= -.12952643E+03  d E =-.599302E-04
damped:  g(F)=  0.000E+00 g(S)=  0.000E+00 dE (1.order)= 0.000E+00
 bond charge predicted
       N       E                     dE             d eps       ncg     rms          rms(c)
DAV:   1    -0.129526510238E+03   -0.77402E-04   -0.10818E-03   363   0.175E-01    0.107E-02
DAV:   2    -0.129526513374E+03   -0.31359E-05   -0.42291E-05   229   0.313E-02    0.588E-03
DAV:   3    -0.129526513715E+03   -0.34126E-06   -0.53242E-06   278   0.107E-02    0.295E-03
DAV:   4    -0.129526513968E+03   -0.25303E-06   -0.59692E-07   227   0.457E-03    0.104E-03
DAV:   5    -0.129526514188E+03   -0.21929E-06   -0.14101E-07   296   0.237E-03    0.382E-04
DAV:   6    -0.129526514362E+03   -0.17476E-06    0.51568E-08   202   0.112E-03
  28 F= -.12952651E+03 E0= -.12952651E+03  d E =-.810066E-04
damped:  g(F)=  0.000E+00 g(S)=  0.000E+00 dE (1.order)= 0.000E+00
 bond charge predicted
       N       E                     dE             d eps       ncg     rms          rms(c)
DAV:   1    -0.129526574334E+03   -0.60146E-04   -0.17942E-03   400   0.225E-01    0.135E-02
DAV:   2    -0.129526578831E+03   -0.44970E-05   -0.71746E-05   252   0.401E-02    0.741E-03
DAV:   3    -0.129526578191E+03    0.63964E-06   -0.53449E-06   247   0.112E-02    0.416E-03
DAV:   4    -0.129526577576E+03    0.61545E-06   -0.27624E-06   280   0.754E-03    0.117E-03
DAV:   5    -0.129526577517E+03    0.58517E-07   -0.43650E-07   272   0.375E-03    0.645E-04
DAV:   6    -0.129526577555E+03   -0.37543E-07   -0.43942E-08   202   0.161E-03
  29 F= -.12952658E+03 E0= -.12952658E+03  d E =-.631925E-04
damped:  g(F)=  0.000E+00 g(S)=  0.000E+00 dE (1.order)= 0.000E+00
 bond charge predicted
       N       E                     dE             d eps       ncg     rms          rms(c)
DAV:   1    -0.129526604120E+03   -0.26603E-04   -0.18937E-03   381   0.231E-01    0.134E-02
DAV:   2    -0.129526608657E+03   -0.45366E-05   -0.73044E-05   268   0.404E-02    0.737E-03
DAV:   3    -0.129526608039E+03    0.61858E-06   -0.54477E-06   224   0.113E-02    0.414E-03
DAV:   4    -0.129526607529E+03    0.50961E-06   -0.22889E-06   264   0.751E-03    0.939E-04
DAV:   5    -0.129526607660E+03   -0.13155E-06   -0.55450E-07   202   0.365E-03    0.532E-04
DAV:   6    -0.129526607852E+03   -0.19166E-06   -0.14477E-07   173   0.172E-03
  30 F= -.12952661E+03 E0= -.12952661E+03  d E =-.302972E-04
damped:  g(F)=  0.000E+00 g(S)=  0.000E+00 dE (1.order)= 0.000E+00
 bond charge predicted
       N       E                     dE             d eps       ncg     rms          rms(c)
DAV:   1    -0.129526621295E+03   -0.13634E-04   -0.13000E-03   381   0.191E-01    0.101E-02
DAV:   2    -0.129526624018E+03   -0.27227E-05   -0.42995E-05   200   0.316E-02    0.576E-03
DAV:   3    -0.129526623928E+03    0.89765E-07   -0.47529E-06   164   0.109E-02    0.297E-03
DAV:   4    -0.129526623911E+03    0.16560E-07   -0.12118E-06   164   0.547E-03    0.844E-04
DAV:   5    -0.129526624120E+03   -0.20912E-06   -0.34279E-07   164   0.287E-03    0.373E-04
DAV:   6    -0.129526624352E+03   -0.23186E-06   -0.98780E-08   183   0.143E-03
  31 F= -.12952662E+03 E0= -.12952662E+03  d E =-.165001E-04
damped:  g(F)=  0.000E+00 g(S)=  0.000E+00 dE (1.order)= 0.000E+00
 bond charge predicted
       N       E                     dE             d eps       ncg     rms          rms(c)
DAV:   1    -0.129526656039E+03   -0.31918E-04   -0.79254E-04   323   0.148E-01    0.636E-03
DAV:   2    -0.129526657590E+03   -0.15511E-05   -0.21357E-05   164   0.233E-02    0.382E-03
DAV:   3    -0.129526657832E+03   -0.24211E-06   -0.23601E-06   164   0.811E-03    0.212E-03
DAV:   4    -0.129526658119E+03   -0.28674E-06   -0.58189E-07   190   0.410E-03    0.476E-04
DAV:   5    -0.129526658337E+03   -0.21798E-06   -0.14555E-07   175   0.206E-03    0.264E-04
DAV:   6    -0.129526658531E+03   -0.19448E-06   -0.27681E-08   216   0.102E-03
  32 F= -.12952666E+03 E0= -.12952666E+03  d E =-.341789E-04
damped:  g(F)=  0.000E+00 g(S)=  0.000E+00 dE (1.order)= 0.000E+00
 bond charge predicted
       N       E                     dE             d eps       ncg     rms          rms(c)
DAV:   1    -0.129526732170E+03   -0.73833E-04   -0.10555E-03   348   0.169E-01    0.721E-03
DAV:   2    -0.129526733562E+03   -0.13926E-05   -0.18619E-05   261   0.213E-02    0.449E-03
DAV:   3    -0.129526733936E+03   -0.37374E-06   -0.19319E-06   202   0.730E-03    0.227E-03
DAV:   4    -0.129526734324E+03   -0.38790E-06   -0.50948E-07   254   0.378E-03    0.531E-04
DAV:   5    -0.129526734458E+03   -0.13460E-06   -0.10180E-07   234   0.182E-03    0.244E-04
DAV:   6    -0.129526734542E+03   -0.83697E-07    0.35151E-09   230   0.863E-04
  33 F= -.12952673E+03 E0= -.12952673E+03  d E =-.760109E-04
damped:  g(F)=  0.000E+00 g(S)=  0.000E+00 dE (1.order)= 0.000E+00
 bond charge predicted
       N       E                     dE             d eps       ncg     rms          rms(c)
DAV:   1    -0.129526841985E+03   -0.10753E-03   -0.24970E-03   328   0.262E-01    0.120E-02
DAV:   2    -0.129526846029E+03   -0.40446E-05   -0.58426E-05   269   0.368E-02    0.783E-03
DAV:   3    -0.129526846118E+03   -0.88731E-07   -0.43932E-06   272   0.103E-02    0.442E-03
DAV:   4    -0.129526846367E+03   -0.24907E-06   -0.19676E-06   209   0.711E-03    0.995E-04
DAV:   5    -0.129526846388E+03   -0.21092E-07   -0.45902E-07   264   0.343E-03    0.493E-04
DAV:   6    -0.129526846416E+03   -0.28071E-07   -0.93389E-08   170   0.152E-03
  34 F= -.12952685E+03 E0= -.12952685E+03  d E =-.111874E-03
damped:  g(F)=  0.000E+00 g(S)=  0.000E+00 dE (1.order)= 0.000E+00
 bond charge predicted
       N       E                     dE             d eps       ncg     rms          rms(c)
DAV:   1    -0.129526947663E+03   -0.10127E-03   -0.53245E-03   327   0.382E-01    0.177E-02
DAV:   2    -0.129526956372E+03   -0.87091E-05   -0.12925E-04   252   0.548E-02    0.115E-02
DAV:   3    -0.129526956212E+03    0.15942E-06   -0.98620E-06   272   0.153E-02    0.646E-03
DAV:   4    -0.129526956434E+03   -0.22187E-06   -0.51776E-06   264   0.105E-02    0.166E-03
DAV:   5    -0.129526956388E+03    0.46549E-07   -0.91136E-07   272   0.508E-03    0.824E-04
DAV:   6    -0.129526956425E+03   -0.37511E-07   -0.16098E-07   202   0.212E-03
  35 F= -.12952696E+03 E0= -.12952696E+03  d E =-.110009E-03
damped:  g(F)=  0.000E+00 g(S)=  0.000E+00 dE (1.order)= 0.000E+00
 bond charge predicted
       N       E                     dE             d eps       ncg     rms          rms(c)
DAV:   1    -0.129527029395E+03   -0.73007E-04   -0.89037E-03   377   0.490E-01    0.217E-02
DAV:   2    -0.129527041425E+03   -0.12031E-04   -0.18172E-04   266   0.655E-02    0.142E-02
DAV:   3    -0.129527041672E+03   -0.24642E-06   -0.13688E-05   228   0.182E-02    0.752E-03
DAV:   4    -0.129527042417E+03   -0.74488E-06   -0.57930E-06   244   0.120E-02    0.155E-03
DAV:   5    -0.129527042551E+03   -0.13406E-06   -0.14274E-06   200   0.578E-03    0.817E-04
DAV:   6    -0.129527042704E+03   -0.15330E-06   -0.37518E-07   228   0.254E-03
  36 F= -.12952704E+03 E0= -.12952704E+03  d E =-.862788E-04
damped:  g(F)=  0.000E+00 g(S)=  0.000E+00 dE (1.order)= 0.000E+00
 bond charge predicted
       N       E                     dE             d eps       ncg     rms          rms(c)
DAV:   1    -0.129527142378E+03   -0.99827E-04   -0.13521E-02   332   0.594E-01    0.255E-02
DAV:   2    -0.129527156840E+03   -0.14462E-04   -0.22274E-04   300   0.718E-02    0.165E-02
DAV:   3    -0.129527158023E+03   -0.11826E-05   -0.12712E-05   235   0.186E-02    0.803E-03
DAV:   4    -0.129527159838E+03   -0.18156E-05   -0.55539E-06   253   0.121E-02    0.146E-03
DAV:   5    -0.129527160092E+03   -0.25375E-06   -0.11774E-06   209   0.545E-03    0.800E-04
DAV:   6    -0.129527160308E+03   -0.21609E-06   -0.21338E-07   245   0.223E-03
  37 F= -.12952716E+03 E0= -.12952716E+03  d E =-.117604E-03
damped:  g(F)=  0.000E+00 g(S)=  0.000E+00 dE (1.order)= 0.000E+00
 bond charge predicted
       N       E                     dE             d eps       ncg     rms          rms(c)
DAV:   1    -0.129527323934E+03   -0.16384E-03   -0.22324E-02   328   0.765E-01    0.332E-02
DAV:   2    -0.129527350739E+03   -0.26804E-04   -0.40669E-04   332   0.946E-02    0.221E-02
DAV:   3    -0.129527350398E+03    0.34119E-06   -0.13290E-05   256   0.211E-02    0.118E-02
DAV:   4    -0.129527353430E+03   -0.30324E-05   -0.11317E-05   273   0.169E-02    0.236E-03
DAV:   5    -0.129527353558E+03   -0.12767E-06   -0.20128E-06   272   0.762E-03    0.136E-03
DAV:   6    -0.129527353681E+03   -0.12343E-06   -0.20006E-07   208   0.262E-03
  38 F= -.12952735E+03 E0= -.12952735E+03  d E =-.193373E-03
damped:  g(F)=  0.000E+00 g(S)=  0.000E+00 dE (1.order)= 0.000E+00
 bond charge predicted
       N       E                     dE             d eps       ncg     rms          rms(c)
DAV:   1    -0.129527496347E+03   -0.14279E-03   -0.35678E-02   329   0.973E-01    0.425E-02
DAV:   2    -0.129527543611E+03   -0.47264E-04   -0.71165E-04   364   0.124E-01    0.286E-02
DAV:   3    -0.129527540348E+03    0.32639E-05   -0.15732E-05   239   0.240E-02    0.159E-02
DAV:   4    -0.129527544356E+03   -0.40081E-05   -0.19984E-05   296   0.227E-02    0.324E-03
DAV:   5    -0.129527544582E+03   -0.22654E-06   -0.38198E-06   272   0.105E-02    0.189E-03
DAV:   6    -0.129527544862E+03   -0.27944E-06   -0.45179E-07   208   0.346E-03
  39 F= -.12952754E+03 E0= -.12952754E+03  d E =-.191180E-03
damped:  g(F)=  0.000E+00 g(S)=  0.000E+00 dE (1.order)= 0.000E+00
 bond charge predicted
       N       E                     dE             d eps       ncg     rms          rms(c)
DAV:   1    -0.129527736358E+03   -0.19178E-03   -0.45371E-02   329   0.109E+00    0.465E-02
DAV:   2    -0.129527789639E+03   -0.53281E-04   -0.79134E-04   362   0.131E-01    0.308E-02
DAV:   3    -0.129527789033E+03    0.60685E-06   -0.16746E-05   234   0.250E-02    0.161E-02
DAV:   4    -0.129527795797E+03   -0.67646E-05   -0.20325E-05   275   0.222E-02    0.326E-03
DAV:   5    -0.129527796173E+03   -0.37619E-06   -0.37557E-06   246   0.101E-02    0.198E-03
DAV:   6    -0.129527796621E+03   -0.44793E-06   -0.47433E-07   224   0.357E-03
  40 F= -.12952780E+03 E0= -.12952780E+03  d E =-.251760E-03
damped:  g(F)=  0.000E+00 g(S)=  0.000E+00 dE (1.order)= 0.000E+00
 bond charge predicted
       N       E                     dE             d eps       ncg     rms          rms(c)
DAV:   1    -0.129528039563E+03   -0.24339E-03   -0.57643E-02   332   0.124E+00    0.534E-02
DAV:   2    -0.129528118520E+03   -0.78958E-04   -0.11439E-03   364   0.157E-01    0.365E-02
DAV:   3    -0.129528115649E+03    0.28717E-05   -0.30685E-05   335   0.313E-02    0.204E-02
DAV:   4    -0.129528122981E+03   -0.73328E-05   -0.26186E-05   264   0.266E-02    0.365E-03
DAV:   5    -0.129528123378E+03   -0.39691E-06   -0.50503E-06   272   0.118E-02    0.222E-03
DAV:   6    -0.129528123685E+03   -0.30669E-06   -0.60912E-07   224   0.412E-03
  41 F= -.12952812E+03 E0= -.12952812E+03  d E =-.327064E-03
damped:  g(F)=  0.000E+00 g(S)=  0.000E+00 dE (1.order)= 0.000E+00
 bond charge predicted
       N       E                     dE             d eps       ncg     rms          rms(c)
DAV:   1    -0.129528404858E+03   -0.28148E-03   -0.61264E-02   328   0.128E+00    0.545E-02
DAV:   2    -0.129528484821E+03   -0.79962E-04   -0.11597E-03   346   0.158E-01    0.359E-02
DAV:   3    -0.129528483792E+03    0.10285E-05   -0.29528E-05   258   0.316E-02    0.199E-02
DAV:   4    -0.129528493101E+03   -0.93086E-05   -0.24666E-05   250   0.260E-02    0.409E-03
DAV:   5    -0.129528493410E+03   -0.30947E-06   -0.52742E-06   256   0.124E-02    0.219E-03
DAV:   6    -0.129528493790E+03   -0.37984E-06   -0.65283E-07   208   0.422E-03
  42 F= -.12952849E+03 E0= -.12952849E+03  d E =-.370105E-03
damped:  g(F)=  0.000E+00 g(S)=  0.000E+00 dE (1.order)= 0.000E+00
 bond charge predicted
       N       E                     dE             d eps       ncg     rms          rms(c)
DAV:   1    -0.129528512517E+03   -0.19107E-04   -0.19670E-04   309   0.751E-02    0.370E-03
DAV:   2    -0.129528513434E+03   -0.91699E-06   -0.85233E-06   252   0.155E-02    0.211E-03
DAV:   3    -0.129528513803E+03   -0.36935E-06   -0.88268E-07   219   0.516E-03    0.121E-03
DAV:   4    -0.129528514347E+03   -0.54307E-06   -0.23198E-07   291   0.254E-03    0.329E-04
DAV:   5    -0.129528514622E+03   -0.27591E-06    0.14390E-08   272   0.119E-03    0.197E-04
DAV:   6    -0.129528514850E+03   -0.22733E-06    0.53614E-08   200   0.574E-04
  43 F= -.12952851E+03 E0= -.12952851E+03  d E =-.210595E-04
damped:  g(F)=  0.000E+00 g(S)=  0.000E+00 dE (1.order)= 0.000E+00
 bond charge predicted
       N       E                     dE             d eps       ncg     rms          rms(c)
DAV:   1    -0.129528541902E+03   -0.27279E-04   -0.66235E-04   332   0.137E-01    0.655E-03
DAV:   2    -0.129528543442E+03   -0.15401E-05   -0.21397E-05   237   0.230E-02    0.376E-03
DAV:   3    -0.129528543634E+03   -0.19241E-06   -0.23543E-06   254   0.812E-03    0.201E-03
DAV:   4    -0.129528543799E+03   -0.16429E-06   -0.56297E-07   218   0.403E-03    0.484E-04
DAV:   5    -0.129528543918E+03   -0.11959E-06   -0.12115E-07   320   0.198E-03    0.261E-04
DAV:   6    -0.129528544011E+03   -0.92401E-07    0.49031E-08   200   0.850E-04
  44 F= -.12952854E+03 E0= -.12952854E+03  d E =-.291609E-04
damped:  g(F)=  0.000E+00 g(S)=  0.000E+00 dE (1.order)= 0.000E+00
 bond charge predicted
       N       E                     dE             d eps       ncg     rms          rms(c)
DAV:   1    -0.129528571858E+03   -0.27939E-04   -0.11056E-03   333   0.176E-01    0.816E-03
DAV:   2    -0.129528573925E+03   -0.20680E-05   -0.31508E-05   220   0.281E-02    0.467E-03
DAV:   3    -0.129528574083E+03   -0.15712E-06   -0.36237E-06   244   0.102E-02    0.248E-03
DAV:   4    -0.129528574119E+03   -0.36016E-07   -0.83675E-07   242   0.499E-03    0.561E-04
DAV:   5    -0.129528574185E+03   -0.66545E-07   -0.17937E-07   209   0.245E-03    0.269E-04
DAV:   6    -0.129528574258E+03   -0.73164E-07   -0.13050E-08   166   0.121E-03
  45 F= -.12952857E+03 E0= -.12952857E+03  d E =-.302477E-04
damped:  g(F)=  0.000E+00 g(S)=  0.000E+00 dE (1.order)= 0.000E+00
 bond charge predicted
       N       E                     dE             d eps       ncg     rms          rms(c)
DAV:   1    -0.129528607695E+03   -0.33510E-04   -0.13792E-03   347   0.195E-01    0.883E-03
DAV:   2    -0.129528609302E+03   -0.16068E-05   -0.27260E-05   208   0.257E-02    0.512E-03
DAV:   3    -0.129528609525E+03   -0.22328E-06   -0.34249E-06   200   0.954E-03    0.264E-03
DAV:   4    -0.129528609709E+03   -0.18376E-06   -0.81137E-07   164   0.480E-03    0.634E-04
DAV:   5    -0.129528609798E+03   -0.89729E-07   -0.18738E-07   164   0.233E-03    0.280E-04
DAV:   6    -0.129528609862E+03   -0.63439E-07   -0.18680E-08   164   0.113E-03
  46 F= -.12952861E+03 E0= -.12952861E+03  d E =-.356036E-04
damped:  g(F)=  0.000E+00 g(S)=  0.000E+00 dE (1.order)= 0.000E+00
 bond charge predicted
       N       E                     dE             d eps       ncg     rms          rms(c)
DAV:   1    -0.129528657535E+03   -0.47737E-04   -0.16265E-03   331   0.211E-01    0.955E-03
DAV:   2    -0.129528658926E+03   -0.13913E-05   -0.25789E-05   270   0.256E-02    0.569E-03
DAV:   3    -0.129528659323E+03   -0.39691E-06   -0.35699E-06   173   0.991E-03    0.294E-03
DAV:   4    -0.129528659672E+03   -0.34904E-06   -0.87665E-07   198   0.502E-03    0.755E-04
DAV:   5    -0.129528659757E+03   -0.84487E-07   -0.19347E-07   166   0.245E-03    0.299E-04
DAV:   6    -0.129528659802E+03   -0.44900E-07   -0.11431E-08   164   0.114E-03
  47 F= -.12952866E+03 E0= -.12952866E+03  d E =-.499398E-04
damped:  g(F)=  0.000E+00 g(S)=  0.000E+00 dE (1.order)= 0.000E+00
 bond charge predicted
       N       E                     dE             d eps       ncg     rms          rms(c)
DAV:   1    -0.129528722266E+03   -0.62509E-04   -0.20513E-03   348   0.239E-01    0.111E-02
DAV:   2    -0.129528723875E+03   -0.16093E-05   -0.32365E-05   247   0.292E-02    0.683E-03
DAV:   3    -0.129528724340E+03   -0.46446E-06   -0.46501E-06   220   0.114E-02    0.367E-03
DAV:   4    -0.129528724731E+03   -0.39097E-06   -0.12613E-06   228   0.604E-03    0.106E-03
DAV:   5    -0.129528724780E+03   -0.48735E-07   -0.28480E-07   166   0.300E-03    0.375E-04
DAV:   6    -0.129528724814E+03   -0.34248E-07   -0.37613E-08   164   0.140E-03
  48 F= -.12952872E+03 E0= -.12952872E+03  d E =-.650122E-04
damped:  g(F)=  0.000E+00 g(S)=  0.000E+00 dE (1.order)= 0.000E+00
 bond charge predicted
       N       E                     dE             d eps       ncg     rms          rms(c)
DAV:   1    -0.129528801155E+03   -0.76375E-04   -0.32548E-03   325   0.302E-01    0.143E-02
DAV:   2    -0.129528803795E+03   -0.26398E-05   -0.54864E-05   237   0.381E-02    0.893E-03
DAV:   3    -0.129528804373E+03   -0.57800E-06   -0.78731E-06   248   0.147E-02    0.496E-03
DAV:   4    -0.129528804871E+03   -0.49808E-06   -0.22892E-06   222   0.805E-03    0.148E-03
DAV:   5    -0.129528804909E+03   -0.37789E-07   -0.56234E-07   167   0.399E-03    0.509E-04
DAV:   6    -0.129528804955E+03   -0.46165E-07   -0.13758E-07   164   0.187E-03
  49 F= -.12952880E+03 E0= -.12952880E+03  d E =-.801410E-04
damped:  g(F)=  0.000E+00 g(S)=  0.000E+00 dE (1.order)= 0.000E+00
 bond charge predicted
       N       E                     dE             d eps       ncg     rms          rms(c)
DAV:   1    -0.129528893969E+03   -0.89061E-04   -0.49766E-03   327   0.373E-01    0.173E-02
DAV:   2    -0.129528897885E+03   -0.39155E-05   -0.80813E-05   229   0.461E-02    0.107E-02
DAV:   3    -0.129528898835E+03   -0.95032E-06   -0.11640E-05   202   0.179E-02    0.584E-03
DAV:   4    -0.129528899636E+03   -0.80042E-06   -0.32692E-06   253   0.955E-03    0.172E-03
DAV:   5    -0.129528899715E+03   -0.79159E-07   -0.83193E-07   164   0.475E-03    0.596E-04
DAV:   6    -0.129528899792E+03   -0.77393E-07   -0.21923E-07   174   0.223E-03
  50 F= -.12952890E+03 E0= -.12952890E+03  d E =-.948374E-04
damped:  g(F)=  0.000E+00 g(S)=  0.000E+00 dE (1.order)= 0.000E+00
 bond charge predicted
       N       E                     dE             d eps       ncg     rms          rms(c)
DAV:   1    -0.129529015325E+03   -0.11561E-03   -0.76768E-03   337   0.462E-01    0.208E-02
DAV:   2    -0.129529022628E+03   -0.73024E-05   -0.13049E-04   258   0.567E-02    0.124E-02
DAV:   3    -0.129529023933E+03   -0.13054E-05   -0.14349E-05   235   0.186E-02    0.677E-03
DAV:   4    -0.129529025275E+03   -0.13421E-05   -0.45242E-06   263   0.109E-02    0.179E-03
DAV:   5    -0.129529025408E+03   -0.13283E-06   -0.12747E-06   203   0.552E-03    0.707E-04
DAV:   6    -0.129529025482E+03   -0.74049E-07   -0.31532E-07   167   0.241E-03
  51 F= -.12952903E+03 E0= -.12952903E+03  d E =-.125690E-03
damped:  g(F)=  0.000E+00 g(S)=  0.000E+00 dE (1.order)= 0.000E+00
 bond charge predicted
       N       E                     dE             d eps       ncg     rms          rms(c)
DAV:   1    -0.129529166638E+03   -0.14123E-03   -0.12033E-02   340   0.579E-01    0.258E-02
DAV:   2    -0.129529183237E+03   -0.16599E-04   -0.25358E-04   332   0.737E-02    0.160E-02
DAV:   3    -0.129529182515E+03    0.72156E-06   -0.11442E-05   236   0.190E-02    0.933E-03
DAV:   4    -0.129529184303E+03   -0.17881E-05   -0.79979E-06   301   0.143E-02    0.299E-03
DAV:   5    -0.129529184296E+03    0.73205E-08   -0.20766E-06   272   0.791E-03    0.960E-04
DAV:   6    -0.129529184344E+03   -0.47662E-07   -0.25244E-07   202   0.283E-03
  52 F= -.12952918E+03 E0= -.12952918E+03  d E =-.158862E-03
damped:  g(F)=  0.000E+00 g(S)=  0.000E+00 dE (1.order)= 0.000E+00
 bond charge predicted
       N       E                     dE             d eps       ncg     rms          rms(c)
DAV:   1    -0.129529347692E+03   -0.16340E-03   -0.15971E-02   330   0.668E-01    0.296E-02
DAV:   2    -0.129529369494E+03   -0.21803E-04   -0.33030E-04   332   0.843E-02    0.186E-02
DAV:   3    -0.129529368517E+03    0.97706E-06   -0.15349E-05   210   0.221E-02    0.108E-02
DAV:   4    -0.129529371065E+03   -0.25475E-05   -0.97576E-06   236   0.166E-02    0.310E-03
DAV:   5    -0.129529371180E+03   -0.11535E-06   -0.23548E-06   236   0.844E-03    0.126E-03
DAV:   6    -0.129529371333E+03   -0.15310E-06   -0.39553E-07   189   0.316E-03
  53 F= -.12952937E+03 E0= -.12952937E+03  d E =-.186989E-03
damped:  g(F)=  0.000E+00 g(S)=  0.000E+00 dE (1.order)= 0.000E+00
 bond charge predicted
       N       E                     dE             d eps       ncg     rms          rms(c)
DAV:   1    -0.129529576107E+03   -0.20493E-03   -0.19326E-02   328   0.737E-01    0.326E-02
DAV:   2    -0.129529601487E+03   -0.25379E-04   -0.38750E-04   331   0.924E-02    0.216E-02
DAV:   3    -0.129529600362E+03    0.11245E-05   -0.20003E-05   235   0.254E-02    0.128E-02
DAV:   4    -0.129529604283E+03   -0.39208E-05   -0.14367E-05   267   0.193E-02    0.449E-03
DAV:   5    -0.129529604172E+03    0.11112E-06   -0.40203E-06   260   0.110E-02    0.131E-03
DAV:   6    -0.129529604356E+03   -0.18433E-06   -0.62305E-07   172   0.396E-03
  54 F= -.12952960E+03 E0= -.12952960E+03  d E =-.233023E-03
damped:  g(F)=  0.000E+00 g(S)=  0.000E+00 dE (1.order)= 0.000E+00
 bond charge predicted
       N       E                     dE             d eps       ncg     rms          rms(c)
DAV:   1    -0.129529829011E+03   -0.22484E-03   -0.26159E-02   328   0.855E-01    0.374E-02
DAV:   2    -0.129529865803E+03   -0.36792E-04   -0.54474E-04   396   0.108E-01    0.255E-02
DAV:   3    -0.129529862703E+03    0.31002E-05   -0.18076E-05   220   0.251E-02    0.152E-02
DAV:   4    -0.129529867728E+03   -0.50247E-05   -0.18527E-05   275   0.216E-02    0.502E-03
DAV:   5    -0.129529867482E+03    0.24575E-06   -0.49419E-06   232   0.122E-02    0.156E-03
DAV:   6    -0.129529867681E+03   -0.19964E-06   -0.74063E-07   166   0.429E-03
  55 F= -.12952987E+03 E0= -.12952987E+03  d E =-.263325E-03
damped:  g(F)=  0.000E+00 g(S)=  0.000E+00 dE (1.order)= 0.000E+00
 bond charge predicted
       N       E                     dE             d eps       ncg     rms          rms(c)
DAV:   1    -0.129530113860E+03   -0.24638E-03   -0.39032E-02   328   0.103E+00    0.441E-02
DAV:   2    -0.129530172630E+03   -0.58770E-04   -0.82771E-04   396   0.131E-01    0.287E-02
DAV:   3    -0.129530169369E+03    0.32603E-05   -0.20278E-05   201   0.266E-02    0.166E-02
DAV:   4    -0.129530175619E+03   -0.62498E-05   -0.21030E-05   292   0.232E-02    0.474E-03
DAV:   5    -0.129530175639E+03   -0.19410E-07   -0.51622E-06   240   0.124E-02    0.174E-03
DAV:   6    -0.129530175852E+03   -0.21362E-06   -0.64955E-07   199   0.413E-03
  56 F= -.12953018E+03 E0= -.12953018E+03  d E =-.308171E-03
damped:  g(F)=  0.000E+00 g(S)=  0.000E+00 dE (1.order)= 0.000E+00
 bond charge predicted
       N       E                     dE             d eps       ncg     rms          rms(c)
DAV:   1    -0.129530423533E+03   -0.24789E-03   -0.57251E-02   330   0.124E+00    0.523E-02
DAV:   2    -0.129530510528E+03   -0.86995E-04   -0.12028E-03   379   0.158E-01    0.340E-02
DAV:   3    -0.129530506233E+03    0.42951E-05   -0.25326E-05   219   0.301E-02    0.194E-02
DAV:   4    -0.129530514522E+03   -0.82889E-05   -0.27470E-05   269   0.270E-02    0.490E-03
DAV:   5    -0.129530514819E+03   -0.29694E-06   -0.62430E-06   256   0.136E-02    0.205E-03
DAV:   6    -0.129530515140E+03   -0.32084E-06   -0.76206E-07   200   0.443E-03
  57 F= -.12953052E+03 E0= -.12953052E+03  d E =-.339288E-03
damped:  g(F)=  0.000E+00 g(S)=  0.000E+00 dE (1.order)= 0.000E+00
 bond charge predicted
       N       E                     dE             d eps       ncg     rms          rms(c)
DAV:   1    -0.129530780589E+03   -0.26577E-03   -0.80424E-02   330   0.146E+00    0.615E-02
DAV:   2    -0.129530897757E+03   -0.11717E-03   -0.16353E-03   387   0.184E-01    0.417E-02
DAV:   3    -0.129530891965E+03    0.57923E-05   -0.37466E-05   236   0.370E-02    0.240E-02
DAV:   4    -0.129530904404E+03   -0.12440E-04   -0.40875E-05   296   0.324E-02    0.608E-03
DAV:   5    -0.129530904589E+03   -0.18429E-06   -0.92998E-06   264   0.164E-02    0.261E-03
DAV:   6    -0.129530904987E+03   -0.39810E-06   -0.12663E-06   198   0.563E-03
  58 F= -.12953090E+03 E0= -.12953090E+03  d E =-.389847E-03
damped:  g(F)=  0.000E+00 g(S)=  0.000E+00 dE (1.order)= 0.000E+00
 bond charge predicted
       N       E                     dE             d eps       ncg     rms          rms(c)
DAV:   1    -0.129531141996E+03   -0.23741E-03   -0.12474E-01   328   0.181E+00    0.752E-02
DAV:   2    -0.129531329993E+03   -0.18800E-03   -0.25638E-03   395   0.229E-01    0.494E-02
DAV:   3    -0.129531322608E+03    0.73853E-05   -0.49411E-05   242   0.416E-02    0.277E-02
DAV:   4    -0.129531339515E+03   -0.16907E-04   -0.46901E-05   284   0.361E-02    0.529E-03
DAV:   5    -0.129531340440E+03   -0.92547E-06   -0.93553E-06   256   0.162E-02    0.300E-03
DAV:   6    -0.129531341131E+03   -0.69061E-06   -0.10511E-06   208   0.538E-03
  59 F= -.12953134E+03 E0= -.12953134E+03  d E =-.436144E-03
damped:  g(F)=  0.000E+00 g(S)=  0.000E+00 dE (1.order)= 0.000E+00
 reached required accuracy - stopping structural energy minimisation
