  22  22   0   0
  0.1227273E+04  0.3000000E-08  0.3000000E-08  0.3000000E-08  0.0000000E+00
  1.000000000000000E-004
  CAR 
 unknown system                          
      2.20181679    -28.26502141  301     -4.60165034      1.00000000
    -28.265  0.0000E+00  0.0000E+00
    -28.163  0.0000E+00  0.0000E+00
    -28.062  0.0000E+00  0.0000E+00
    -27.960  0.0000E+00  0.0000E+00
    -27.859  0.0000E+00  0.0000E+00
    -27.757  0.0000E+00  0.0000E+00
    -27.656  0.0000E+00  0.0000E+00
    -27.554  0.0000E+00  0.0000E+00
    -27.453  0.0000E+00  0.0000E+00
    -27.351  0.5247E-15  0.5329E-16
    -27.249  0.1103E-12  0.1126E-13
    -27.148  0.1399E-10  0.1432E-11
    -27.046  0.1068E-08  0.1099E-09
    -26.945  0.4928E-07  0.5115E-08
    -26.843  0.1374E-05  0.1447E-06
    -26.742  0.2320E-04  0.2501E-05
    -26.640  0.2377E-03  0.2664E-04
    -26.539  0.1480E-02  0.1769E-03
    -26.437  0.5608E-02  0.7464E-03
    -26.335  0.1295E-01  0.2062E-02
    -26.234  0.1824E-01  0.3914E-02
    -26.132  0.1568E-01  0.5506E-02
    -26.031  0.8226E-02  0.6342E-02
    -25.929  0.2686E-02  0.6614E-02
    -25.828  0.1002E-02  0.6716E-02
    -25.726  0.2609E-02  0.6981E-02
    -25.625  0.8063E-02  0.7800E-02
    -25.523  0.1554E-01  0.9378E-02
    -25.421  0.1828E-01  0.1123E-01
    -25.320  0.1312E-01  0.1257E-01
    -25.218  0.5744E-02  0.1315E-01
    -25.117  0.1533E-02  0.1331E-01
    -25.015  0.2490E-03  0.1333E-01
    -24.914  0.2458E-04  0.1333E-01
    -24.812  0.1472E-05  0.1333E-01
    -24.711  0.5338E-07  0.1333E-01
    -24.609  0.1170E-08  0.1333E-01
    -24.507  0.1566E-10  0.1333E-01
    -24.406  0.2005E-10  0.1333E-01
    -24.304  0.1464E-08  0.1333E-01
    -24.203  0.6494E-07  0.1333E-01
    -24.101  0.1742E-05  0.1333E-01
    -24.000  0.2829E-04  0.1334E-01
    -23.898  0.2788E-03  0.1336E-01
    -23.797  0.1670E-02  0.1353E-01
    -23.695  0.6090E-02  0.1415E-01
    -23.593  0.1353E-01  0.1553E-01
    -23.492  0.1835E-01  0.1739E-01
    -23.390  0.1518E-01  0.1893E-01
    -23.289  0.7661E-02  0.1971E-01
    -23.187  0.2358E-02  0.1995E-01
    -23.086  0.4569E-03  0.2000E-01
    -22.984  0.2203E-03  0.2002E-01
    -22.883  0.1149E-02  0.2014E-01
    -22.781  0.4694E-02  0.2061E-01
    -22.679  0.1172E-01  0.2180E-01
    -22.578  0.1786E-01  0.2362E-01
    -22.476  0.1660E-01  0.2530E-01
    -22.375  0.9411E-02  0.2626E-01
    -22.273  0.3254E-02  0.2659E-01
    -22.172  0.6854E-03  0.2666E-01
    -22.070  0.8781E-04  0.2667E-01
    -21.969  0.6831E-05  0.2667E-01
    -21.867  0.3221E-06  0.2667E-01
    -21.765  0.9192E-08  0.2667E-01
    -21.664  0.1585E-09  0.2667E-01
    -21.562  0.1648E-11  0.2667E-01
    -21.461  0.1032E-13  0.2667E-01
    -21.359  0.4373E-16  0.2667E-01
    -21.258  0.0000E+00  0.2667E-01
    -21.156  0.0000E+00  0.2667E-01
    -21.055  0.0000E+00  0.2667E-01
    -20.953  0.0000E+00  0.2667E-01
    -20.851  0.3644E-17  0.2667E-01
    -20.750  0.1057E-14  0.2667E-01
    -20.648  0.2086E-12  0.2667E-01
    -20.547  0.2480E-10  0.2667E-01
    -20.445  0.1778E-08  0.2667E-01
    -20.344  0.7698E-07  0.2667E-01
    -20.242  0.2015E-05  0.2667E-01
    -20.141  0.3195E-04  0.2667E-01
    -20.039  0.3075E-03  0.2670E-01
    -19.937  0.1798E-02  0.2688E-01
    -19.836  0.6402E-02  0.2753E-01
    -19.734  0.1389E-01  0.2894E-01
    -19.633  0.1839E-01  0.3081E-01
    -19.531  0.1485E-01  0.3232E-01
    -19.430  0.7320E-02  0.3306E-01
    -19.328  0.2199E-02  0.3329E-01
    -19.227  0.4022E-03  0.3333E-01
    -19.125  0.4473E-04  0.3333E-01
    -19.023  0.3021E-05  0.3333E-01
    -18.922  0.2199E-06  0.3333E-01
    -18.820  0.2447E-05  0.3333E-01
    -18.719  0.3752E-04  0.3334E-01
    -18.617  0.3496E-03  0.3337E-01
    -18.516  0.1980E-02  0.3357E-01
    -18.414  0.6829E-02  0.3427E-01
    -18.313  0.1436E-01  0.3573E-01
    -18.211  0.1841E-01  0.3760E-01
    -18.109  0.1441E-01  0.3906E-01
    -18.008  0.6877E-02  0.3976E-01
    -17.906  0.2005E-02  0.3996E-01
    -17.805  0.4096E-03  0.4000E-01
    -17.703  0.5124E-03  0.4005E-01
    -17.602  0.2487E-02  0.4031E-01
    -17.500  0.7928E-02  0.4111E-01
    -17.399  0.1542E-01  0.4268E-01
    -17.297  0.1830E-01  0.4454E-01
    -17.195  0.1326E-01  0.4588E-01
    -17.094  0.5855E-02  0.4648E-01
    -16.992  0.1576E-02  0.4664E-01
    -16.891  0.2583E-03  0.4666E-01
    -16.789  0.2573E-04  0.4667E-01
    -16.688  0.1601E-05  0.4667E-01
    -16.586  0.1371E-05  0.4667E-01
    -16.485  0.2235E-04  0.4667E-01
    -16.383  0.2307E-03  0.4669E-01
    -16.281  0.1446E-02  0.4684E-01
    -16.180  0.5520E-02  0.4740E-01
    -16.078  0.1284E-01  0.4870E-01
    -15.977  0.1821E-01  0.5055E-01
    -15.875  0.1577E-01  0.5215E-01
    -15.774  0.8328E-02  0.5300E-01
    -15.672  0.2682E-02  0.5327E-01
    -15.571  0.5273E-03  0.5333E-01
    -15.469  0.8537E-04  0.5334E-01
    -15.367  0.2377E-03  0.5336E-01
    -15.266  0.1458E-02  0.5351E-01
    -15.164  0.5551E-02  0.5407E-01
    -15.063  0.1288E-01  0.5538E-01
    -14.961  0.1822E-01  0.5723E-01
    -14.860  0.1574E-01  0.5883E-01
    -14.758  0.8290E-02  0.5967E-01
    -14.657  0.2663E-02  0.5994E-01
    -14.555  0.5209E-03  0.5999E-01
    -14.453  0.6433E-04  0.6000E-01
    -14.352  0.4120E-04  0.6000E-01
    -14.250  0.3439E-03  0.6004E-01
    -14.149  0.1955E-02  0.6024E-01
    -14.047  0.6772E-02  0.6093E-01
    -13.946  0.1429E-01  0.6238E-01
    -13.844  0.1841E-01  0.6425E-01
    -13.742  0.1447E-01  0.6572E-01
    -13.641  0.6936E-02  0.6642E-01
    -13.539  0.2035E-02  0.6663E-01
    -13.438  0.4628E-03  0.6667E-01
    -13.336  0.8110E-03  0.6676E-01
    -13.235  0.3549E-02  0.6712E-01
    -13.133  0.9924E-02  0.6812E-01
    -13.032  0.1694E-01  0.6984E-01
    -12.930  0.1771E-01  0.7164E-01
    -12.828  0.1181E-01  0.7284E-01
    -12.727  0.7339E-02  0.7359E-01
    -12.625  0.9966E-02  0.7460E-01
    -12.524  0.1640E-01  0.7627E-01
    -12.422  0.1804E-01  0.7810E-01
    -12.321  0.1221E-01  0.7934E-01
    -12.219  0.5077E-02  0.7985E-01
    -12.118  0.1627E-02  0.8002E-01
    -12.016  0.2218E-02  0.8024E-01
    -11.914  0.6952E-02  0.8095E-01
    -11.813  0.1452E-01  0.8243E-01
    -11.711  0.1893E-01  0.8435E-01
    -11.610  0.1697E-01  0.8607E-01
    -11.508  0.1533E-01  0.8763E-01
    -11.407  0.1947E-01  0.8961E-01
    -11.305  0.2502E-01  0.9215E-01
    -11.204  0.2690E-01  0.9488E-01
    -11.102  0.2399E-01  0.9731E-01
    -11.000  0.1633E-01  0.9897E-01
    -10.899  0.7937E-02  0.9978E-01
    -10.797  0.4609E-02  0.1002E+00
    -10.696  0.9008E-02  0.1012E+00
    -10.594  0.1996E-01  0.1032E+00
    -10.493  0.3084E-01  0.1063E+00
    -10.391  0.3394E-01  0.1098E+00
    -10.290  0.3138E-01  0.1130E+00
    -10.188  0.3370E-01  0.1164E+00
    -10.086  0.4234E-01  0.1207E+00
     -9.985  0.4585E-01  0.1253E+00
     -9.883  0.3828E-01  0.1292E+00
     -9.782  0.2458E-01  0.1317E+00
     -9.680  0.1232E-01  0.1330E+00
     -9.579  0.7471E-02  0.1337E+00
     -9.477  0.1142E-01  0.1349E+00
     -9.376  0.1947E-01  0.1369E+00
     -9.274  0.2537E-01  0.1394E+00
     -9.172  0.2918E-01  0.1424E+00
     -9.071  0.3411E-01  0.1459E+00
     -8.969  0.3916E-01  0.1498E+00
     -8.868  0.3989E-01  0.1539E+00
     -8.766  0.3253E-01  0.1572E+00
     -8.665  0.2083E-01  0.1593E+00
     -8.563  0.1461E-01  0.1608E+00
     -8.462  0.1672E-01  0.1625E+00
     -8.360  0.1867E-01  0.1644E+00
     -8.258  0.1387E-01  0.1658E+00
     -8.157  0.6360E-02  0.1665E+00
     -8.055  0.1780E-02  0.1666E+00
     -7.954  0.3034E-03  0.1667E+00
     -7.852  0.3143E-04  0.1667E+00
     -7.751  0.1975E-05  0.1667E+00
     -7.649  0.7521E-07  0.1667E+00
     -7.548  0.1732E-08  0.1667E+00
     -7.446  0.2998E-10  0.1667E+00
     -7.344  0.4960E-09  0.1667E+00
     -7.243  0.2511E-07  0.1667E+00
     -7.141  0.7689E-06  0.1667E+00
     -7.040  0.1426E-04  0.1667E+00
     -6.938  0.1604E-03  0.1667E+00
     -6.837  0.1099E-02  0.1668E+00
     -6.735  0.4610E-02  0.1673E+00
     -6.634  0.1205E-01  0.1685E+00
     -6.532  0.2050E-01  0.1706E+00
     -6.430  0.2517E-01  0.1731E+00
     -6.329  0.2548E-01  0.1757E+00
     -6.227  0.2157E-01  0.1779E+00
     -6.126  0.1356E-01  0.1793E+00
     -6.024  0.6363E-02  0.1799E+00
     -5.923  0.5397E-02  0.1805E+00
     -5.821  0.1228E-01  0.1817E+00
     -5.720  0.2393E-01  0.1842E+00
     -5.618  0.3201E-01  0.1874E+00
     -5.516  0.2949E-01  0.1904E+00
     -5.415  0.1859E-01  0.1923E+00
     -5.313  0.7801E-02  0.1931E+00
     -5.212  0.2111E-02  0.1933E+00
     -5.110  0.3592E-03  0.1933E+00
     -5.009  0.3781E-04  0.1933E+00
     -4.907  0.2436E-05  0.1933E+00
     -4.806  0.9550E-07  0.1933E+00
     -4.704  0.2270E-08  0.1933E+00
     -4.602  0.3260E-10  0.1933E+00
     -4.501  0.2825E-12  0.1933E+00
     -4.399  0.1479E-14  0.1933E+00
     -4.298  0.0000E+00  0.1933E+00
     -4.196  0.0000E+00  0.1933E+00
     -4.095  0.0000E+00  0.1933E+00
     -3.993  0.0000E+00  0.1933E+00
     -3.892  0.0000E+00  0.1933E+00
     -3.790  0.0000E+00  0.1933E+00
     -3.688  0.0000E+00  0.1933E+00
     -3.587  0.0000E+00  0.1933E+00
     -3.485  0.0000E+00  0.1933E+00
     -3.384  0.0000E+00  0.1933E+00
     -3.282  0.0000E+00  0.1933E+00
     -3.181  0.0000E+00  0.1933E+00
     -3.079  0.0000E+00  0.1933E+00
     -2.978  0.0000E+00  0.1933E+00
     -2.876  0.0000E+00  0.1933E+00
     -2.774  0.0000E+00  0.1933E+00
     -2.673  0.0000E+00  0.1933E+00
     -2.571  0.0000E+00  0.1933E+00
     -2.470  0.0000E+00  0.1933E+00
     -2.368  0.0000E+00  0.1933E+00
     -2.267  0.7288E-17  0.1933E+00
     -2.165  0.2085E-14  0.1933E+00
     -2.064  0.3901E-12  0.1933E+00
     -1.962  0.4405E-10  0.1933E+00
     -1.860  0.3012E-08  0.1933E+00
     -1.759  0.1251E-06  0.1933E+00
     -1.657  0.3169E-05  0.1933E+00
     -1.556  0.4917E-04  0.1933E+00
     -1.454  0.4699E-03  0.1934E+00
     -1.353  0.2784E-02  0.1937E+00
     -1.251  0.1028E-01  0.1947E+00
     -1.150  0.2382E-01  0.1971E+00
     -1.048  0.3475E-01  0.2007E+00
     -0.946  0.3201E-01  0.2039E+00
     -0.845  0.1882E-01  0.2058E+00
     -0.743  0.8319E-02  0.2067E+00
     -0.642  0.7409E-02  0.2074E+00
     -0.540  0.1439E-01  0.2089E+00
     -0.439  0.2368E-01  0.2113E+00
     -0.337  0.3289E-01  0.2146E+00
     -0.236  0.4581E-01  0.2193E+00
     -0.134  0.6353E-01  0.2257E+00
     -0.032  0.8466E-01  0.2343E+00
      0.069  0.1074E+00  0.2452E+00
      0.171  0.1157E+00  0.2570E+00
      0.272  0.9142E-01  0.2663E+00
      0.374  0.4861E-01  0.2712E+00
      0.475  0.1671E-01  0.2729E+00
      0.577  0.3644E-02  0.2733E+00
      0.678  0.4986E-03  0.2733E+00
      0.780  0.4246E-04  0.2733E+00
      0.882  0.2237E-05  0.2733E+00
      0.983  0.7247E-07  0.2733E+00
      1.085  0.1438E-08  0.2733E+00
      1.186  0.1740E-10  0.2733E+00
      1.288  0.1280E-12  0.2733E+00
      1.389  0.5703E-15  0.2733E+00
      1.491  0.0000E+00  0.2733E+00
      1.592  0.0000E+00  0.2733E+00
      1.694  0.0000E+00  0.2733E+00
      1.796  0.0000E+00  0.2733E+00
      1.897  0.0000E+00  0.2733E+00
      1.999  0.0000E+00  0.2733E+00
      2.100  0.0000E+00  0.2733E+00
      2.202  0.0000E+00  0.2733E+00
