   22   22  300    1
  0.1227273E+04  0.3000000E-08  0.3000000E-08  0.3000000E-08  0.0000000E+00
  1.000000000000000E-004
  CAR 
 unknown system                          
     58      4     41
 
  0.2500000E+00  0.2500000E+00  0.2500000E+00  0.2500000E+00
    1      -26.265021   1.000000
    2      -25.489614   1.000000
    3      -23.530877   1.000000
    4      -22.592924   1.000000
    5      -19.676641   1.000000
    6      -18.261388   1.000000
    7      -17.363306   1.000000
    8      -16.006382   1.000000
    9      -14.991347   1.000000
   10      -13.893595   1.000000
   11      -13.023309   1.000000
   12      -12.502514   1.000000
   13      -11.763288   1.000000
   14      -11.375867   1.000000
   15      -11.146563   1.000000
   16      -10.550897   1.000000
   17      -10.411647   1.000000
   18      -10.116038   1.000000
   19      -10.066138   1.000000
   20       -9.894471   1.000000
   21       -9.371824   1.000000
   22       -9.126854   1.000000
   23       -8.951569   1.000000
   24       -8.830020   1.000000
   25       -8.418357   1.000000
   26       -6.544248   1.000000
   27       -6.300640   1.000000
   28       -5.712851   1.000000
   29       -5.567985   1.000000
   30       -1.104165   0.000000
   31       -1.028307   0.000000
   32       -0.471633   0.000000
   33       -0.233772   0.000000
   34       -0.155448   0.000000
   35       -0.064465   0.000000
   36        0.040598   0.000000
   37        0.105014   0.000000
   38        0.132977   0.000000
   39        0.134574   0.000000
   40        0.174022   0.000000
   41        0.201817   0.000000
 
 -0.2500000E+00  0.2500000E+00  0.2500000E+00  0.2500000E+00
    1      -26.265021   1.000000
    2      -25.489613   1.000000
    3      -23.530878   1.000000
    4      -22.592923   1.000000
    5      -19.676644   1.000000
    6      -18.261386   1.000000
    7      -17.363307   1.000000
    8      -16.006379   1.000000
    9      -14.991344   1.000000
   10      -13.893608   1.000000
   11      -13.023308   1.000000
   12      -12.502510   1.000000
   13      -11.763292   1.000000
   14      -11.375864   1.000000
   15      -11.146566   1.000000
   16      -10.550897   1.000000
   17      -10.411649   1.000000
   18      -10.116032   1.000000
   19      -10.066133   1.000000
   20       -9.894474   1.000000
   21       -9.371823   1.000000
   22       -9.126867   1.000000
   23       -8.951558   1.000000
   24       -8.830009   1.000000
   25       -8.418360   1.000000
   26       -6.544261   1.000000
   27       -6.300639   1.000000
   28       -5.712847   1.000000
   29       -5.567980   1.000000
   30       -1.104149   0.000000
   31       -1.028302   0.000000
   32       -0.471626   0.000000
   33       -0.233759   0.000000
   34       -0.155408   0.000000
   35       -0.064707   0.000000
   36        0.042167   0.000000
   37        0.099929   0.000000
   38        0.125697   0.000000
   39        0.142030   0.000000
   40        0.187858   0.000000
   41        0.196115   0.000000
 
  0.2500000E+00 -0.2500000E+00  0.2500000E+00  0.2500000E+00
    1      -26.265021   1.000000
    2      -25.489613   1.000000
    3      -23.530875   1.000000
    4      -22.592923   1.000000
    5      -19.676640   1.000000
    6      -18.261386   1.000000
    7      -17.363307   1.000000
    8      -16.006381   1.000000
    9      -14.991345   1.000000
   10      -13.893605   1.000000
   11      -13.023312   1.000000
   12      -12.502512   1.000000
   13      -11.763289   1.000000
   14      -11.375869   1.000000
   15      -11.146561   1.000000
   16      -10.550899   1.000000
   17      -10.411645   1.000000
   18      -10.116027   1.000000
   19      -10.066136   1.000000
   20       -9.894476   1.000000
   21       -9.371820   1.000000
   22       -9.126850   1.000000
   23       -8.951564   1.000000
   24       -8.830016   1.000000
   25       -8.418357   1.000000
   26       -6.544253   1.000000
   27       -6.300641   1.000000
   28       -5.712856   1.000000
   29       -5.567974   1.000000
   30       -1.104161   0.000000
   31       -1.028299   0.000000
   32       -0.471616   0.000000
   33       -0.233772   0.000000
   34       -0.155479   0.000000
   35       -0.063778   0.000000
   36        0.036456   0.000000
   37        0.108955   0.000000
   38        0.125083   0.000000
   39        0.143292   0.000000
   40        0.183645   0.000000
   41        0.195247   0.000000
 
 -0.2500000E+00 -0.2500000E+00  0.2500000E+00  0.2500000E+00
    1      -26.265020   1.000000
    2      -25.489613   1.000000
    3      -23.530876   1.000000
    4      -22.592924   1.000000
    5      -19.676639   1.000000
    6      -18.261386   1.000000
    7      -17.363306   1.000000
    8      -16.006384   1.000000
    9      -14.991346   1.000000
   10      -13.893596   1.000000
   11      -13.023309   1.000000
   12      -12.502513   1.000000
   13      -11.763292   1.000000
   14      -11.375866   1.000000
   15      -11.146553   1.000000
   16      -10.550900   1.000000
   17      -10.411646   1.000000
   18      -10.116032   1.000000
   19      -10.066137   1.000000
   20       -9.894473   1.000000
   21       -9.371832   1.000000
   22       -9.126867   1.000000
   23       -8.951561   1.000000
   24       -8.830011   1.000000
   25       -8.418358   1.000000
   26       -6.544251   1.000000
   27       -6.300637   1.000000
   28       -5.712841   1.000000
   29       -5.567982   1.000000
   30       -1.104170   0.000000
   31       -1.028305   0.000000
   32       -0.471623   0.000000
   33       -0.233800   0.000000
   34       -0.155404   0.000000
   35       -0.063858   0.000000
   36        0.036177   0.000000
   37        0.111994   0.000000
   38        0.131507   0.000000
   39        0.140132   0.000000
   40        0.167031   0.000000
   41        0.191037   0.000000
