 vasp.5.4.1 24Jun15 (build Jan 13 2020 12:58:22) complex                        
  
 executed on           IFC91_ompi date 2020.02.03  09:59:13
 running on   15 total cores
 each image running on    1 cores
 distrk:  each k-point on    1 cores,    1 groups
 distr:  one band on NCORES_PER_BAND=   1 cores,    1 groups


--------------------------------------------------------------------------------------------------------


 INCAR:
 POTCAR:    PAW_PBE H 15Jun2001                   
 POTCAR:    PAW_PBE C 08Apr2002                   
 POTCAR:    PAW_PBE N 08Apr2002                   
 POTCAR:    PAW_PBE O 08Apr2002                   
 POTCAR:    PAW_PBE H 15Jun2001                   
   VRHFIN =H: ultrasoft test                                                    
   LEXCH  = PE                                                                  
   EATOM  =    12.4884 eV,    0.9179 Ry                                         
                                                                                
   TITEL  = PAW_PBE H 15Jun2001                                                 
   LULTRA =        F    use ultrasoft PP ?                                      
   IUNSCR =        0    unscreen: 0-lin 1-nonlin 2-no                           
   RPACOR =    0.000    partial core radius                                     
   POMASS =    1.000; ZVAL   =    1.000    mass and valenz                      
   RCORE  =    1.100    outmost cutoff radius                                   
   RWIGS  =    0.700; RWIGS  =    0.370    wigner-seitz radius (au A)           
   ENMAX  =  250.000; ENMIN  =  200.000 eV                                      
   RCLOC  =    0.701    cutoff for local pot                                    
   LCOR   =        T    correct aug charges                                     
   LPAW   =        T    paw PP                                                  
   EAUG   =  400.000                                                            
   RMAX   =    1.123    core radius for proj-oper                               
   RAUG   =    1.200    factor for augmentation sphere                          
   RDEP   =    1.112    radius for radial grids                                 
   RDEPT  =    0.926    core radius for aug-charge                              
                                                                                
   Atomic configuration                                                         
    2 entries                                                                   
     n  l   j            E        occ.                                          
     1  0  0.50        -6.4927   1.0000                                         
     2  1  0.50        -3.4015   0.0000                                         
   Description                                                                  
     l       E           TYP  RCUT    TYP  RCUT                                 
     0     -6.4927494     23  1.100                                             
     0      6.8029130     23  1.100                                             
     1     -4.0817478     23  1.100                                             
  local pseudopotential read in
  atomic valenz-charges read in
  non local Contribution for L=           0  read in
    real space projection operators read in
  non local Contribution for L=           0  read in
    real space projection operators read in
  non local Contribution for L=           1  read in
    real space projection operators read in
    PAW grid and wavefunctions read in
 
   number of l-projection  operators is LMAX  =           3
   number of lm-projection operators is LMMAX =           5
 
 POTCAR:    PAW_PBE C 08Apr2002                   
   VRHFIN =C: s2p2                                                              
   LEXCH  = PE                                                                  
   EATOM  =   147.1560 eV,   10.8157 Ry                                         
                                                                                
   TITEL  = PAW_PBE C 08Apr2002                                                 
   LULTRA =        F    use ultrasoft PP ?                                      
   IUNSCR =        1    unscreen: 0-lin 1-nonlin 2-no                           
   RPACOR =    1.200    partial core radius                                     
   POMASS =   12.011; ZVAL   =    4.000    mass and valenz                      
   RCORE  =    1.500    outmost cutoff radius                                   
   RWIGS  =    1.630; RWIGS  =    0.863    wigner-seitz radius (au A)           
   ENMAX  =  400.000; ENMIN  =  300.000 eV                                      
   ICORE  =        2    local potential                                         
   LCOR   =        T    correct aug charges                                     
   LPAW   =        T    paw PP                                                  
   EAUG   =  644.873                                                            
   DEXC   =    0.000                                                            
   RMAX   =    1.529    core radius for proj-oper                               
   RAUG   =    1.300    factor for augmentation sphere                          
   RDEP   =    1.501    radius for radial grids                                 
   RDEPT  =    1.300    core radius for aug-charge                              
                                                                                
   Atomic configuration                                                         
    4 entries                                                                   
     n  l   j            E        occ.                                          
     1  0  0.50      -273.3789   2.0000                                         
     2  0  0.50       -13.7508   2.0000                                         
     2  1  0.50        -5.2854   2.0000                                         
     3  2  1.50        -5.4423   0.0000                                         
   Description                                                                  
     l       E           TYP  RCUT    TYP  RCUT                                 
     0    -13.7508458     23  1.200                                             
     0     -8.2022199     23  1.200                                             
     1     -5.2854383     23  1.500                                             
     1     34.0145650     23  1.500                                             
     2     -5.4423304      7  1.500                                             
  local pseudopotential read in
  partial core-charges read in
  partial kinetic energy density read in
  atomic valenz-charges read in
  non local Contribution for L=           0  read in
    real space projection operators read in
  non local Contribution for L=           0  read in
    real space projection operators read in
  non local Contribution for L=           1  read in
    real space projection operators read in
  non local Contribution for L=           1  read in
    real space projection operators read in
    PAW grid and wavefunctions read in
 
   number of l-projection  operators is LMAX  =           4
   number of lm-projection operators is LMMAX =           8
 
 POTCAR:    PAW_PBE N 08Apr2002                   
   VRHFIN =N: s2p3                                                              
   LEXCH  = PE                                                                  
   EATOM  =   264.5486 eV,   19.4438 Ry                                         
                                                                                
   TITEL  = PAW_PBE N 08Apr2002                                                 
   LULTRA =        F    use ultrasoft PP ?                                      
   IUNSCR =        1    unscreen: 0-lin 1-nonlin 2-no                           
   RPACOR =    1.200    partial core radius                                     
   POMASS =   14.001; ZVAL   =    5.000    mass and valenz                      
   RCORE  =    1.500    outmost cutoff radius                                   
   RWIGS  =    1.400; RWIGS  =    0.741    wigner-seitz radius (au A)           
   ENMAX  =  400.000; ENMIN  =  300.000 eV                                      
   ICORE  =        2    local potential                                         
   LCOR   =        T    correct aug charges                                     
   LPAW   =        T    paw PP                                                  
   EAUG   =  627.112                                                            
   DEXC   =    0.000                                                            
   RMAX   =    1.529    core radius for proj-oper                               
   RAUG   =    1.300    factor for augmentation sphere                          
   RDEP   =    1.514    radius for radial grids                                 
   RDEPT  =    1.338    core radius for aug-charge                              
                                                                                
   Atomic configuration                                                         
    4 entries                                                                   
     n  l   j            E        occ.                                          
     1  0  0.50      -384.7179   2.0000                                         
     2  0  0.50       -18.5828   2.0000                                         
     2  1  0.50        -7.0898   3.0000                                         
     3  2  1.50        -6.8029   0.0000                                         
   Description                                                                  
     l       E           TYP  RCUT    TYP  RCUT                                 
     0    -18.5828119     23  1.200                                             
     0    -13.5018863     23  1.200                                             
     1     -7.0897853     23  1.500                                             
     1      9.5240782     23  1.500                                             
     2     -6.8029130      7  1.500                                             
  local pseudopotential read in
  partial core-charges read in
  partial kinetic energy density read in
  atomic valenz-charges read in
  non local Contribution for L=           0  read in
    real space projection operators read in
  non local Contribution for L=           0  read in
    real space projection operators read in
  non local Contribution for L=           1  read in
    real space projection operators read in
  non local Contribution for L=           1  read in
    real space projection operators read in
    PAW grid and wavefunctions read in
 
   number of l-projection  operators is LMAX  =           4
   number of lm-projection operators is LMMAX =           8
 
 POTCAR:    PAW_PBE O 08Apr2002                   
   VRHFIN =O: s2p4                                                              
   LEXCH  = PE                                                                  
   EATOM  =   432.3788 eV,   31.7789 Ry                                         
                                                                                
   TITEL  = PAW_PBE O 08Apr2002                                                 
   LULTRA =        F    use ultrasoft PP ?                                      
   IUNSCR =        1    unscreen: 0-lin 1-nonlin 2-no                           
   RPACOR =    1.200    partial core radius                                     
   POMASS =   16.000; ZVAL   =    6.000    mass and valenz                      
   RCORE  =    1.520    outmost cutoff radius                                   
   RWIGS  =    1.550; RWIGS  =    0.820    wigner-seitz radius (au A)           
   ENMAX  =  400.000; ENMIN  =  300.000 eV                                      
   ICORE  =        2    local potential                                         
   LCOR   =        T    correct aug charges                                     
   LPAW   =        T    paw PP                                                  
   EAUG   =  605.392                                                            
   DEXC   =    0.000                                                            
   RMAX   =    1.553    core radius for proj-oper                               
   RAUG   =    1.300    factor for augmentation sphere                          
   RDEP   =    1.550    radius for radial grids                                 
   RDEPT  =    1.329    core radius for aug-charge                              
                                                                                
   Atomic configuration                                                         
    4 entries                                                                   
     n  l   j            E        occ.                                          
     1  0  0.50      -514.6923   2.0000                                         
     2  0  0.50       -23.9615   2.0000                                         
     2  1  0.50        -9.0305   4.0000                                         
     3  2  1.50        -9.5241   0.0000                                         
   Description                                                                  
     l       E           TYP  RCUT    TYP  RCUT                                 
     0    -23.9615318     23  1.200                                             
     0     -9.5240782     23  1.200                                             
     1     -9.0304911     23  1.520                                             
     1      8.1634956     23  1.520                                             
     2     -9.5240782      7  1.500                                             
  local pseudopotential read in
  partial core-charges read in
  partial kinetic energy density read in
  kinetic energy density of atom read in
  atomic valenz-charges read in
  non local Contribution for L=           0  read in
    real space projection operators read in
  non local Contribution for L=           0  read in
    real space projection operators read in
  non local Contribution for L=           1  read in
    real space projection operators read in
  non local Contribution for L=           1  read in
    real space projection operators read in
    PAW grid and wavefunctions read in
 
   number of l-projection  operators is LMAX  =           4
   number of lm-projection operators is LMMAX =           8
 
 Optimization of the real space projectors (new method)

 maximal supplied QI-value         = 34.20
 optimisation between [QCUT,QGAM] = [  9.92, 20.18] = [ 27.55,114.04] Ry 
 Optimized for a Real-space Cutoff    1.26 Angstroem

   l    n(q)    QCUT    max X(q) W(low)/X(q) W(high)/X(q)  e(spline) 
   0      8     9.919    19.460    0.50E-03    0.23E-03    0.29E-06
   0      8     9.919    12.209    0.48E-03    0.23E-03    0.28E-06
   1      7     9.919     4.655    0.17E-03    0.75E-03    0.30E-06
 Optimization of the real space projectors (new method)

 maximal supplied QI-value         = 25.13
 optimisation between [QCUT,QGAM] = [ 10.05, 20.36] = [ 28.30,116.06] Ry 
 Optimized for a Real-space Cutoff    1.30 Angstroem

   l    n(q)    QCUT    max X(q) W(low)/X(q) W(high)/X(q)  e(spline) 
   0      8    10.053   115.676    0.49E-03    0.72E-03    0.18E-06
   0      8    10.053    87.132    0.49E-03    0.71E-03    0.18E-06
   1      7    10.053     4.429    0.32E-03    0.31E-03    0.18E-06
   1      7    10.053     2.733    0.23E-03    0.19E-03    0.20E-06
 Optimization of the real space projectors (new method)

 maximal supplied QI-value         = 25.13
 optimisation between [QCUT,QGAM] = [ 10.05, 20.36] = [ 28.30,116.06] Ry 
 Optimized for a Real-space Cutoff    1.65 Angstroem

   l    n(q)    QCUT    max X(q) W(low)/X(q) W(high)/X(q)  e(spline) 
   0     10    10.053    79.467    0.76E-04    0.72E-04    0.56E-06
   0     10    10.053    66.151    0.76E-04    0.72E-04    0.55E-06
   1     10    10.053     8.350    0.25E-03    0.92E-03    0.41E-05
   1     10    10.053     5.531    0.27E-03    0.10E-02    0.45E-05
 Optimization of the real space projectors (new method)

 maximal supplied QI-value         = 24.76
 optimisation between [QCUT,QGAM] = [ 10.15, 20.30] = [ 28.85,115.39] Ry 
 Optimized for a Real-space Cutoff    1.38 Angstroem

   l    n(q)    QCUT    max X(q) W(low)/X(q) W(high)/X(q)  e(spline) 
   0      8    10.150    20.381    0.22E-03    0.32E-03    0.29E-06
   0      8    10.150    15.268    0.23E-03    0.35E-03    0.30E-06
   1      8    10.150     5.964    0.46E-03    0.53E-03    0.21E-06
   1      8    10.150     5.382    0.38E-03    0.45E-03    0.19E-06
  PAW_PBE H 15Jun2001                   :
 energy of atom  1       EATOM=  -12.4884
 kinetic energy error for atom=    0.0098 (will be added to EATOM!!)
  PAW_PBE C 08Apr2002                   :
 energy of atom  2       EATOM= -147.1560
 kinetic energy error for atom=    0.0288 (will be added to EATOM!!)
  PAW_PBE N 08Apr2002                   :
 energy of atom  3       EATOM= -264.5486
 kinetic energy error for atom=    0.0736 (will be added to EATOM!!)
  PAW_PBE O 08Apr2002                   :
 energy of atom  4       EATOM= -432.3788
 kinetic energy error for atom=    0.1156 (will be added to EATOM!!)
 
 
 POSCAR: H12 C6 N2 O2                            
  positions in direct lattice
  velocities in cartesian coordinates
 exchange correlation table for  LEXCH =        8
   RHO(1)=    0.500       N(1)  =     2000
   RHO(2)=  100.500       N(2)  =     4000

 VTST: version 3.2, (02/03/18)

 CHAIN: initializing optimizer
 
 OPT: Using FIRE optimizer
 OPT: FIRE, Init
 OPT: FIRE, MAXMOVE       0.20000
 OPT: FIRE, TIMESTEP      0.10000
 OPT: FIRE, FTIMEMAX      1.00000
 OPT: FIRE, FTIMEINC      1.10000
 OPT: FIRE, FTIMEDEC      0.50000
 OPT: FIRE, FALPHADEC     0.99000
 OPT: FIRE, FALPHA        0.10000
 OPT: FIRE, FNMIN         5
 
 CHAIN: Read ICHAIN            0
 CHAIN: Running the NEB
 NEB:          SPRING     -5.000000
 NEB:          LCLIMB      T
 NEB:     LTANGENTOLD      F
 NEB:           LDNEB      F
 NEB:        LDNEBORG      F
 NEB:        LNEBCELL      F
 NEB:          EFIRST      0.000000
 NEB:           ELAST      0.000000
 
 POSCAR: H12 C6 N2 O2                            
  positions in direct lattice
  No initial velocities read in
 
 POSCAR: H12 C6 N2 O2                            
  positions in direct lattice
  No initial velocities read in
 


--------------------------------------------------------------------------------------------------------


 ion  position               nearest neighbor table
   1  0.374  0.537  0.497-  13 1.09
   2  0.383  0.489  0.464-  13 1.09
   3  0.380  0.484  0.523-  13 1.09
   4  0.446  0.448  0.491-  19 1.02
   5  0.509  0.439  0.540-  15 1.10
   6  0.565  0.433  0.474-  16 1.09
   7  0.522  0.458  0.441-  16 1.10
   8  0.513  0.405  0.466-  16 1.10
   9  0.508  0.550  0.511-  20 1.04
  10  0.608  0.549  0.519-  18 1.09
  11  0.579  0.577  0.475-  18 1.10
  12  0.577  0.599  0.530-  18 1.10
  13  0.390  0.505  0.495-   1 1.09   3 1.09   2 1.09  14 1.51
  14  0.440  0.514  0.500-  21 1.25  19 1.36  13 1.51
  15  0.511  0.462  0.511-   5 1.10  19 1.48  17 1.54  16 1.54
  16  0.529  0.437  0.470-   6 1.09   8 1.10   7 1.10  15 1.54
  17  0.547  0.496  0.524-  22 1.24  20 1.35  15 1.54
  18  0.578  0.569  0.511-  10 1.09  12 1.10  11 1.10  20 1.45
  19  0.464  0.475  0.502-   4 1.02  14 1.36  15 1.48
  20  0.540  0.540  0.519-   9 1.04  17 1.35  18 1.45
  21  0.455  0.552  0.503-  14 1.25
  22  0.584  0.479  0.534-  17 1.24
 
  LATTYP: Found a simple cubic cell.
 ALAT       =    30.0000000000
  
  Lattice vectors:
  
 A1 = (  30.0000000000,   0.0000000000,   0.0000000000)
 A2 = (   0.0000000000,  30.0000000000,   0.0000000000)
 A3 = (   0.0000000000,   0.0000000000,  30.0000000000)


Analysis of symmetry for initial positions (statically):
=====================================================================
 Subroutine PRICEL returns:
 Original cell was already a primitive cell.
 

 Routine SETGRP: Setting up the symmetry group for a 
 simple cubic supercell.


 Subroutine GETGRP returns: Found  1 space group operations
 (whereof  1 operations were pure point group operations)
 out of a pool of 48 trial point group operations.


The static configuration has the point symmetry C_1 .


Analysis of symmetry for dynamics (positions and initial velocities):
=====================================================================
 Subroutine PRICEL returns:
 Original cell was already a primitive cell.
 

 Routine SETGRP: Setting up the symmetry group for a 
 simple cubic supercell.


 Subroutine GETGRP returns: Found  1 space group operations
 (whereof  1 operations were pure point group operations)
 out of a pool of 48 trial point group operations.


The dynamic configuration has the point symmetry C_1 .
 
 
 KPOINTS: Mo2C                                    

Automatic generation of k-mesh.
Space group operators:
 irot       det(A)        alpha          n_x          n_y          n_z        tau_x        tau_y        tau_z
    1     1.000000     0.000000     1.000000     0.000000     0.000000     0.000000     0.000000     0.000000
 
 Subroutine IBZKPT returns following result:
 ===========================================
 
 Found      4 irreducible k-points:
 
 Following reciprocal coordinates:
            Coordinates               Weight
  0.250000  0.250000  0.250000      2.000000
 -0.250000  0.250000  0.250000      2.000000
  0.250000 -0.250000  0.250000      2.000000
 -0.250000 -0.250000  0.250000      2.000000
 
 Following cartesian coordinates:
            Coordinates               Weight
  0.008333  0.008333  0.008333      2.000000
 -0.008333  0.008333  0.008333      2.000000
  0.008333 -0.008333  0.008333      2.000000
 -0.008333 -0.008333  0.008333      2.000000
 


--------------------------------------------------------------------------------------------------------




 Dimension of arrays:
   k-points           NKPTS =      4   k-points in BZ     NKDIM =      4   number of bands    NBANDS=     41
   number of dos      NEDOS =    301   number of ions     NIONS =     22
   non local maximal  LDIM  =      4   non local SUM 2l+1 LMDIM =      8
   total plane-waves  NPLWV = ******
   max r-space proj   IRMAX =   2395   max aug-charges    IRDMAX=   1821
   dimension x,y,z NGX =   150 NGY =  150 NGZ =  150
   dimension x,y,z NGXF=   300 NGYF=  300 NGZF=  300
   support grid    NGXF=   300 NGYF=  300 NGZF=  300
   ions per type =              12   6   2   2
 NGX,Y,Z   is equivalent  to a cutoff of   8.31,  8.31,  8.31 a.u.
 NGXF,Y,Z  is equivalent  to a cutoff of  16.62, 16.62, 16.62 a.u.


 I would recommend the setting:
   dimension x,y,z NGX =   147 NGY =  147 NGZ =  147
 SYSTEM =  unknown system                          
 POSCAR =  H12 C6 N2 O2                            

 Startparameter for this run:
   NWRITE =      2    write-flag & timer
   PREC   = normal    normal or accurate (medium, high low for compatibility)
   ISTART =      0    job   : 0-new  1-cont  2-samecut
   ICHARG =      2    charge: 1-file 2-atom 10-const
   ISPIN  =      1    spin polarized calculation?
   LNONCOLLINEAR =      F non collinear calculations
   LSORBIT =      F    spin-orbit coupling
   INIWAV =      1    electr: 0-lowe 1-rand  2-diag
   LASPH  =      F    aspherical Exc in radial PAW
   METAGGA=      F    non-selfconsistent MetaGGA calc.

 Electronic Relaxation 1
   ENCUT  =  400.0 eV  29.40 Ry    5.42 a.u.  48.92 48.92 48.92*2*pi/ulx,y,z
   ENINI  =  400.0     initial cutoff
   ENAUG  =  644.9 eV  augmentation charge cutoff
   NELM   =    500;   NELMIN=  6; NELMDL= -5     # of ELM steps 
   EDIFF  = 0.1E-03   stopping-criterion for ELM
   LREAL  =      T    real-space projection
   NLSPLINE    = F    spline interpolate recip. space projectors
   LCOMPAT=      F    compatible to vasp.4.4
   GGA_COMPAT  = T    GGA compatible to vasp.4.4-vasp.4.6
   LMAXPAW     = -100 max onsite density
   LMAXMIX     =    2 max onsite mixed and CHGCAR
   VOSKOWN=      0    Vosko Wilk Nusair interpolation
   ROPT   =   -0.00050  -0.00050  -0.00050  -0.00050
 Ionic relaxation
   EDIFFG = -.1E+00   stopping-criterion for IOM
   NSW    =    300    number of steps for IOM
   NBLOCK =      1;   KBLOCK =    300    inner block; outer block 
   IBRION =      3    ionic relax: 0-MD 1-quasi-New 2-CG
   NFREE  =      0    steps in history (QN), initial steepest desc. (CG)
   ISIF   =      2    stress and relaxation
   IWAVPR =     11    prediction:  0-non 1-charg 2-wave 3-comb
   ISYM   =      2    0-nonsym 1-usesym 2-fastsym
   LCORR  =      T    Harris-Foulkes like correction to forces

   POTIM  = 0.0000    time-step for ionic-motion
   TEIN   =    0.0    initial temperature
   TEBEG  =    0.0;   TEEND  =   0.0 temperature during run
   SMASS  =   2.00    Nose mass-parameter (am)
   estimated Nose-frequenzy (Omega)   =  0.24E+10 period in steps =  0.00 mass=   0.137E-25a.u.
   SCALEE = 1.0000    scale energy and forces
   NPACO  =    256;   APACO  = 16.0  distance and # of slots for P.C.
   PSTRESS=    0.0 pullay stress

  Mass of Ions in am
   POMASS =   1.00 12.01 14.00 16.00
  Ionic Valenz
   ZVAL   =   1.00  4.00  5.00  6.00
  Atomic Wigner-Seitz radii
   RWIGS  =  -1.00 -1.00 -1.00 -1.00
  virtual crystal weights 
   VCA    =   1.00  1.00  1.00  1.00
   NELECT =      58.0000    total number of electrons
   NUPDOWN=      -1.0000    fix difference up-down

 DOS related values:
   EMIN   =  10.00;   EMAX   =-10.00  energy-range for DOS
   EFERMI =   0.00
   ISMEAR =     0;   SIGMA  =   0.20  broadening in eV -4-tet -1-fermi 0-gaus

 Electronic relaxation 2 (details)
   IALGO  =     38    algorithm
   LDIAG  =      T    sub-space diagonalisation (order eigenvalues)
   LSUBROT=      F    optimize rotation matrix (better conditioning)
   TURBO    =      0    0=normal 1=particle mesh
   IRESTART =      0    0=no restart 2=restart with 2 vectors
   NREBOOT  =      0    no. of reboots
   NMIN     =      0    reboot dimension
   EREF     =   0.00    reference energy to select bands
   IMIX   =      4    mixing-type and parameters
     AMIX     =   0.40;   BMIX     =  1.00
     AMIX_MAG =   1.60;   BMIX_MAG =  1.00
     AMIN     =   0.10
     WC   =   100.;   INIMIX=   1;  MIXPRE=   1;  MAXMIX= -45

 Intra band minimization:
   WEIMIN = 0.0010     energy-eigenvalue tresh-hold
   EBREAK =  0.61E-06  absolut break condition
   DEPER  =   0.30     relativ break condition  

   TIME   =   0.40     timestep for ELM

  volume/ion in A,a.u.               =    1227.27      8282.05
  Fermi-wavevector in a.u.,A,eV,Ry     =   0.211234  0.399174  0.607087  0.044620
  Thomas-Fermi vector in A             =   0.980021
 
 Write flags
   LWAVE  =      F    write WAVECAR
   LCHARG =      F    write CHGCAR
   LVTOT  =      F    write LOCPOT, total local potential
   LVHAR  =      F    write LOCPOT, Hartree potential only
   LELF   =      F    write electronic localiz. function (ELF)
   LORBIT =      0    0 simple, 1 ext, 2 COOP (PROOUT)


 Dipole corrections
   LMONO  =      F    monopole corrections only (constant potential shift)
   LDIPOL =      F    correct potential (dipole corrections)
   IDIPOL =      0    1-x, 2-y, 3-z, 4-all directions 
   EPSILON=  1.0000000 bulk dielectric constant

 Exchange correlation treatment:
   GGA     =    PE    GGA type
   LEXCH   =     8    internal setting for exchange type
   VOSKOWN=      0    Vosko Wilk Nusair interpolation
   LHFCALC =     F    Hartree Fock is set to
   LHFONE  =     F    Hartree Fock one center treatment
   AEXX    =    0.0000 exact exchange contribution

 Linear response parameters
   LEPSILON=     F    determine dielectric tensor
   LRPA    =     F    only Hartree local field effects (RPA)
   LNABLA  =     F    use nabla operator in PAW spheres
   LVEL    =     F    velocity operator in full k-point grid
   LINTERFAST=   F  fast interpolation
   KINTER  =     0    interpolate to denser k-point grid
   CSHIFT  =0.1000    complex shift for real part using Kramers Kronig
   OMEGAMAX=  -1.0    maximum frequency
   DEG_THRESHOLD= 0.2000000E-02 threshold for treating states as degnerate
   RTIME   =    0.100 relaxation time in fs

 Orbital magnetization related:
   ORBITALMAG=     F  switch on orbital magnetization
   LCHIMAG   =     F  perturbation theory with respect to B field
   DQ        =  0.001000  dq finite difference perturbation B field



--------------------------------------------------------------------------------------------------------


 quickmin algorithm: (dynamic with friction)
 charge density and potential will be updated during run
 non-spin polarized calculation
 Variant of blocked Davidson
 Davidson routine will perform the subspace rotation
 perform sub-space diagonalisation
    after iterative eigenvector-optimisation
 modified Broyden-mixing scheme, WC =      100.0
 initial mixing is a Kerker type mixing with AMIX =  0.4000 and BMIX =      1.0000
 Hartree-type preconditioning will be used
 using additional bands           12
 real space projection scheme for non local part
 use partial core corrections
 calculate Harris-corrections to forces 
   (improved forces if not selfconsistent)
 use gradient corrections 
 use of overlap-Matrix (Vanderbilt PP)
 Gauss-broadening in eV      SIGMA  =   0.20


--------------------------------------------------------------------------------------------------------


  energy-cutoff  :      400.00
  volume of cell :    27000.00
      direct lattice vectors                 reciprocal lattice vectors
    30.000000000  0.000000000  0.000000000     0.033333333  0.000000000  0.000000000
     0.000000000 30.000000000  0.000000000     0.000000000  0.033333333  0.000000000
     0.000000000  0.000000000 30.000000000     0.000000000  0.000000000  0.033333333

  length of vectors
    30.000000000 30.000000000 30.000000000     0.033333333  0.033333333  0.033333333


 
 k-points in units of 2pi/SCALE and weight: Mo2C                                    
   0.00833333  0.00833333  0.00833333       0.250
  -0.00833333  0.00833333  0.00833333       0.250
   0.00833333 -0.00833333  0.00833333       0.250
  -0.00833333 -0.00833333  0.00833333       0.250
 
 k-points in reciprocal lattice and weights: Mo2C                                    
   0.25000000  0.25000000  0.25000000       0.250
  -0.25000000  0.25000000  0.25000000       0.250
   0.25000000 -0.25000000  0.25000000       0.250
  -0.25000000 -0.25000000  0.25000000       0.250
 
 position of ions in fractional coordinates (direct lattice) 
   0.37363983  0.53734892  0.49738609
   0.38257341  0.48874347  0.46397062
   0.37985998  0.48394245  0.52288899
   0.44624290  0.44824857  0.49143534
   0.50861781  0.43903640  0.54000798
   0.56477170  0.43348008  0.47389935
   0.52192549  0.45774119  0.44053389
   0.51347014  0.40459965  0.46614357
   0.50778731  0.55044947  0.51089755
   0.60783074  0.54885018  0.51865799
   0.57930835  0.57737554  0.47502477
   0.57737441  0.59927354  0.53021829
   0.39049981  0.50537461  0.49541942
   0.44002108  0.51367748  0.49979862
   0.51070596  0.46213104  0.51141185
   0.52888687  0.43746730  0.47013111
   0.54706710  0.49598191  0.52395310
   0.57835381  0.56856394  0.51051309
   0.46418867  0.47526820  0.50155135
   0.54009424  0.53996513  0.51854782
   0.45476467  0.55236034  0.50275820
   0.58350442  0.47922692  0.53425147
 
 position of ions in cartesian coordinates  (Angst):
  11.20919476 16.12046759 14.92158283
  11.47720223 14.66230398 13.91911855
  11.39579938 14.51827365 15.68666963
  13.38728709 13.44745719 14.74306019
  15.25853425 13.17109210 16.20023930
  16.94315100 13.00440254 14.21698050
  15.65776476 13.73223583 13.21601655
  15.40410434 12.13798952 13.98430725
  15.23361922 16.51348395 15.32692637
  18.23492227 16.46550546 15.55973967
  17.37925043 17.32126618 14.25074323
  17.32123221 17.97820632 15.90654871
  11.71499426 15.16123828 14.86258265
  13.20063243 15.41032428 14.99395872
  15.32117882 13.86393114 15.34235558
  15.86660605 13.12401907 14.10393335
  16.41201301 14.87945736 15.71859291
  17.35061442 17.05691810 15.31539258
  13.92566005 14.25804585 15.04654048
  16.20282725 16.19895400 15.55643467
  13.64294016 16.57081015 15.08274587
  17.50513264 14.37680765 16.02754412
 


--------------------------------------------------------------------------------------------------------


 k-point  1 :   0.2500 0.2500 0.2500  plane waves:  490454
 k-point  2 :  -0.2500 0.2500 0.2500  plane waves:  490454
 k-point  3 :   0.2500-0.2500 0.2500  plane waves:  490454
 k-point  4 :  -0.2500-0.2500 0.2500  plane waves:  490454

 maximum and minimum number of plane-waves per node :    490454   490454

 maximum number of plane-waves:    490454
 maximum index in each direction: 
   IXMAX=   49   IYMAX=   49   IZMAX=   48
   IXMIN=  -49   IYMIN=  -49   IZMIN=  -49

 WARNING: aliasing errors must be expected set NGX to 198 to avoid them
 WARNING: aliasing errors must be expected set NGY to 198 to avoid them
 WARNING: aliasing errors must be expected set NGZ to 196 to avoid them
 aliasing errors are usually negligible using standard VASP settings
 and one can safely disregard these warnings

 serial   3D FFT for wavefunctions
 parallel 3D FFT for charge:
    minimum data exchange during FFTs selected (reduces bandwidth)


 total amount of memory used by VASP on root node  4333707. kBytes
========================================================================

   base      :      30000. kBytes
   nonlr-proj:       2402. kBytes
   fftplans  :     924480. kBytes
   grid      :    2089440. kBytes
   one-center:         67. kBytes
   wavefun   :    1287318. kBytes
 
     INWAV:  cpu time    0.0010: real time    0.0002
 Broyden mixing: mesh for mixing (old mesh)
   NGX = 97   NGY = 97   NGZ = 97
  (NGX  =300   NGY  =300   NGZ  =300)
  gives a total of 912673 points

 initial charge density was supplied:
 charge density of overlapping atoms calculated
 number of electron      58.0000000 magnetization 
 keeping initial charge density in first step


--------------------------------------------------------------------------------------------------------


 Maximum index for non-local projection operator         2278
 Maximum index for augmentation-charges         1575 (set IRDMAX)


--------------------------------------------------------------------------------------------------------


 First call to EWALD:  gamma=   0.059
 Maximum number of real-space cells 3x 3x 3
 Maximum number of reciprocal cells 3x 3x 3

 FEWALD executed in parallel
    FEWALD:  cpu time    0.0050: real time    0.0047


----------------------------------------- Iteration    1(   1)  ---------------------------------------


    POTLOK:  cpu time   19.3411: real time   19.3257
    SETDIJ:  cpu time    0.0280: real time    0.0282
     EDDAV:  cpu time  258.5987: real time  258.3834
       DOS:  cpu time    0.0000: real time    0.0009
    --------------------------------------------
      LOOP:  cpu time  277.9717: real time  277.7421

 eigenvalue-minimisations  :   408
 total energy-change (2. order) : 0.5818314E+03  (-0.8283908E+03)
 number of electron      58.0000000 magnetization 
 augmentation part       58.0000000 magnetization 

 Free energy of the ion-electron system (eV)
  ---------------------------------------------------
  alpha Z        PSCENC =         0.51957394
  Ewald energy   TEWEN  =      6111.31672696
  -Hartree energ DENC   =     -7851.50167478
  -exchange      EXHF   =         0.00000000
  -V(xc)+E(xc)   XCENC  =       202.33687953
  PAW double counting   =      1779.70502452    -1789.20730229
  entropy T*S    EENTRO =        -0.79461043
  eigenvalues    EBANDS =      -296.52657477
  atomic energy  EATOM  =      2425.98333211
  Solvation  Ediel_sol  =         0.00000000
  ---------------------------------------------------
  free energy    TOTEN  =       581.83137478 eV

  energy without entropy =      582.62598521  energy(sigma->0) =      582.22868000


--------------------------------------------------------------------------------------------------------




----------------------------------------- Iteration    1(   2)  ---------------------------------------


     EDDAV:  cpu time  332.8954: real time  332.6194
       DOS:  cpu time    0.0000: real time    0.0008
    --------------------------------------------
      LOOP:  cpu time  332.8974: real time  332.6227

 eigenvalue-minimisations  :   557
 total energy-change (2. order) :-0.3270322E+03  (-0.3160764E+03)
 number of electron      58.0000000 magnetization 
 augmentation part       58.0000000 magnetization 

 Free energy of the ion-electron system (eV)
  ---------------------------------------------------
  alpha Z        PSCENC =         0.51957394
  Ewald energy   TEWEN  =      6111.31672696
  -Hartree energ DENC   =     -7851.50167478
  -exchange      EXHF   =         0.00000000
  -V(xc)+E(xc)   XCENC  =       202.33687953
  PAW double counting   =      1779.70502452    -1789.20730229
  entropy T*S    EENTRO =        -0.53234483
  eigenvalues    EBANDS =      -623.82107134
  atomic energy  EATOM  =      2425.98333211
  Solvation  Ediel_sol  =         0.00000000
  ---------------------------------------------------
  free energy    TOTEN  =       254.79914381 eV

  energy without entropy =      255.33148865  energy(sigma->0) =      255.06531623


--------------------------------------------------------------------------------------------------------




----------------------------------------- Iteration    1(   3)  ---------------------------------------


     EDDAV:  cpu time  306.1015: real time  305.8463
       DOS:  cpu time    0.0010: real time    0.0006
    --------------------------------------------
      LOOP:  cpu time  306.1035: real time  306.0132

 eigenvalue-minimisations  :   504
 total energy-change (2. order) :-0.3029973E+03  (-0.2939698E+03)
 number of electron      58.0000000 magnetization 
 augmentation part       58.0000000 magnetization 

 Free energy of the ion-electron system (eV)
  ---------------------------------------------------
  alpha Z        PSCENC =         0.51957394
  Ewald energy   TEWEN  =      6111.31672696
  -Hartree energ DENC   =     -7851.50167478
  -exchange      EXHF   =         0.00000000
  -V(xc)+E(xc)   XCENC  =       202.33687953
  PAW double counting   =      1779.70502452    -1789.20730229
  entropy T*S    EENTRO =        -0.00205501
  eigenvalues    EBANDS =      -927.34861155
  atomic energy  EATOM  =      2425.98333211
  Solvation  Ediel_sol  =         0.00000000
  ---------------------------------------------------
  free energy    TOTEN  =       -48.19810657 eV

  energy without entropy =      -48.19605156  energy(sigma->0) =      -48.19707907


--------------------------------------------------------------------------------------------------------




----------------------------------------- Iteration    1(   4)  ---------------------------------------


     EDDAV:  cpu time  251.1128: real time  250.9046
       DOS:  cpu time    0.0000: real time    0.0005
    --------------------------------------------
      LOOP:  cpu time  251.1138: real time  250.9077

 eigenvalue-minimisations  :   396
 total energy-change (2. order) :-0.8807401E+02  (-0.8793461E+02)
 number of electron      58.0000000 magnetization 
 augmentation part       58.0000000 magnetization 

 Free energy of the ion-electron system (eV)
  ---------------------------------------------------
  alpha Z        PSCENC =         0.51957394
  Ewald energy   TEWEN  =      6111.31672696
  -Hartree energ DENC   =     -7851.50167478
  -exchange      EXHF   =         0.00000000
  -V(xc)+E(xc)   XCENC  =       202.33687953
  PAW double counting   =      1779.70502452    -1789.20730229
  entropy T*S    EENTRO =         0.00000000
  eigenvalues    EBANDS =     -1015.42468009
  atomic energy  EATOM  =      2425.98333211
  Solvation  Ediel_sol  =         0.00000000
  ---------------------------------------------------
  free energy    TOTEN  =      -136.27212010 eV

  energy without entropy =     -136.27212010  energy(sigma->0) =     -136.27212010


--------------------------------------------------------------------------------------------------------




----------------------------------------- Iteration    1(   5)  ---------------------------------------


     EDDAV:  cpu time  269.5410: real time  269.3166
       DOS:  cpu time    0.0000: real time    0.0005
    CHARGE:  cpu time   16.3705: real time   16.3565
    MIXING:  cpu time    0.5939: real time    0.5932
    --------------------------------------------
      LOOP:  cpu time  286.5064: real time  286.2696

 eigenvalue-minimisations  :   432
 total energy-change (2. order) :-0.5222923E+01  (-0.5205322E+01)
 number of electron      57.9999983 magnetization 
 augmentation part        2.9704840 magnetization 

 Broyden mixing:
  rms(total) = 0.19621E+01    rms(broyden)= 0.19599E+01
  rms(prec ) = 0.20374E+01
  weight for this iteration     100.00

 Free energy of the ion-electron system (eV)
  ---------------------------------------------------
  alpha Z        PSCENC =         0.51957394
  Ewald energy   TEWEN  =      6111.31672696
  -Hartree energ DENC   =     -7851.50167478
  -exchange      EXHF   =         0.00000000
  -V(xc)+E(xc)   XCENC  =       202.33687953
  PAW double counting   =      1779.70502452    -1789.20730229
  entropy T*S    EENTRO =         0.00000000
  eigenvalues    EBANDS =     -1020.64760343
  atomic energy  EATOM  =      2425.98333211
  Solvation  Ediel_sol  =         0.00000000
  ---------------------------------------------------
  free energy    TOTEN  =      -141.49504344 eV

  energy without entropy =     -141.49504344  energy(sigma->0) =     -141.49504344


--------------------------------------------------------------------------------------------------------




----------------------------------------- Iteration    1(   6)  ---------------------------------------


    POTLOK:  cpu time   18.2382: real time   18.2230
    SETDIJ:  cpu time    0.0290: real time    0.0283
     EDDAV:  cpu time  253.5275: real time  253.3170
       DOS:  cpu time    0.0000: real time    0.0005
    CHARGE:  cpu time   16.2545: real time   16.2408
    MIXING:  cpu time    0.6209: real time    0.6193
    --------------------------------------------
      LOOP:  cpu time  288.6711: real time  288.4397

 eigenvalue-minimisations  :   397
 total energy-change (2. order) : 0.1019763E+02  (-0.2414389E+01)
 number of electron      57.9999984 magnetization 
 augmentation part        2.6386058 magnetization 

 Broyden mixing:
  rms(total) = 0.99721E+00    rms(broyden)= 0.99677E+00
  rms(prec ) = 0.10257E+01
  weight for this iteration     100.00

 eigenvalues of (default mixing * dielectric matrix)
  average eigenvalue GAMMA=   1.2958
  1.2958

 Free energy of the ion-electron system (eV)
  ---------------------------------------------------
  alpha Z        PSCENC =         0.51957394
  Ewald energy   TEWEN  =      6111.31672696
  -Hartree energ DENC   =     -7966.06237391
  -exchange      EXHF   =         0.00000000
  -V(xc)+E(xc)   XCENC  =       208.39626408
  PAW double counting   =      2777.69707400    -2788.56026155
  entropy T*S    EENTRO =         0.00000000
  eigenvalues    EBANDS =      -900.58775120
  atomic energy  EATOM  =      2425.98333211
  Solvation  Ediel_sol  =         0.00000000
  ---------------------------------------------------
  free energy    TOTEN  =      -131.29741557 eV

  energy without entropy =     -131.29741557  energy(sigma->0) =     -131.29741557


--------------------------------------------------------------------------------------------------------




----------------------------------------- Iteration    1(   7)  ---------------------------------------


    POTLOK:  cpu time   18.1562: real time   18.1412
    SETDIJ:  cpu time    0.0280: real time    0.0283
     EDDAV:  cpu time  275.5601: real time  275.3299
       DOS:  cpu time    0.0000: real time    0.0005
    CHARGE:  cpu time   16.3705: real time   16.3569
    MIXING:  cpu time    0.6469: real time    0.6469
    --------------------------------------------
      LOOP:  cpu time  310.7628: real time  310.5072

 eigenvalue-minimisations  :   440
 total energy-change (2. order) : 0.1796066E+01  (-0.4686191E+00)
 number of electron      57.9999985 magnetization 
 augmentation part        2.6196898 magnetization 

 Broyden mixing:
  rms(total) = 0.51286E+00    rms(broyden)= 0.51275E+00
  rms(prec ) = 0.52538E+00
  weight for this iteration     100.00

 eigenvalues of (default mixing * dielectric matrix)
  average eigenvalue GAMMA=   1.5880
  1.1316  2.0443

 Free energy of the ion-electron system (eV)
  ---------------------------------------------------
  alpha Z        PSCENC =         0.51957394
  Ewald energy   TEWEN  =      6111.31672696
  -Hartree energ DENC   =     -8029.78939415
  -exchange      EXHF   =         0.00000000
  -V(xc)+E(xc)   XCENC  =       211.53524971
  PAW double counting   =      3767.84864538    -3779.00092243
  entropy T*S    EENTRO =         0.00000000
  eigenvalues    EBANDS =      -837.91456084
  atomic energy  EATOM  =      2425.98333211
  Solvation  Ediel_sol  =         0.00000000
  ---------------------------------------------------
  free energy    TOTEN  =      -129.50134934 eV

  energy without entropy =     -129.50134934  energy(sigma->0) =     -129.50134934


--------------------------------------------------------------------------------------------------------




----------------------------------------- Iteration    1(   8)  ---------------------------------------


    POTLOK:  cpu time   18.2222: real time   18.2063
    SETDIJ:  cpu time    0.0280: real time    0.0282
     EDDAV:  cpu time  279.8395: real time  279.6073
       DOS:  cpu time    0.0000: real time    0.0005
    CHARGE:  cpu time   16.3215: real time   16.3080
    MIXING:  cpu time    0.6849: real time    0.6841
    --------------------------------------------
      LOOP:  cpu time  315.0981: real time  314.8415

 eigenvalue-minimisations  :   448
 total energy-change (2. order) : 0.4897723E+00  (-0.8440396E-01)
 number of electron      57.9999985 magnetization 
 augmentation part        2.5959991 magnetization 

 Broyden mixing:
  rms(total) = 0.14661E+00    rms(broyden)= 0.14653E+00
  rms(prec ) = 0.15446E+00
  weight for this iteration     100.00

 eigenvalues of (default mixing * dielectric matrix)
  average eigenvalue GAMMA=   1.5461
  2.3792  0.9738  1.2853

 Free energy of the ion-electron system (eV)
  ---------------------------------------------------
  alpha Z        PSCENC =         0.51957394
  Ewald energy   TEWEN  =      6111.31672696
  -Hartree energ DENC   =     -8070.18974621
  -exchange      EXHF   =         0.00000000
  -V(xc)+E(xc)   XCENC  =       213.63125762
  PAW double counting   =      4594.26031688    -4605.58393503
  entropy T*S    EENTRO =         0.00000000
  eigenvalues    EBANDS =      -798.94910331
  atomic energy  EATOM  =      2425.98333211
  Solvation  Ediel_sol  =         0.00000000
  ---------------------------------------------------
  free energy    TOTEN  =      -129.01157704 eV

  energy without entropy =     -129.01157704  energy(sigma->0) =     -129.01157704


--------------------------------------------------------------------------------------------------------




----------------------------------------- Iteration    1(   9)  ---------------------------------------


    POTLOK:  cpu time   18.3002: real time   18.2845
    SETDIJ:  cpu time    0.0280: real time    0.0283
     EDDAV:  cpu time  288.8971: real time  288.6566
       DOS:  cpu time    0.0000: real time    0.0005
    CHARGE:  cpu time   16.3445: real time   16.3311
    MIXING:  cpu time    0.7349: real time    0.7340
    --------------------------------------------
      LOOP:  cpu time  324.3067: real time  324.0384

 eigenvalue-minimisations  :   464
 total energy-change (2. order) : 0.6673591E-01  (-0.9488752E-02)
 number of electron      57.9999985 magnetization 
 augmentation part        2.5869136 magnetization 

 Broyden mixing:
  rms(total) = 0.55948E-01    rms(broyden)= 0.55918E-01
  rms(prec ) = 0.64617E-01
  weight for this iteration     100.00

 eigenvalues of (default mixing * dielectric matrix)
  average eigenvalue GAMMA=   1.5333
  1.0640  1.0640  2.1758  1.8293

 Free energy of the ion-electron system (eV)
  ---------------------------------------------------
  alpha Z        PSCENC =         0.51957394
  Ewald energy   TEWEN  =      6111.31672696
  -Hartree energ DENC   =     -8083.60676762
  -exchange      EXHF   =         0.00000000
  -V(xc)+E(xc)   XCENC  =       214.17366131
  PAW double counting   =      4816.10556717    -4827.40540417
  entropy T*S    EENTRO =         0.00000000
  eigenvalues    EBANDS =      -786.03153083
  atomic energy  EATOM  =      2425.98333211
  Solvation  Ediel_sol  =         0.00000000
  ---------------------------------------------------
  free energy    TOTEN  =      -128.94484113 eV

  energy without entropy =     -128.94484113  energy(sigma->0) =     -128.94484113


--------------------------------------------------------------------------------------------------------




----------------------------------------- Iteration    1(  10)  ---------------------------------------


    POTLOK:  cpu time   18.3922: real time   18.3773
    SETDIJ:  cpu time    0.0280: real time    0.0283
     EDDAV:  cpu time  269.6630: real time  269.4372
       DOS:  cpu time    0.0000: real time    0.0005
    CHARGE:  cpu time   16.4045: real time   16.3910
    MIXING:  cpu time    0.7649: real time    0.7639
    --------------------------------------------
      LOOP:  cpu time  305.2536: real time  305.0018

 eigenvalue-minimisations  :   428
 total energy-change (2. order) : 0.1264726E-01  (-0.2277255E-02)
 number of electron      57.9999985 magnetization 
 augmentation part        2.5923715 magnetization 

 Broyden mixing:
  rms(total) = 0.25415E-01    rms(broyden)= 0.25393E-01
  rms(prec ) = 0.35414E-01
  weight for this iteration     100.00

 eigenvalues of (default mixing * dielectric matrix)
  average eigenvalue GAMMA=   1.5010
  2.1738  2.1738  1.0013  1.0013  1.1545

 Free energy of the ion-electron system (eV)
  ---------------------------------------------------
  alpha Z        PSCENC =         0.51957394
  Ewald energy   TEWEN  =      6111.31672696
  -Hartree energ DENC   =     -8088.94704192
  -exchange      EXHF   =         0.00000000
  -V(xc)+E(xc)   XCENC  =       214.19976391
  PAW double counting   =      4811.12529594    -4822.37468553
  entropy T*S    EENTRO =         0.00000000
  eigenvalues    EBANDS =      -780.75515929
  atomic energy  EATOM  =      2425.98333211
  Solvation  Ediel_sol  =         0.00000000
  ---------------------------------------------------
  free energy    TOTEN  =      -128.93219387 eV

  energy without entropy =     -128.93219387  energy(sigma->0) =     -128.93219387


--------------------------------------------------------------------------------------------------------




----------------------------------------- Iteration    1(  11)  ---------------------------------------


    POTLOK:  cpu time   18.2522: real time   18.2371
    SETDIJ:  cpu time    0.0280: real time    0.0283
     EDDAV:  cpu time  271.4377: real time  271.2124
       DOS:  cpu time    0.0000: real time    0.0005
    CHARGE:  cpu time   16.3045: real time   16.2906
    MIXING:  cpu time    0.7939: real time    0.7929
    --------------------------------------------
      LOOP:  cpu time  306.8184: real time  306.5654

 eigenvalue-minimisations  :   432
 total energy-change (2. order) : 0.5576453E-02  (-0.7771330E-03)
 number of electron      57.9999985 magnetization 
 augmentation part        2.5883330 magnetization 

 Broyden mixing:
  rms(total) = 0.15945E-01    rms(broyden)= 0.15936E-01
  rms(prec ) = 0.24649E-01
  weight for this iteration     100.00

 eigenvalues of (default mixing * dielectric matrix)
  average eigenvalue GAMMA=   1.5516
  2.4849  2.4849  0.9487  0.9487  1.2211  1.2211

 Free energy of the ion-electron system (eV)
  ---------------------------------------------------
  alpha Z        PSCENC =         0.51957394
  Ewald energy   TEWEN  =      6111.31672696
  -Hartree energ DENC   =     -8094.84326567
  -exchange      EXHF   =         0.00000000
  -V(xc)+E(xc)   XCENC  =       214.30702104
  PAW double counting   =      4813.64297427    -4824.89212089
  entropy T*S    EENTRO =         0.00000000
  eigenvalues    EBANDS =      -774.96085918
  atomic energy  EATOM  =      2425.98333211
  Solvation  Ediel_sol  =         0.00000000
  ---------------------------------------------------
  free energy    TOTEN  =      -128.92661742 eV

  energy without entropy =     -128.92661742  energy(sigma->0) =     -128.92661742


--------------------------------------------------------------------------------------------------------




----------------------------------------- Iteration    1(  12)  ---------------------------------------


    POTLOK:  cpu time   18.3012: real time   18.2869
    SETDIJ:  cpu time    0.0290: real time    0.0283
     EDDAV:  cpu time  265.5426: real time  265.3210
       DOS:  cpu time    0.0000: real time    0.0005
    CHARGE:  cpu time   16.4245: real time   16.4107
    MIXING:  cpu time    0.8559: real time    0.8556
    --------------------------------------------
      LOOP:  cpu time  301.1542: real time  300.9062

 eigenvalue-minimisations  :   420
 total energy-change (2. order) :-0.8264340E-04  (-0.5326585E-03)
 number of electron      57.9999985 magnetization 
 augmentation part        2.5879293 magnetization 

 Broyden mixing:
  rms(total) = 0.97476E-02    rms(broyden)= 0.97433E-02
  rms(prec ) = 0.15939E-01
  weight for this iteration     100.00

 eigenvalues of (default mixing * dielectric matrix)
  average eigenvalue GAMMA=   1.6024
  2.7393  2.7393  1.3277  1.2347  1.2347  0.9704  0.9704

 Free energy of the ion-electron system (eV)
  ---------------------------------------------------
  alpha Z        PSCENC =         0.51957394
  Ewald energy   TEWEN  =      6111.31672696
  -Hartree energ DENC   =     -8101.27247653
  -exchange      EXHF   =         0.00000000
  -V(xc)+E(xc)   XCENC  =       214.39022650
  PAW double counting   =      4809.20805081    -4820.44766864
  entropy T*S    EENTRO =         0.00000000
  eigenvalues    EBANDS =      -768.62446522
  atomic energy  EATOM  =      2425.98333211
  Solvation  Ediel_sol  =         0.00000000
  ---------------------------------------------------
  free energy    TOTEN  =      -128.92670006 eV

  energy without entropy =     -128.92670006  energy(sigma->0) =     -128.92670006


--------------------------------------------------------------------------------------------------------




----------------------------------------- Iteration    1(  13)  ---------------------------------------


    POTLOK:  cpu time   18.2712: real time   18.2559
    SETDIJ:  cpu time    0.0280: real time    0.0283
     EDDAV:  cpu time  279.6825: real time  279.4489
       DOS:  cpu time    0.0000: real time    0.0005
    CHARGE:  cpu time   16.3815: real time   16.3683
    MIXING:  cpu time    0.8899: real time    0.8893
    --------------------------------------------
      LOOP:  cpu time  315.2551: real time  314.9943

 eigenvalue-minimisations  :   448
 total energy-change (2. order) :-0.6241131E-02  (-0.4137209E-03)
 number of electron      57.9999985 magnetization 
 augmentation part        2.5867513 magnetization 

 Broyden mixing:
  rms(total) = 0.58046E-02    rms(broyden)= 0.57982E-02
  rms(prec ) = 0.95552E-02
  weight for this iteration     100.00

 eigenvalues of (default mixing * dielectric matrix)
  average eigenvalue GAMMA=   1.7177
  4.1131  2.4891  1.5568  1.5568  1.0299  1.0299  0.9829  0.9829

 Free energy of the ion-electron system (eV)
  ---------------------------------------------------
  alpha Z        PSCENC =         0.51957394
  Ewald energy   TEWEN  =      6111.31672696
  -Hartree energ DENC   =     -8106.75753963
  -exchange      EXHF   =         0.00000000
  -V(xc)+E(xc)   XCENC  =       214.45254803
  PAW double counting   =      4802.64424986    -4813.88294940
  entropy T*S    EENTRO =         0.00000000
  eigenvalues    EBANDS =      -763.20888306
  atomic energy  EATOM  =      2425.98333211
  Solvation  Ediel_sol  =         0.00000000
  ---------------------------------------------------
  free energy    TOTEN  =      -128.93294119 eV

  energy without entropy =     -128.93294119  energy(sigma->0) =     -128.93294119


--------------------------------------------------------------------------------------------------------




----------------------------------------- Iteration    1(  14)  ---------------------------------------


    POTLOK:  cpu time   18.2762: real time   18.2616
    SETDIJ:  cpu time    0.0280: real time    0.0283
     EDDAV:  cpu time  270.4419: real time  270.2158
       DOS:  cpu time    0.0000: real time    0.0005
    CHARGE:  cpu time   16.3955: real time   16.3823
    MIXING:  cpu time    0.9289: real time    0.9282
    --------------------------------------------
      LOOP:  cpu time  306.0725: real time  305.8199

 eigenvalue-minimisations  :   430
 total energy-change (2. order) :-0.6988324E-02  (-0.1928769E-03)
 number of electron      57.9999985 magnetization 
 augmentation part        2.5859596 magnetization 

 Broyden mixing:
  rms(total) = 0.37505E-02    rms(broyden)= 0.37461E-02
  rms(prec ) = 0.57764E-02
  weight for this iteration     100.00

 eigenvalues of (default mixing * dielectric matrix)
  average eigenvalue GAMMA=   1.8262
  5.0492  2.3812  2.2776  1.2421  1.2421  1.2351  1.0660  0.9712  0.9712

 Free energy of the ion-electron system (eV)
  ---------------------------------------------------
  alpha Z        PSCENC =         0.51957394
  Ewald energy   TEWEN  =      6111.31672696
  -Hartree energ DENC   =     -8110.34512085
  -exchange      EXHF   =         0.00000000
  -V(xc)+E(xc)   XCENC  =       214.47830093
  PAW double counting   =      4797.96777654    -4809.20382434
  entropy T*S    EENTRO =         0.00000000
  eigenvalues    EBANDS =      -759.65669481
  atomic energy  EATOM  =      2425.98333211
  Solvation  Ediel_sol  =         0.00000000
  ---------------------------------------------------
  free energy    TOTEN  =      -128.93992952 eV

  energy without entropy =     -128.93992952  energy(sigma->0) =     -128.93992952


--------------------------------------------------------------------------------------------------------




----------------------------------------- Iteration    1(  15)  ---------------------------------------


    POTLOK:  cpu time   18.3212: real time   18.3055
    SETDIJ:  cpu time    0.0280: real time    0.0282
     EDDAV:  cpu time  244.8938: real time  244.6896
       DOS:  cpu time    0.0010: real time    0.0005
    CHARGE:  cpu time   16.3095: real time   16.2969
    MIXING:  cpu time    1.0018: real time    1.0012
    --------------------------------------------
      LOOP:  cpu time  280.5573: real time  280.3253

 eigenvalue-minimisations  :   380
 total energy-change (2. order) :-0.7663559E-02  (-0.8314217E-04)
 number of electron      57.9999985 magnetization 
 augmentation part        2.5858620 magnetization 

 Broyden mixing:
  rms(total) = 0.23880E-02    rms(broyden)= 0.23863E-02
  rms(prec ) = 0.35213E-02
  weight for this iteration     100.00

 eigenvalues of (default mixing * dielectric matrix)
  average eigenvalue GAMMA=   1.9029
  5.6279  2.7795  2.3371  1.6042  1.6042  1.0069  1.0069  0.9351  1.0634  1.0634

 Free energy of the ion-electron system (eV)
  ---------------------------------------------------
  alpha Z        PSCENC =         0.51957394
  Ewald energy   TEWEN  =      6111.31672696
  -Hartree energ DENC   =     -8112.01894536
  -exchange      EXHF   =         0.00000000
  -V(xc)+E(xc)   XCENC  =       214.47729129
  PAW double counting   =      4797.43455569    -4808.66928333
  entropy T*S    EENTRO =         0.00000000
  eigenvalues    EBANDS =      -757.99084437
  atomic energy  EATOM  =      2425.98333211
  Solvation  Ediel_sol  =         0.00000000
  ---------------------------------------------------
  free energy    TOTEN  =      -128.94759307 eV

  energy without entropy =     -128.94759307  energy(sigma->0) =     -128.94759307


--------------------------------------------------------------------------------------------------------




----------------------------------------- Iteration    1(  16)  ---------------------------------------


    POTLOK:  cpu time   18.3602: real time   18.3459
    SETDIJ:  cpu time    0.0280: real time    0.0283
     EDDAV:  cpu time  247.5914: real time  247.3843
       DOS:  cpu time    0.0000: real time    0.0005
    CHARGE:  cpu time   16.3535: real time   16.3404
    MIXING:  cpu time    1.1028: real time    1.1021
    --------------------------------------------
      LOOP:  cpu time  283.4379: real time  283.2045

 eigenvalue-minimisations  :   384
 total energy-change (2. order) :-0.5658028E-02  (-0.4188914E-04)
 number of electron      57.9999985 magnetization 
 augmentation part        2.5858454 magnetization 

 Broyden mixing:
  rms(total) = 0.13309E-02    rms(broyden)= 0.13304E-02
  rms(prec ) = 0.20171E-02
  weight for this iteration     100.00

 eigenvalues of (default mixing * dielectric matrix)
  average eigenvalue GAMMA=   1.9956
  6.5211  3.2455  2.3262  2.0697  1.3712  1.3712  1.0073  1.0073  0.9606  1.0355
  1.0355

 Free energy of the ion-electron system (eV)
  ---------------------------------------------------
  alpha Z        PSCENC =         0.51957394
  Ewald energy   TEWEN  =      6111.31672696
  -Hartree energ DENC   =     -8112.66135201
  -exchange      EXHF   =         0.00000000
  -V(xc)+E(xc)   XCENC  =       214.46832806
  PAW double counting   =      4797.14866732    -4808.38312768
  entropy T*S    EENTRO =         0.00000000
  eigenvalues    EBANDS =      -757.34539980
  atomic energy  EATOM  =      2425.98333211
  Solvation  Ediel_sol  =         0.00000000
  ---------------------------------------------------
  free energy    TOTEN  =      -128.95325110 eV

  energy without entropy =     -128.95325110  energy(sigma->0) =     -128.95325110


--------------------------------------------------------------------------------------------------------




----------------------------------------- Iteration    1(  17)  ---------------------------------------


    POTLOK:  cpu time   18.3582: real time   18.3443
    SETDIJ:  cpu time    0.0290: real time    0.0284
     EDDAV:  cpu time  208.2613: real time  208.0886
       DOS:  cpu time    0.0000: real time    0.0005
    CHARGE:  cpu time   16.4355: real time   16.4221
    MIXING:  cpu time    1.1458: real time    1.1446
    --------------------------------------------
      LOOP:  cpu time  244.2329: real time  244.0356

 eigenvalue-minimisations  :   304
 total energy-change (2. order) :-0.3086035E-02  (-0.1726371E-04)
 number of electron      57.9999985 magnetization 
 augmentation part        2.5858170 magnetization 

 Broyden mixing:
  rms(total) = 0.81564E-03    rms(broyden)= 0.81538E-03
  rms(prec ) = 0.11998E-02
  weight for this iteration     100.00

 eigenvalues of (default mixing * dielectric matrix)
  average eigenvalue GAMMA=   2.0678
  7.1792  3.7512  2.3125  2.3125  1.5374  1.5374  1.0294  1.0294  1.0069  1.0069
  1.0556  1.0556

 Free energy of the ion-electron system (eV)
  ---------------------------------------------------
  alpha Z        PSCENC =         0.51957394
  Ewald energy   TEWEN  =      6111.31672696
  -Hartree energ DENC   =     -8112.99813198
  -exchange      EXHF   =         0.00000000
  -V(xc)+E(xc)   XCENC  =       214.46289295
  PAW double counting   =      4797.44870019    -4808.68280399
  entropy T*S    EENTRO =         0.00000000
  eigenvalues    EBANDS =      -757.00662732
  atomic energy  EATOM  =      2425.98333211
  Solvation  Ediel_sol  =         0.00000000
  ---------------------------------------------------
  free energy    TOTEN  =      -128.95633714 eV

  energy without entropy =     -128.95633714  energy(sigma->0) =     -128.95633714


--------------------------------------------------------------------------------------------------------




----------------------------------------- Iteration    1(  18)  ---------------------------------------


    POTLOK:  cpu time   18.3392: real time   18.3245
    SETDIJ:  cpu time    0.0280: real time    0.0284
     EDDAV:  cpu time  228.8822: real time  228.6910
       DOS:  cpu time    0.0000: real time    0.0005
    CHARGE:  cpu time   16.4175: real time   16.4039
    MIXING:  cpu time    1.1558: real time    1.1549
    --------------------------------------------
      LOOP:  cpu time  264.8247: real time  264.6061

 eigenvalue-minimisations  :   344
 total energy-change (2. order) :-0.1725343E-02  (-0.1258406E-04)
 number of electron      57.9999985 magnetization 
 augmentation part        2.5857699 magnetization 

 Broyden mixing:
  rms(total) = 0.50225E-03    rms(broyden)= 0.50195E-03
  rms(prec ) = 0.70664E-03
  weight for this iteration     100.00

 eigenvalues of (default mixing * dielectric matrix)
  average eigenvalue GAMMA=   2.1112
  7.6369  4.2475  2.4246  2.4246  1.8289  1.4304  1.4304  1.0414  1.0414  1.0076
  1.0076  0.9620  0.9620

 Free energy of the ion-electron system (eV)
  ---------------------------------------------------
  alpha Z        PSCENC =         0.51957394
  Ewald energy   TEWEN  =      6111.31672696
  -Hartree energ DENC   =     -8113.16452103
  -exchange      EXHF   =         0.00000000
  -V(xc)+E(xc)   XCENC  =       214.46057884
  PAW double counting   =      4797.68825966    -4808.92244215
  entropy T*S    EENTRO =         0.00000000
  eigenvalues    EBANDS =      -756.83957080
  atomic energy  EATOM  =      2425.98333211
  Solvation  Ediel_sol  =         0.00000000
  ---------------------------------------------------
  free energy    TOTEN  =      -128.95806248 eV

  energy without entropy =     -128.95806248  energy(sigma->0) =     -128.95806248


--------------------------------------------------------------------------------------------------------




----------------------------------------- Iteration    1(  19)  ---------------------------------------


    POTLOK:  cpu time   18.3312: real time   18.3161
    SETDIJ:  cpu time    0.0290: real time    0.0283
     EDDAV:  cpu time  217.7069: real time  217.5259
       DOS:  cpu time    0.0000: real time    0.0005
    CHARGE:  cpu time   16.4045: real time   16.3904
    MIXING:  cpu time    1.2238: real time    1.2226
    --------------------------------------------
      LOOP:  cpu time  253.6964: real time  253.4865

 eigenvalue-minimisations  :   322
 total energy-change (2. order) :-0.7836390E-03  (-0.4155894E-05)
 number of electron      57.9999985 magnetization 
 augmentation part        2.5857636 magnetization 

 Broyden mixing:
  rms(total) = 0.28146E-03    rms(broyden)= 0.28137E-03
  rms(prec ) = 0.41024E-03
  weight for this iteration     100.00

 eigenvalues of (default mixing * dielectric matrix)
  average eigenvalue GAMMA=   2.1539
  8.1244  4.7791  2.6241  2.6241  1.6608  1.6608  1.5073  1.0820  1.0820  1.0148
  1.0148  0.9566  1.0118  1.0118

 Free energy of the ion-electron system (eV)
  ---------------------------------------------------
  alpha Z        PSCENC =         0.51957394
  Ewald energy   TEWEN  =      6111.31672696
  -Hartree energ DENC   =     -8113.22743530
  -exchange      EXHF   =         0.00000000
  -V(xc)+E(xc)   XCENC  =       214.45983841
  PAW double counting   =      4797.73368508    -4808.96795726
  entropy T*S    EENTRO =         0.00000000
  eigenvalues    EBANDS =      -756.77661006
  atomic energy  EATOM  =      2425.98333211
  Solvation  Ediel_sol  =         0.00000000
  ---------------------------------------------------
  free energy    TOTEN  =      -128.95884612 eV

  energy without entropy =     -128.95884612  energy(sigma->0) =     -128.95884612


--------------------------------------------------------------------------------------------------------




----------------------------------------- Iteration    1(  20)  ---------------------------------------


    POTLOK:  cpu time   18.3112: real time   18.2979
    SETDIJ:  cpu time    0.0290: real time    0.0283
     EDDAV:  cpu time  216.5751: real time  216.3945
       DOS:  cpu time    0.0000: real time    0.0005
    CHARGE:  cpu time   16.3865: real time   16.3729
    MIXING:  cpu time    1.3198: real time    1.3193
    --------------------------------------------
      LOOP:  cpu time  252.6246: real time  252.4171

 eigenvalue-minimisations  :   320
 total energy-change (2. order) :-0.3740582E-03  (-0.1790508E-05)
 number of electron      57.9999985 magnetization 
 augmentation part        2.5857546 magnetization 

 Broyden mixing:
  rms(total) = 0.18954E-03    rms(broyden)= 0.18942E-03
  rms(prec ) = 0.26336E-03
  weight for this iteration     100.00

 eigenvalues of (default mixing * dielectric matrix)
  average eigenvalue GAMMA=   2.1746
  8.3470  5.2736  2.8929  2.4793  2.0825  1.6017  1.3499  1.3499  1.0081  1.0610
  1.0610  1.0320  1.0320  1.0242  1.0242

 Free energy of the ion-electron system (eV)
  ---------------------------------------------------
  alpha Z        PSCENC =         0.51957394
  Ewald energy   TEWEN  =      6111.31672696
  -Hartree energ DENC   =     -8113.24688895
  -exchange      EXHF   =         0.00000000
  -V(xc)+E(xc)   XCENC  =       214.45888436
  PAW double counting   =      4797.56227015    -4808.79646101
  entropy T*S    EENTRO =         0.00000000
  eigenvalues    EBANDS =      -756.75665774
  atomic energy  EATOM  =      2425.98333211
  Solvation  Ediel_sol  =         0.00000000
  ---------------------------------------------------
  free energy    TOTEN  =      -128.95922018 eV

  energy without entropy =     -128.95922018  energy(sigma->0) =     -128.95922018


--------------------------------------------------------------------------------------------------------




----------------------------------------- Iteration    1(  21)  ---------------------------------------


    POTLOK:  cpu time   18.2972: real time   18.2823
    SETDIJ:  cpu time    0.0280: real time    0.0285
     EDDAV:  cpu time  219.0027: real time  218.8201
       DOS:  cpu time    0.0010: real time    0.0005
    CHARGE:  cpu time   16.4145: real time   16.4007
    MIXING:  cpu time    1.3998: real time    1.3984
    --------------------------------------------
      LOOP:  cpu time  255.1452: real time  254.9336

 eigenvalue-minimisations  :   324
 total energy-change (2. order) :-0.2045791E-03  (-0.8331642E-06)
 number of electron      57.9999985 magnetization 
 augmentation part        2.5857412 magnetization 

 Broyden mixing:
  rms(total) = 0.11177E-03    rms(broyden)= 0.11169E-03
  rms(prec ) = 0.15725E-03
  weight for this iteration     100.00

 eigenvalues of (default mixing * dielectric matrix)
  average eigenvalue GAMMA=   2.2247
  8.5012  5.7875  3.4031  2.6232  2.3116  1.6375  1.6375  1.4877  1.1234  1.1234
  1.0216  1.0216  0.9879  0.9879  0.9402  0.9990

 Free energy of the ion-electron system (eV)
  ---------------------------------------------------
  alpha Z        PSCENC =         0.51957394
  Ewald energy   TEWEN  =      6111.31672696
  -Hartree energ DENC   =     -8113.25556997
  -exchange      EXHF   =         0.00000000
  -V(xc)+E(xc)   XCENC  =       214.45863519
  PAW double counting   =      4797.63702407    -4808.87123169
  entropy T*S    EENTRO =         0.00000000
  eigenvalues    EBANDS =      -756.74791536
  atomic energy  EATOM  =      2425.98333211
  Solvation  Ediel_sol  =         0.00000000
  ---------------------------------------------------
  free energy    TOTEN  =      -128.95942476 eV

  energy without entropy =     -128.95942476  energy(sigma->0) =     -128.95942476


--------------------------------------------------------------------------------------------------------




----------------------------------------- Iteration    1(  22)  ---------------------------------------


    POTLOK:  cpu time   18.2842: real time   18.2705
    SETDIJ:  cpu time    0.0290: real time    0.0283
     EDDAV:  cpu time  220.9994: real time  220.8153
       DOS:  cpu time    0.0000: real time    0.0005
    CHARGE:  cpu time   16.3115: real time   16.2985
    MIXING:  cpu time    1.4428: real time    1.4403
    --------------------------------------------
      LOOP:  cpu time  257.0689: real time  256.8567

 eigenvalue-minimisations  :   328
 total energy-change (2. order) :-0.1213981E-03  (-0.3188935E-06)
 number of electron      57.9999985 magnetization 
 augmentation part        2.5857468 magnetization 

 Broyden mixing:
  rms(total) = 0.82194E-04    rms(broyden)= 0.82155E-04
  rms(prec ) = 0.10268E-03
  weight for this iteration     100.00

 eigenvalues of (default mixing * dielectric matrix)
  average eigenvalue GAMMA=   2.2332
  8.6025  6.1809  3.6777  2.5165  2.5165  1.9719  1.5435  1.3522  1.3522  1.0403
  1.0403  0.9982  0.9982  1.0948  1.0948  1.0526  0.9310

 Free energy of the ion-electron system (eV)
  ---------------------------------------------------
  alpha Z        PSCENC =         0.51957394
  Ewald energy   TEWEN  =      6111.31672696
  -Hartree energ DENC   =     -8113.26934799
  -exchange      EXHF   =         0.00000000
  -V(xc)+E(xc)   XCENC  =       214.45837558
  PAW double counting   =      4797.54658645    -4808.78078293
  entropy T*S    EENTRO =         0.00000000
  eigenvalues    EBANDS =      -756.73401027
  atomic energy  EATOM  =      2425.98333211
  Solvation  Ediel_sol  =         0.00000000
  ---------------------------------------------------
  free energy    TOTEN  =      -128.95954615 eV

  energy without entropy =     -128.95954615  energy(sigma->0) =     -128.95954615


--------------------------------------------------------------------------------------------------------




----------------------------------------- Iteration    1(  23)  ---------------------------------------


    POTLOK:  cpu time   18.3312: real time   18.3163
    SETDIJ:  cpu time    0.0290: real time    0.0283
     EDDAV:  cpu time  240.4125: real time  240.2125
       DOS:  cpu time    0.0000: real time    0.0005
    --------------------------------------------
      LOOP:  cpu time  258.7737: real time  258.5606

 eigenvalue-minimisations  :   366
 total energy-change (2. order) :-0.4298022E-04  (-0.8926180E-07)
 number of electron      57.9999985 magnetization 
 augmentation part        2.5857468 magnetization 

 Free energy of the ion-electron system (eV)
  ---------------------------------------------------
  alpha Z        PSCENC =         0.51957394
  Ewald energy   TEWEN  =      6111.31672696
  -Hartree energ DENC   =     -8113.27715551
  -exchange      EXHF   =         0.00000000
  -V(xc)+E(xc)   XCENC  =       214.45834122
  PAW double counting   =      4797.57195391    -4808.80615851
  entropy T*S    EENTRO =         0.00000000
  eigenvalues    EBANDS =      -756.72620326
  atomic energy  EATOM  =      2425.98333211
  Solvation  Ediel_sol  =         0.00000000
  ---------------------------------------------------
  free energy    TOTEN  =      -128.95958914 eV

  energy without entropy =     -128.95958913  energy(sigma->0) =     -128.95958914


--------------------------------------------------------------------------------------------------------




 average (electrostatic) potential at core
  the test charge radii are     0.5201  0.6991  0.7089  0.7215
  (the norm of the test charge is              1.0000)
       1 -42.4465       2 -42.7511       3 -42.6738       4 -44.8274       5 -42.3433
       6 -41.8333       7 -42.0388       8 -42.1396       9 -42.8453      10 -41.5899
      11 -41.7608      12 -41.7609      13 -59.1269      14 -61.6683      15 -60.1320
      16 -58.6697      17 -60.7894      18 -58.9050      19 -74.8384      20 -73.6508
      21 -80.2065      22 -79.1479
 
 
 
 E-fermi :  -4.6388     XC(G=0):  -0.1503     alpha+bet : -0.0465


 k-point     1 :       0.2500    0.2500    0.2500
  band No.  band energies     occupation 
      1     -26.3707      2.00000
      2     -25.4990      2.00000
      3     -23.6279      2.00000
      4     -22.5076      2.00000
      5     -19.7620      2.00000
      6     -18.3360      2.00000
      7     -17.2899      2.00000
      8     -16.0279      2.00000
      9     -15.0398      2.00000
     10     -13.8853      2.00000
     11     -13.0157      2.00000
     12     -12.5561      2.00000
     13     -11.8473      2.00000
     14     -11.4070      2.00000
     15     -11.1817      2.00000
     16     -10.5544      2.00000
     17     -10.4099      2.00000
     18     -10.2195      2.00000
     19     -10.0523      2.00000
     20      -9.9677      2.00000
     21      -9.3818      2.00000
     22      -9.1679      2.00000
     23      -8.9073      2.00000
     24      -8.8751      2.00000
     25      -8.3426      2.00000
     26      -6.5725      2.00000
     27      -6.3625      2.00000
     28      -5.6401      2.00000
     29      -5.5556      2.00000
     30      -1.2280      0.00000
     31      -1.0488      0.00000
     32      -0.5568      0.00000
     33      -0.2303      0.00000
     34      -0.1059      0.00000
     35      -0.0943      0.00000
     36       0.0138      0.00000
     37       0.0845      0.00000
     38       0.1083      0.00000
     39       0.1123      0.00000
     40       0.1573      0.00000
     41       0.1844      0.00000

 k-point     2 :      -0.2500    0.2500    0.2500
  band No.  band energies     occupation 
      1     -26.3707      2.00000
      2     -25.4990      2.00000
      3     -23.6279      2.00000
      4     -22.5076      2.00000
      5     -19.7620      2.00000
      6     -18.3360      2.00000
      7     -17.2899      2.00000
      8     -16.0279      2.00000
      9     -15.0398      2.00000
     10     -13.8853      2.00000
     11     -13.0157      2.00000
     12     -12.5561      2.00000
     13     -11.8473      2.00000
     14     -11.4070      2.00000
     15     -11.1817      2.00000
     16     -10.5544      2.00000
     17     -10.4099      2.00000
     18     -10.2195      2.00000
     19     -10.0523      2.00000
     20      -9.9677      2.00000
     21      -9.3818      2.00000
     22      -9.1679      2.00000
     23      -8.9073      2.00000
     24      -8.8751      2.00000
     25      -8.3426      2.00000
     26      -6.5725      2.00000
     27      -6.3625      2.00000
     28      -5.6401      2.00000
     29      -5.5556      2.00000
     30      -1.2280      0.00000
     31      -1.0487      0.00000
     32      -0.5568      0.00000
     33      -0.2303      0.00000
     34      -0.1059      0.00000
     35      -0.0942      0.00000
     36       0.0148      0.00000
     37       0.0798      0.00000
     38       0.1016      0.00000
     39       0.1193      0.00000
     40       0.1679      0.00000
     41       0.1754      0.00000

 k-point     3 :       0.2500   -0.2500    0.2500
  band No.  band energies     occupation 
      1     -26.3707      2.00000
      2     -25.4990      2.00000
      3     -23.6279      2.00000
      4     -22.5076      2.00000
      5     -19.7620      2.00000
      6     -18.3360      2.00000
      7     -17.2899      2.00000
      8     -16.0280      2.00000
      9     -15.0398      2.00000
[...]

 Free energy of the ion-electron system (eV)
  ---------------------------------------------------
  alpha Z        PSCENC =         0.51957394
  Ewald energy   TEWEN  =      6046.35267664
  -Hartree energ DENC   =     -8049.44353716
  -exchange      EXHF   =         0.00000000
  -V(xc)+E(xc)   XCENC  =       214.12437001
  PAW double counting   =      4764.03617778    -4775.25379044
  entropy T*S    EENTRO =         0.00000000
  eigenvalues    EBANDS =      -755.49232781
  atomic energy  EATOM  =      2425.98333211
  Solvation  Ediel_sol  =         0.00000000
  ---------------------------------------------------
  free energy    TOTEN  =      -129.17352493 eV

  energy without entropy =     -129.17352493  energy(sigma->0) =     -129.17352493


--------------------------------------------------------------------------------------------------------




 average (electrostatic) potential at core
  the test charge radii are     0.5201  0.6991  0.7089  0.7215
  (the norm of the test charge is              1.0000)
       1 -42.3225       2 -42.6039       3 -42.5851       4 -44.7885       5 -42.3011
       6 -41.8358       7 -41.9790       8 -42.1157       9 -43.0438      10 -41.6449
      11 -41.7835      12 -41.7891      13 -59.1121      14 -61.6015      15 -60.1216
      16 -58.7151      17 -60.8369      18 -59.0090      19 -74.8186      20 -73.8060
      21 -80.0843      22 -79.1652
 
 
 
 E-fermi :  -4.6017     XC(G=0):  -0.1306     alpha+bet : -0.0465


 k-point     1 :       0.2500    0.2500    0.2500
  band No.  band energies     occupation 
      1     -26.2650      2.00000
      2     -25.4896      2.00000
      3     -23.5309      2.00000
      4     -22.5929      2.00000
      5     -19.6766      2.00000
      6     -18.2614      2.00000
      7     -17.3633      2.00000
      8     -16.0064      2.00000
      9     -14.9913      2.00000
     10     -13.8936      2.00000
     11     -13.0233      2.00000
     12     -12.5025      2.00000
     13     -11.7633      2.00000
     14     -11.3759      2.00000
     15     -11.1466      2.00000
     16     -10.5509      2.00000
     17     -10.4116      2.00000
     18     -10.1160      2.00000
     19     -10.0661      2.00000
     20      -9.8945      2.00000
     21      -9.3718      2.00000
     22      -9.1269      2.00000
     23      -8.9516      2.00000
     24      -8.8300      2.00000
     25      -8.4184      2.00000
     26      -6.5442      2.00000
     27      -6.3006      2.00000
     28      -5.7129      2.00000
     29      -5.5680      2.00000
     30      -1.1042      0.00000
     31      -1.0283      0.00000
     32      -0.4716      0.00000
     33      -0.2338      0.00000
     34      -0.1554      0.00000
     35      -0.0645      0.00000
     36       0.0406      0.00000
     37       0.1050      0.00000
     38       0.1330      0.00000
     39       0.1346      0.00000
     40       0.1740      0.00000
     41       0.2018      0.00000

 k-point     2 :      -0.2500    0.2500    0.2500
  band No.  band energies     occupation 
      1     -26.2650      2.00000
      2     -25.4896      2.00000
      3     -23.5309      2.00000
      4     -22.5929      2.00000
      5     -19.6766      2.00000
      6     -18.2614      2.00000
      7     -17.3633      2.00000
      8     -16.0064      2.00000
      9     -14.9913      2.00000
     10     -13.8936      2.00000
     11     -13.0233      2.00000
     12     -12.5025      2.00000
     13     -11.7633      2.00000
     14     -11.3759      2.00000
     15     -11.1466      2.00000
     16     -10.5509      2.00000
     17     -10.4116      2.00000
     18     -10.1160      2.00000
     19     -10.0661      2.00000
     20      -9.8945      2.00000
     21      -9.3718      2.00000
     22      -9.1269      2.00000
     23      -8.9516      2.00000
     24      -8.8300      2.00000
     25      -8.4184      2.00000
     26      -6.5443      2.00000
     27      -6.3006      2.00000
     28      -5.7128      2.00000
     29      -5.5680      2.00000
     30      -1.1041      0.00000
     31      -1.0283      0.00000
     32      -0.4716      0.00000
     33      -0.2338      0.00000
     34      -0.1554      0.00000
     35      -0.0647      0.00000
     36       0.0422      0.00000
     37       0.0999      0.00000
     38       0.1257      0.00000
     39       0.1420      0.00000
     40       0.1879      0.00000
     41       0.1961      0.00000

 k-point     3 :       0.2500   -0.2500    0.2500
  band No.  band energies     occupation 
      1     -26.2650      2.00000
      2     -25.4896      2.00000
      3     -23.5309      2.00000
      4     -22.5929      2.00000
      5     -19.6766      2.00000
      6     -18.2614      2.00000
      7     -17.3633      2.00000
      8     -16.0064      2.00000
      9     -14.9913      2.00000
     10     -13.8936      2.00000
     11     -13.0233      2.00000
     12     -12.5025      2.00000
     13     -11.7633      2.00000
     14     -11.3759      2.00000
     15     -11.1466      2.00000
     16     -10.5509      2.00000
     17     -10.4116      2.00000
     18     -10.1160      2.00000
     19     -10.0661      2.00000
     20      -9.8945      2.00000
     21      -9.3718      2.00000
     22      -9.1268      2.00000
     23      -8.9516      2.00000
     24      -8.8300      2.00000
     25      -8.4184      2.00000
     26      -6.5443      2.00000
     27      -6.3006      2.00000
     28      -5.7129      2.00000
     29      -5.5680      2.00000
     30      -1.1042      0.00000
     31      -1.0283      0.00000
     32      -0.4716      0.00000
     33      -0.2338      0.00000
     34      -0.1555      0.00000
     35      -0.0638      0.00000
     36       0.0365      0.00000
     37       0.1090      0.00000
     38       0.1251      0.00000
     39       0.1433      0.00000
     40       0.1836      0.00000
     41       0.1952      0.00000

 k-point     4 :      -0.2500   -0.2500    0.2500
  band No.  band energies     occupation 
      1     -26.2650      2.00000
      2     -25.4896      2.00000
      3     -23.5309      2.00000
      4     -22.5929      2.00000
      5     -19.6766      2.00000
      6     -18.2614      2.00000
      7     -17.3633      2.00000
      8     -16.0064      2.00000
      9     -14.9913      2.00000
     10     -13.8936      2.00000
     11     -13.0233      2.00000
     12     -12.5025      2.00000
     13     -11.7633      2.00000
     14     -11.3759      2.00000
     15     -11.1466      2.00000
     16     -10.5509      2.00000
     17     -10.4116      2.00000
     18     -10.1160      2.00000
     19     -10.0661      2.00000
     20      -9.8945      2.00000
     21      -9.3718      2.00000
     22      -9.1269      2.00000
     23      -8.9516      2.00000
     24      -8.8300      2.00000
     25      -8.4184      2.00000
     26      -6.5443      2.00000
     27      -6.3006      2.00000
     28      -5.7128      2.00000
     29      -5.5680      2.00000
     30      -1.1042      0.00000
     31      -1.0283      0.00000
     32      -0.4716      0.00000
     33      -0.2338      0.00000
     34      -0.1554      0.00000
     35      -0.0639      0.00000
     36       0.0362      0.00000
     37       0.1120      0.00000
     38       0.1315      0.00000
     39       0.1401      0.00000
     40       0.1670      0.00000
     41       0.1910      0.00000


--------------------------------------------------------------------------------------------------------


 soft charge-density along one line, spin component           1
         0         1         2         3         4         5         6         7         8         9
 total charge-density along one line
 
 pseudopotential strength for first ion, spin component:           1
 -2.352  -4.055   0.002   0.000  -0.001
 -4.055  -6.905   0.005   0.000  -0.003
  0.002   0.005  -0.332   0.000  -0.002
  0.000   0.000   0.000  -0.336   0.000
 -0.001  -0.003  -0.002   0.000  -0.335
 total augmentation occupancy for first ion, spin component:           1
  3.535  -0.637  -0.395  -0.005   0.203
 -0.637   0.130   0.073   0.001  -0.037
 -0.395   0.073   0.046   0.000  -0.020
 -0.005   0.001   0.000   0.009   0.000
  0.203  -0.037  -0.020   0.000   0.018


------------------------ aborting loop because EDIFF is reached ----------------------------------------


    CHARGE:  cpu time   16.3295: real time   16.3156
    FORLOC:  cpu time    5.7891: real time    5.7846
    FORNL :  cpu time   59.9609: real time   59.9112
    STRESS:  cpu time  181.9653: real time  181.8123
    FORCOR:  cpu time   23.4604: real time   23.4408
    FORHAR:  cpu time   10.4434: real time   10.4344
    MIXING:  cpu time    0.7579: real time    0.7579
    OFIELD:  cpu time    0.0000: real time    0.0000

  FORCE on cell =-STRESS in cart. coord.  units (eV):
  Direction    XX          YY          ZZ          XY          YZ          ZX
  --------------------------------------------------------------------------------------
  Alpha Z     0.51957     0.51957     0.51957
  Ewald    3416.01096  2499.64472   130.69592    61.90258   164.66362   473.14737
  Hartree  3827.15046  2949.81432  1272.48185    45.77858   164.62893   343.96880
  E(xc)    -229.28213  -229.34373  -232.48139    -0.03552    -0.16131     0.66368
  Local   -7836.53392 -6029.44587 -2053.37112  -109.88514  -336.93940  -802.13794
  n-local  -133.10869  -134.40723  -131.71724     0.54963     0.74058    -1.14736
  augment    14.46286    14.10198    14.92762     0.03391     0.11003    -0.29295
  Kinetic   937.12218   925.86965   995.02923     1.75797     6.92523   -14.04631
  Fock        0.00000     0.00000     0.00000     0.00000     0.00000     0.00000
  -------------------------------------------------------------------------------------
  Total      -3.65871    -3.24660    -3.91557     0.10201    -0.03233     0.15528
  in kB      -0.21711    -0.19265    -0.23235     0.00605    -0.00192     0.00921
  external pressure =       -0.21 kB  Pullay stress =        0.00 kB


 VOLUME and BASIS-vectors are now :
 -----------------------------------------------------------------------------
  energy-cutoff  :      400.00
  volume of cell :    27000.00
      direct lattice vectors                 reciprocal lattice vectors
    30.000000000  0.000000000  0.000000000     0.033333333  0.000000000  0.000000000
     0.000000000 30.000000000  0.000000000     0.000000000  0.033333333  0.000000000
     0.000000000  0.000000000 30.000000000     0.000000000  0.000000000  0.033333333

  length of vectors
    30.000000000 30.000000000 30.000000000     0.033333333  0.033333333  0.033333333


 FORCES acting on ions
    electron-ion (+dipol)            ewald-force                    non-local-force                 convergence-correction
 -----------------------------------------------------------------------------------------------
   0.663E+02 -.554E+02 0.326E+01   -.689E+02 0.605E+02 -.320E+01   0.260E+01 -.506E+01 -.591E-01   -.122E-04 0.388E-04 0.440E-04
   0.480E+02 0.284E+02 0.634E+02   -.491E+02 -.308E+02 -.682E+02   0.105E+01 0.239E+01 0.482E+01   -.438E-04 0.334E-04 0.551E-04
   0.613E+02 0.372E+02 -.457E+02   -.635E+02 -.403E+02 0.497E+02   0.217E+01 0.310E+01 -.397E+01   -.590E-05 0.137E-04 0.500E-04
   0.633E+02 0.936E+02 0.106E+02   -.674E+02 -.997E+02 -.117E+02   0.403E+01 0.606E+01 0.110E+01   0.427E-04 -.275E-04 0.132E-03
   0.242E+01 0.704E+02 -.732E+02   -.214E+01 -.738E+02 0.778E+02   -.256E+00 0.338E+01 -.456E+01   -.186E-04 -.499E-04 0.999E-04
   -.687E+02 0.530E+02 0.196E+02   0.741E+02 -.545E+02 -.188E+02   -.543E+01 0.147E+01 -.764E+00   -.355E-04 -.148E-03 0.968E-04
   -.660E+01 -.558E+01 0.862E+02   0.625E+01 0.861E+01 -.908E+02   0.364E+00 -.304E+01 0.459E+01   -.126E-03 -.826E-04 -.348E-05
   0.240E+02 0.821E+02 0.287E+02   -.269E+02 -.866E+02 -.294E+02   0.287E+01 0.456E+01 0.738E+00   0.544E-04 0.129E-04 0.911E-04
   0.376E+02 -.613E+02 0.140E+02   -.440E+02 0.635E+02 -.150E+02   0.644E+01 -.220E+01 0.985E+00   -.278E-04 0.767E-04 -.307E-04
   -.847E+02 -.615E+01 -.173E+02   0.895E+02 0.330E+01 0.189E+02   -.473E+01 0.287E+01 -.161E+01   -.157E-04 0.112E-03 0.153E-03
   -.327E+02 -.521E+02 0.619E+02   0.336E+02 0.543E+02 -.669E+02   -.823E+00 -.216E+01 0.502E+01   -.515E-04 0.128E-03 0.557E-04
   -.118E+02 -.748E+02 -.438E+02   0.109E+02 0.790E+02 0.474E+02   0.871E+00 -.416E+01 -.358E+01   0.273E-04 0.427E-04 0.454E-04
   0.223E+03 0.107E+02 0.248E+02   -.224E+03 -.969E+01 -.248E+02   0.900E+00 -.102E+01 -.412E-01   -.198E-03 0.493E-04 0.171E-03
   0.167E+03 0.152E+02 0.115E+02   -.172E+03 -.153E+02 -.122E+02   0.499E+01 0.120E+00 0.699E+00   0.266E-03 0.305E-03 0.517E-03
   -.234E+01 0.134E+03 -.547E+02   0.750E+01 -.135E+03 0.559E+02   -.515E+01 0.125E+01 -.125E+01   -.181E-03 -.228E-03 0.578E-03
   -.534E+02 0.173E+03 0.150E+03   0.545E+02 -.173E+03 -.150E+03   -.109E+01 0.267E+00 0.546E+00   -.945E-03 -.108E-02 0.379E-03
   -.677E+01 0.163E+02 -.416E+02   0.425E+01 -.179E+02 0.416E+02   0.253E+01 0.160E+01 -.357E-01   0.185E-04 0.928E-04 -.173E-03
   -.156E+03 -.189E+03 0.382E+01   0.161E+03 0.192E+03 -.342E+01   -.456E+01 -.293E+01 -.385E+00   -.199E-03 0.772E-03 0.650E-03
   0.113E+03 0.162E+03 -.120E+02   -.110E+03 -.161E+03 0.134E+02   -.371E+01 -.849E+00 -.138E+01   0.140E-03 -.605E-05 0.177E-02
   -.253E+02 -.192E+03 0.298E+02   0.221E+02 0.196E+03 -.334E+02   0.322E+01 -.360E+01 0.359E+01   0.711E-03 -.563E-04 -.206E-02
   0.780E+02 -.381E+03 -.177E+02   -.649E+02 0.431E+03 0.215E+02   -.131E+02 -.494E+02 -.376E+01   -.343E-03 -.107E-03 -.185E-03
   -.385E+03 0.168E+03 -.184E+03   0.429E+03 -.190E+03 0.202E+03   -.448E+02 0.215E+02 -.180E+02   0.698E-03 0.307E-03 -.712E-03
 -----------------------------------------------------------------------------------------------
   0.517E+02 0.259E+02 0.173E+02   -.568E-13 -.284E-13 0.000E+00   -.517E+02 -.259E+02 -.173E+02   -.245E-03 0.200E-03 0.173E-02
 
 
 POSITION                                       TOTAL-FORCE (eV/Angst)
 -----------------------------------------------------------------------------------
     11.18248     16.11841     14.86734        -0.002394     -0.005226     -0.000941
     11.49297     14.65589     13.89104         0.005331     -0.001836     -0.001245
     11.26817     14.51327     15.65152        -0.002154     -0.003629     -0.003459
     13.34921     13.39389     14.97160        -0.000593     -0.001362      0.033696
     15.35995     13.20939     16.19883         0.017173      0.005757     -0.000372
     16.85549     12.77436     14.23791        -0.022988     -0.039667     -0.003056
     15.72621     13.67797     13.18314         0.005091     -0.007487     -0.004694
     15.20634     12.15416     13.95887        -0.040176      0.007617     -0.002954
     15.31947     16.51960     15.14320         0.011667     -0.005065     -0.028296
     18.30219     16.59031     15.63365         0.002799      0.017198      0.014266
     17.55101     17.56243     14.32912         0.018785      0.034910      0.024034
     17.21217     17.95260     16.03946        -0.025140     -0.008215      0.024984
     11.68795     15.14734     14.85638         0.003071     -0.000811      0.000092
     13.17744     15.37885     15.06104        -0.006556     -0.027269     -0.001354
     15.33705     13.87236     15.31841         0.005250      0.000124     -0.004613
     15.80773     13.06619     14.09352        -0.012662     -0.012104     -0.002303
     16.46218     14.89567     15.61371         0.010062     -0.001305     -0.017111
     17.39676     17.13099     15.33118         0.000222      0.011566      0.009832
     13.90929     14.23165     15.12270         0.004323      0.009279      0.016009
     16.29235     16.19298     15.29997         0.008080      0.001110     -0.029865
     13.62465     16.53502     15.15482         0.013249      0.023037     -0.012877
     17.52379     14.39923     16.02442         0.007561      0.003376     -0.009771
 -----------------------------------------------------------------------------------
    total drift:                               -0.002854     -0.004942      0.021937


--------------------------------------------------------------------------------------------------------



  FREE ENERGIE OF THE ION-ELECTRON SYSTEM (eV)
  ---------------------------------------------------
  free  energy   TOTEN  =      -129.17352493 eV

  energy  without entropy=     -129.17352493  energy(sigma->0) =     -129.17352493
 
 d Force = 0.8518231E-03[ 0.833E-03, 0.870E-03]  d Energy = 0.8533827E-03-0.156E-05
 d Force = 0.5262659E+00[ 0.529E+00, 0.524E+00]  d Ewald  = 0.5262659E+00-0.364E-07


--------------------------------------------------------------------------------------------------------


    POTLOK:  cpu time   20.4779: real time   20.4598


--------------------------------------------------------------------------------------------------------


 NEB: the previous image is higher in energy: F
 NEB: the next image is higher in energy    : F
 NEB: image is at an extrema
 NEB: diff energy (min, max):     0.036608    0.056101

 NEB: Tangent
 ----------------------------------------------
     -0.00460     -0.03768      0.01011
     -0.05034     -0.02457     -0.01902
      0.02224     -0.04971     -0.01036
     -0.04179     -0.06473      0.18342
      0.03834     -0.17974     -0.17379
      0.04741      0.20934     -0.26061
     -0.00615      0.31834     -0.11572
      0.07825      0.16594     -0.34031
      0.01067     -0.03409     -0.00578
     -0.02692     -0.04830      0.26777
      0.05730     -0.02166      0.23977
     -0.04026     -0.04523      0.22409
     -0.00989     -0.04015     -0.01927
      0.00123     -0.04256     -0.10375
      0.00125     -0.03258     -0.06674
      0.02979      0.18108     -0.20691
     -0.03387     -0.03895      0.10443
     -0.00449     -0.03620      0.22374
     -0.02353     -0.05310      0.06132
     -0.00735     -0.02808      0.14069
      0.02590     -0.03102     -0.30132
     -0.06638     -0.05761      0.17132

 NEB: forces: par spring, perp REAL, dneb     0.091848    0.120348    0.000000
 NEB: distance to prev, next image, angle between     1.159890    1.141521  168.505090
 NEB: projections on to tangent (spring, REAL)    -0.091848    0.007693

 stress matrix after NEB project (eV)
     -3.65871      0.10201      0.15528
      0.10201     -3.24660     -0.03233
      0.15528     -0.03233     -3.91557
  FORCES: max atom, RMS     0.049018    0.025711
  FORCE total and by dimension    0.120593    0.042888
  Stress total and by dimension    6.271317    3.915568
 OPT: skip step - force has converged


--------------------------------------------------------------------------------------------------------


  
 reached required accuracy - stopping structural energy minimisation
     LOOP+:  cpu time 1817.5337: real time 1816.2193
    4ORBIT:  cpu time    0.0000: real time    0.0000

 total amount of memory used by VASP on root node  4333707. kBytes
========================================================================

   base      :      30000. kBytes
   nonlr-proj:       2402. kBytes
   fftplans  :     924480. kBytes
   grid      :    2089440. kBytes
   one-center:         67. kBytes
   wavefun   :    1287318. kBytes
 
  
  
 General timing and accounting informations for this job:
 ========================================================
  
                  Total CPU time used (sec):   123742.000
                            User time (sec):   122970.459
                          System time (sec):      771.544
                         Elapsed time (sec):   123693.202
  
                   Maximum memory used (kb):     5901432.
                   Average memory used (kb):           0.
  
                          Minor page faults:    182583142
                          Major page faults:            9
                 Voluntary context switches:         7987
