 vasp.5.4.1 24Jun15 (build Jan 13 2020 12:58:22) complex                        
  
 POSCAR found type information on POSCAR  H  C  N  O 
 09/POSCAR found :  4 types and      22 ions
 scaLAPACK will be used
 LDA part: xc-table for Pade appr. of Perdew
 POSCAR found type information on POSCAR  H  C  N  O 
 00/POSCAR found :  4 types and      22 ions
 POSCAR found type information on POSCAR  H  C  N  O 
 16/POSCAR found :  4 types and      22 ions
 Jacobian:    50.2178792621697     
 POSCAR, INCAR and KPOINTS ok, starting setup
 WARNING: small aliasing (wrap around) errors must be expected
 FFT: planning ...
 WAVECAR not read
 entering main loop
       N       E                     dE             d eps       ncg     rms          rms(c)
DAV:   1     0.581831374780E+03    0.58183E+03   -0.82839E+03   408   0.485E+02
DAV:   2     0.254799143812E+03   -0.32703E+03   -0.31608E+03   557   0.979E+01
DAV:   3    -0.481981065730E+02   -0.30300E+03   -0.29397E+03   504   0.107E+02
DAV:   4    -0.136272120103E+03   -0.88074E+02   -0.87935E+02   396   0.773E+01
DAV:   5    -0.141495043441E+03   -0.52229E+01   -0.52053E+01   432   0.218E+01    0.196E+01
DAV:   6    -0.131297415570E+03    0.10198E+02   -0.24144E+01   397   0.201E+01    0.997E+00
DAV:   7    -0.129501349335E+03    0.17961E+01   -0.46862E+00   440   0.842E+00    0.513E+00
DAV:   8    -0.129011577036E+03    0.48977E+00   -0.84404E-01   448   0.401E+00    0.147E+00
DAV:   9    -0.128944841126E+03    0.66736E-01   -0.94888E-02   464   0.151E+00    0.559E-01
DAV:  10    -0.128932193870E+03    0.12647E-01   -0.22773E-02   428   0.789E-01    0.254E-01
DAV:  11    -0.128926617417E+03    0.55765E-02   -0.77713E-03   432   0.446E-01    0.159E-01
DAV:  12    -0.128926700061E+03   -0.82643E-04   -0.53266E-03   420   0.353E-01    0.975E-02
DAV:  13    -0.128932941192E+03   -0.62411E-02   -0.41372E-03   448   0.323E-01    0.580E-02
DAV:  14    -0.128939929515E+03   -0.69883E-02   -0.19288E-03   430   0.217E-01    0.375E-02
DAV:  15    -0.128947593074E+03   -0.76636E-02   -0.83142E-04   380   0.112E-01    0.239E-02
DAV:  16    -0.128953251103E+03   -0.56580E-02   -0.41889E-04   384   0.642E-02    0.133E-02
DAV:  17    -0.128956337137E+03   -0.30860E-02   -0.17264E-04   304   0.412E-02    0.816E-03
DAV:  18    -0.128958062480E+03   -0.17253E-02   -0.12584E-04   344   0.306E-02    0.502E-03
DAV:  19    -0.128958846120E+03   -0.78364E-03   -0.41559E-05   322   0.185E-02    0.281E-03
DAV:  20    -0.128959220178E+03   -0.37406E-03   -0.17905E-05   320   0.134E-02    0.190E-03
DAV:  21    -0.128959424757E+03   -0.20458E-03   -0.83316E-06   324   0.812E-03    0.112E-03
DAV:  22    -0.128959546155E+03   -0.12140E-03   -0.31889E-06   328   0.583E-03    0.822E-04
DAV:  23    -0.128959589135E+03   -0.42980E-04   -0.89262E-07   366   0.313E-03
   1 F= -.12895959E+03 E0= -.12895959E+03  d E =-.128960E+03
damped:  g(F)=  0.000E+00 g(S)=  0.000E+00 dE (1.order)= 0.000E+00
 bond charge predicted
       N       E                     dE             d eps       ncg     rms          rms(c)
DAV:   1    -0.128967050570E+03   -0.75044E-02   -0.13398E-01   359   0.194E+00    0.947E-02
DAV:   2    -0.128967253913E+03   -0.20334E-03   -0.34422E-03   464   0.287E-01    0.663E-02
DAV:   3    -0.128967185057E+03    0.68856E-04   -0.18814E-04   312   0.747E-02    0.341E-02
DAV:   4    -0.128967201072E+03   -0.16015E-04   -0.19663E-04   343   0.652E-02    0.140E-02
DAV:   5    -0.128967201512E+03   -0.44074E-06   -0.37164E-05   304   0.321E-02    0.519E-03
DAV:   6    -0.128967204541E+03   -0.30285E-05   -0.76472E-06   222   0.136E-02
   2 F= -.12896720E+03 E0= -.12896720E+03  d E =-.761541E-02
damped:  g(F)=  0.000E+00 g(S)=  0.000E+00 dE (1.order)= 0.000E+00
 bond charge predicted
       N       E                     dE             d eps       ncg     rms          rms(c)
DAV:   1    -0.128973955278E+03   -0.67538E-02   -0.32224E-01   336   0.302E+00    0.143E-01
DAV:   2    -0.128974385207E+03   -0.42993E-03   -0.77386E-03   453   0.429E-01    0.984E-02
DAV:   3    -0.128974248735E+03    0.13647E-03   -0.50814E-04   416   0.112E-01    0.494E-02
DAV:   4    -0.128974272497E+03   -0.23762E-04   -0.17914E-04   376   0.679E-02    0.186E-02
DAV:   5    -0.128974277654E+03   -0.51575E-05   -0.27543E-05   208   0.302E-02    0.752E-03
DAV:   6    -0.128974280367E+03   -0.27123E-05   -0.90039E-06   286   0.154E-02
   3 F= -.12897428E+03 E0= -.12897428E+03  d E =-.707583E-02
damped:  g(F)=  0.000E+00 g(S)=  0.000E+00 dE (1.order)= 0.000E+00
 bond charge predicted
       N       E                     dE             d eps       ncg     rms          rms(c)
DAV:   1    -0.128980123624E+03   -0.58460E-02   -0.40246E-01   333   0.333E+00    0.148E-01
DAV:   2    -0.128980634757E+03   -0.51113E-03   -0.85851E-03   427   0.434E-01    0.961E-02
DAV:   3    -0.128980557627E+03    0.77130E-04   -0.43622E-04   399   0.104E-01    0.516E-02
DAV:   4    -0.128980593744E+03   -0.36117E-04   -0.12130E-04   304   0.560E-02    0.164E-02
DAV:   5    -0.128980602244E+03   -0.84997E-05   -0.26612E-05   296   0.288E-02    0.684E-03
DAV:   6    -0.128980605705E+03   -0.34612E-05   -0.47173E-06   304   0.118E-02
   4 F= -.12898061E+03 E0= -.12898061E+03  d E =-.632534E-02
damped:  g(F)=  0.000E+00 g(S)=  0.000E+00 dE (1.order)= 0.000E+00
 bond charge predicted
       N       E                     dE             d eps       ncg     rms          rms(c)
DAV:   1    -0.128990367479E+03   -0.97652E-02   -0.60814E-01   328   0.405E+00    0.169E-01
DAV:   2    -0.128991189332E+03   -0.82185E-03   -0.11852E-02   427   0.499E-01    0.108E-01
DAV:   3    -0.128991128144E+03    0.61188E-04   -0.36577E-04   374   0.106E-01    0.619E-02
DAV:   4    -0.128991195097E+03   -0.66953E-04   -0.20386E-04   360   0.785E-02    0.138E-02
DAV:   5    -0.128991203847E+03   -0.87505E-05   -0.40817E-05   304   0.342E-02    0.752E-03
DAV:   6    -0.128991208744E+03   -0.48971E-05   -0.62188E-06   304   0.138E-02
   5 F= -.12899121E+03 E0= -.12899121E+03  d E =-.106030E-01
damped:  g(F)=  0.000E+00 g(S)=  0.000E+00 dE (1.order)= 0.000E+00
 bond charge predicted
       N       E                     dE             d eps       ncg     rms          rms(c)
DAV:   1    -0.129003293345E+03   -0.12089E-01   -0.98116E-01   328   0.514E+00    0.218E-01
DAV:   2    -0.129004652605E+03   -0.13593E-02   -0.19196E-02   413   0.647E-01    0.144E-01
DAV:   3    -0.129004487959E+03    0.16465E-03   -0.60372E-04   463   0.145E-01    0.817E-02
DAV:   4    -0.129004595477E+03   -0.10752E-03   -0.48474E-04   464   0.119E-01    0.206E-02
DAV:   5    -0.129004602187E+03   -0.67094E-05   -0.60719E-05   272   0.421E-02    0.126E-02
DAV:   6    -0.129004607163E+03   -0.49765E-05   -0.29097E-05   320   0.265E-02
   6 F= -.12900461E+03 E0= -.12900461E+03  d E =-.133984E-01
damped:  g(F)=  0.000E+00 g(S)=  0.000E+00 dE (1.order)= 0.000E+00
 bond charge predicted
       N       E                     dE             d eps       ncg     rms          rms(c)
DAV:   1    -0.129015265718E+03   -0.10664E-01   -0.12928E+00   330   0.592E+00    0.250E-01
DAV:   2    -0.129017006868E+03   -0.17412E-02   -0.24852E-02   397   0.741E-01    0.168E-01
DAV:   3    -0.129016802685E+03    0.20418E-03   -0.84004E-04   429   0.170E-01    0.935E-02
DAV:   4    -0.129016962298E+03   -0.15961E-03   -0.70963E-04   464   0.141E-01    0.261E-02
DAV:   5    -0.129016963878E+03   -0.15798E-05   -0.89780E-05   272   0.521E-02    0.165E-02
DAV:   6    -0.129016971071E+03   -0.71923E-05   -0.52222E-05   328   0.333E-02
   7 F= -.12901697E+03 E0= -.12901697E+03  d E =-.123639E-01
damped:  g(F)=  0.000E+00 g(S)=  0.000E+00 dE (1.order)= 0.000E+00
 bond charge predicted
       N       E                     dE             d eps       ncg     rms          rms(c)
DAV:   1    -0.129028206657E+03   -0.11243E-01   -0.17730E+00   330   0.696E+00    0.288E-01
DAV:   2    -0.129030585375E+03   -0.23787E-02   -0.33829E-02   396   0.860E-01    0.192E-01
DAV:   3    -0.129030425374E+03    0.16000E-03   -0.10251E-03   429   0.184E-01    0.108E-01
DAV:   4    -0.129030659331E+03   -0.23396E-03   -0.73887E-04   437   0.145E-01    0.266E-02
DAV:   5    -0.129030662994E+03   -0.36628E-05   -0.11232E-04   304   0.597E-02    0.157E-02
DAV:   6    -0.129030671299E+03   -0.83049E-05   -0.28872E-05   318   0.263E-02
   8 F= -.12903067E+03 E0= -.12903067E+03  d E =-.137002E-01
damped:  g(F)=  0.000E+00 g(S)=  0.000E+00 dE (1.order)= 0.000E+00
 bond charge predicted
       N       E                     dE             d eps       ncg     rms          rms(c)
DAV:   1    -0.129042946939E+03   -0.12284E-01   -0.23280E+00   328   0.793E+00    0.332E-01
DAV:   2    -0.129046025768E+03   -0.30788E-02   -0.44219E-02   405   0.976E-01    0.215E-01
DAV:   3    -0.129045884020E+03    0.14175E-03   -0.13427E-03   429   0.198E-01    0.117E-01
DAV:   4    -0.129046200177E+03   -0.31616E-03   -0.63498E-04   464   0.133E-01    0.248E-02
DAV:   5    -0.129046216919E+03   -0.16741E-04   -0.10287E-04   328   0.553E-02    0.139E-02
DAV:   6    -0.129046226341E+03   -0.94230E-05   -0.13105E-05   296   0.196E-02
   9 F= -.12904623E+03 E0= -.12904623E+03  d E =-.155550E-01
damped:  g(F)=  0.000E+00 g(S)=  0.000E+00 dE (1.order)= 0.000E+00
 bond charge predicted
       N       E                     dE             d eps       ncg     rms          rms(c)
DAV:   1    -0.129058853180E+03   -0.12636E-01   -0.31499E+00   328   0.912E+00    0.388E-01
DAV:   2    -0.129062870593E+03   -0.40174E-02   -0.57923E-02   406   0.110E+00    0.249E-01
DAV:   3    -0.129062690113E+03    0.18048E-03   -0.19402E-03   429   0.228E-01    0.129E-01
DAV:   4    -0.129063061206E+03   -0.37109E-03   -0.73133E-04   456   0.138E-01    0.302E-02
DAV:   5    -0.129063090018E+03   -0.28812E-04   -0.11066E-04   320   0.560E-02    0.154E-02
DAV:   6    -0.129063105038E+03   -0.15020E-04   -0.17412E-05   320   0.229E-02
  10 F= -.12906311E+03 E0= -.12906311E+03  d E =-.168787E-01
damped:  g(F)=  0.000E+00 g(S)=  0.000E+00 dE (1.order)= 0.000E+00
 bond charge predicted
       N       E                     dE             d eps       ncg     rms          rms(c)
DAV:   1    -0.129073053042E+03   -0.99630E-02   -0.47432E+00   328   0.111E+01    0.472E-01
DAV:   2    -0.129079178937E+03   -0.61259E-02   -0.86929E-02   397   0.135E+00    0.309E-01
DAV:   3    -0.129078859300E+03    0.31964E-03   -0.25949E-03   438   0.281E-01    0.169E-01
DAV:   4    -0.129079334686E+03   -0.47539E-03   -0.14115E-03   397   0.200E-01    0.384E-02
DAV:   5    -0.129079370438E+03   -0.35752E-04   -0.23607E-04   400   0.793E-02    0.216E-02
DAV:   6    -0.129079388807E+03   -0.18369E-04   -0.26035E-05   320   0.272E-02
  11 F= -.12907939E+03 E0= -.12907939E+03  d E =-.162838E-01
damped:  g(F)=  0.000E+00 g(S)=  0.000E+00 dE (1.order)= 0.000E+00
 bond charge predicted
       N       E                     dE             d eps       ncg     rms          rms(c)
DAV:   1    -0.129086085358E+03   -0.67149E-02   -0.66885E+00   328   0.131E+01    0.546E-01
DAV:   2    -0.129095001766E+03   -0.89164E-02   -0.12378E-01   396   0.160E+00    0.352E-01
DAV:   3    -0.129094621401E+03    0.38037E-03   -0.29146E-03   430   0.294E-01    0.190E-01
DAV:   4    -0.129095098202E+03   -0.47680E-03   -0.18150E-03   462   0.231E-01    0.354E-02
DAV:   5    -0.129095133943E+03   -0.35741E-04   -0.27638E-04   416   0.856E-02    0.243E-02
DAV:   6    -0.129095154031E+03   -0.20088E-04   -0.29176E-05   318   0.302E-02
  12 F= -.12909515E+03 E0= -.12909515E+03  d E =-.157652E-01
damped:  g(F)=  0.000E+00 g(S)=  0.000E+00 dE (1.order)= 0.000E+00
 bond charge predicted
       N       E                     dE             d eps       ncg     rms          rms(c)
DAV:   1    -0.129075778594E+03    0.19355E-01   -0.10366E+01   328   0.168E+01    0.715E-01
DAV:   2    -0.129093285774E+03   -0.17507E-01   -0.25131E-01   388   0.234E+00    0.505E-01
DAV:   3    -0.129091648957E+03    0.16368E-02   -0.72081E-03   448   0.468E-01    0.305E-01
DAV:   4    -0.129091504848E+03    0.14411E-03   -0.50956E-03   431   0.385E-01    0.638E-02
DAV:   5    -0.129091560426E+03   -0.55578E-04   -0.98528E-04   464   0.164E-01    0.401E-02
DAV:   6    -0.129091600689E+03   -0.40263E-04   -0.73098E-05   352   0.455E-02
  13 F= -.12909160E+03 E0= -.12909160E+03  d E =0.355334E-02
damped:  g(F)=  0.000E+00 g(S)=  0.000E+00 dE (1.order)= 0.000E+00
 bond charge predicted
       N       E                     dE             d eps       ncg     rms          rms(c)
DAV:   1    -0.129109438268E+03   -0.17878E-01   -0.14755E+00   329   0.655E+00    0.402E-01
DAV:   2    -0.129114612626E+03   -0.51744E-02   -0.72597E-02   396   0.125E+00    0.247E-01
DAV:   3    -0.129113921906E+03    0.69072E-03   -0.22321E-03   464   0.260E-01    0.150E-01
DAV:   4    -0.129113529115E+03    0.39279E-03   -0.13281E-03   369   0.197E-01    0.383E-02
DAV:   5    -0.129113493960E+03    0.35154E-04   -0.28338E-04   432   0.859E-02    0.190E-02
DAV:   6    -0.129113494777E+03   -0.81701E-06   -0.27075E-05   366   0.282E-02
  14 F= -.12911349E+03 E0= -.12911349E+03  d E =-.218941E-01
damped:  g(F)=  0.000E+00 g(S)=  0.000E+00 dE (1.order)= 0.000E+00
 bond charge predicted
       N       E                     dE             d eps       ncg     rms          rms(c)
DAV:   1    -0.129113760264E+03   -0.26630E-03   -0.17306E-03   439   0.218E-01    0.111E-02
DAV:   2    -0.129113777300E+03   -0.17036E-04   -0.40721E-05   368   0.321E-02    0.681E-03
DAV:   3    -0.129113792608E+03   -0.15308E-04   -0.43047E-06   359   0.109E-02    0.378E-03
DAV:   4    -0.129113816542E+03   -0.23934E-04   -0.21648E-06   320   0.676E-03    0.131E-03
DAV:   5    -0.129113834848E+03   -0.18306E-04   -0.10119E-06   368   0.443E-03    0.962E-04
DAV:   6    -0.129113856652E+03   -0.21804E-04   -0.12227E-06   277   0.431E-03
  15 F= -.12911386E+03 E0= -.12911386E+03  d E =-.361874E-03
damped:  g(F)=  0.000E+00 g(S)=  0.000E+00 dE (1.order)= 0.000E+00
 bond charge predicted
       N       E                     dE             d eps       ncg     rms          rms(c)
DAV:   1    -0.129114317907E+03   -0.48306E-03   -0.61949E-03   400   0.414E-01    0.175E-02
DAV:   2    -0.129114334221E+03   -0.16314E-04   -0.16448E-04   400   0.605E-02    0.111E-02
DAV:   3    -0.129114336647E+03   -0.24262E-05   -0.73113E-06   248   0.144E-02    0.674E-03
DAV:   4    -0.129114342569E+03   -0.59214E-05   -0.54644E-06   273   0.119E-02    0.165E-03
DAV:   5    -0.129114344343E+03   -0.17743E-05   -0.10587E-06   272   0.550E-03    0.109E-03
DAV:   6    -0.129114345822E+03   -0.14794E-05   -0.20750E-07   302   0.235E-03
  16 F= -.12911435E+03 E0= -.12911435E+03  d E =-.489170E-03
damped:  g(F)=  0.000E+00 g(S)=  0.000E+00 dE (1.order)= 0.000E+00
 bond charge predicted
       N       E                     dE             d eps       ncg     rms          rms(c)
DAV:   1    -0.129114900667E+03   -0.55632E-03   -0.10407E-02   333   0.537E-01    0.223E-02
DAV:   2    -0.129114920469E+03   -0.19803E-04   -0.26149E-04   380   0.768E-02    0.140E-02
DAV:   3    -0.129114920006E+03    0.46289E-06   -0.12118E-05   254   0.187E-02    0.844E-03
DAV:   4    -0.129114921404E+03   -0.13975E-05   -0.85736E-06   265   0.150E-02    0.218E-03
DAV:   5    -0.129114921806E+03   -0.40209E-06   -0.16972E-06   272   0.703E-03    0.141E-03
DAV:   6    -0.129114922211E+03   -0.40471E-06   -0.30152E-07   218   0.299E-03
  17 F= -.12911492E+03 E0= -.12911492E+03  d E =-.576389E-03
damped:  g(F)=  0.000E+00 g(S)=  0.000E+00 dE (1.order)= 0.000E+00
 bond charge predicted
       N       E                     dE             d eps       ncg     rms          rms(c)
DAV:   1    -0.129115532464E+03   -0.61066E-03   -0.14148E-02   334   0.623E-01    0.246E-02
DAV:   2    -0.129115555279E+03   -0.22816E-04   -0.31270E-04   368   0.844E-02    0.154E-02
DAV:   3    -0.129115554633E+03    0.64640E-06   -0.15039E-05   272   0.209E-02    0.913E-03
DAV:   4    -0.129115555940E+03   -0.13069E-05   -0.96094E-06   204   0.161E-02    0.238E-03
DAV:   5    -0.129115556176E+03   -0.23624E-06   -0.22034E-06   272   0.812E-03    0.151E-03
DAV:   6    -0.129115556448E+03   -0.27150E-06   -0.34798E-07   204   0.324E-03
  18 F= -.12911556E+03 E0= -.12911556E+03  d E =-.634237E-03
damped:  g(F)=  0.000E+00 g(S)=  0.000E+00 dE (1.order)= 0.000E+00
 bond charge predicted
       N       E                     dE             d eps       ncg     rms          rms(c)
DAV:   1    -0.129116234906E+03   -0.67873E-03   -0.17569E-02   334   0.688E-01    0.265E-02
DAV:   2    -0.129116260134E+03   -0.25228E-04   -0.34667E-04   339   0.885E-02    0.164E-02
DAV:   3    -0.129116260250E+03   -0.11639E-06   -0.17452E-05   256   0.224E-02    0.960E-03
DAV:   4    -0.129116262611E+03   -0.23609E-05   -0.10536E-05   210   0.165E-02    0.275E-03
DAV:   5    -0.129116262820E+03   -0.20877E-06   -0.24265E-06   207   0.864E-03    0.152E-03
DAV:   6    -0.129116263082E+03   -0.26191E-06   -0.42954E-07   202   0.351E-03
  19 F= -.12911626E+03 E0= -.12911626E+03  d E =-.706634E-03
damped:  g(F)=  0.000E+00 g(S)=  0.000E+00 dE (1.order)= 0.000E+00
 bond charge predicted
       N       E                     dE             d eps       ncg     rms          rms(c)
DAV:   1    -0.129117029609E+03   -0.76679E-03   -0.21481E-02   333   0.753E-01    0.290E-02
DAV:   2    -0.129117059139E+03   -0.29530E-04   -0.41375E-04   346   0.951E-02    0.183E-02
DAV:   3    -0.129117059447E+03   -0.30785E-06   -0.21339E-05   264   0.246E-02    0.108E-02
DAV:   4    -0.129117062381E+03   -0.29342E-05   -0.12512E-05   211   0.178E-02    0.323E-03
DAV:   5    -0.129117062543E+03   -0.16182E-06   -0.29960E-06   272   0.969E-03    0.158E-03
DAV:   6    -0.129117062800E+03   -0.25781E-06   -0.57684E-07   206   0.395E-03
  20 F= -.12911706E+03 E0= -.12911706E+03  d E =-.799718E-03
damped:  g(F)=  0.000E+00 g(S)=  0.000E+00 dE (1.order)= 0.000E+00
 bond charge predicted
       N       E                     dE             d eps       ncg     rms          rms(c)
DAV:   1    -0.129118011470E+03   -0.94893E-03   -0.32343E-02   330   0.915E-01    0.358E-02
DAV:   2    -0.129118058335E+03   -0.46865E-04   -0.65794E-04   371   0.115E-01    0.242E-02
DAV:   3    -0.129118055542E+03    0.27937E-05   -0.16336E-05   264   0.242E-02    0.147E-02
DAV:   4    -0.129118059949E+03   -0.44070E-05   -0.22201E-05   219   0.241E-02    0.448E-03
DAV:   5    -0.129118059841E+03    0.10771E-06   -0.51463E-06   272   0.128E-02    0.230E-03
DAV:   6    -0.129118060111E+03   -0.27046E-06   -0.98277E-07   208   0.505E-03
  21 F= -.12911806E+03 E0= -.12911806E+03  d E =-.997311E-03
damped:  g(F)=  0.000E+00 g(S)=  0.000E+00 dE (1.order)= 0.000E+00
 bond charge predicted
       N       E                     dE             d eps       ncg     rms          rms(c)
DAV:   1    -0.129119238294E+03   -0.11785E-02   -0.48698E-02   331   0.111E+00    0.438E-02
DAV:   2    -0.129119304984E+03   -0.66690E-04   -0.94274E-04   355   0.137E-01    0.294E-02
DAV:   3    -0.129119302588E+03    0.23962E-05   -0.27091E-05   229   0.296E-02    0.179E-02
DAV:   4    -0.129119309673E+03   -0.70854E-05   -0.34150E-05   233   0.304E-02    0.550E-03
DAV:   5    -0.129119309605E+03    0.67812E-07   -0.83369E-06   224   0.150E-02    0.337E-03
DAV:   6    -0.129119309998E+03   -0.39287E-06   -0.21237E-06   190   0.686E-03
  22 F= -.12911931E+03 E0= -.12911931E+03  d E =-.124989E-02
damped:  g(F)=  0.000E+00 g(S)=  0.000E+00 dE (1.order)= 0.000E+00
 bond charge predicted
       N       E                     dE             d eps       ncg     rms          rms(c)
DAV:   1    -0.129120809459E+03   -0.14999E-02   -0.74625E-02   330   0.136E+00    0.537E-02
DAV:   2    -0.129120907912E+03   -0.98453E-04   -0.13715E-03   337   0.165E-01    0.348E-02
DAV:   3    -0.129120907035E+03    0.87730E-06   -0.46233E-05   316   0.347E-02    0.206E-02
DAV:   4    -0.129120917582E+03   -0.10547E-04   -0.32789E-05   236   0.311E-02    0.509E-03
DAV:   5    -0.129120917857E+03   -0.27468E-06   -0.76741E-06   264   0.150E-02    0.303E-03
DAV:   6    -0.129120918353E+03   -0.49614E-06   -0.13049E-06   202   0.597E-03
  23 F= -.12912092E+03 E0= -.12912092E+03  d E =-.160835E-02
damped:  g(F)=  0.000E+00 g(S)=  0.000E+00 dE (1.order)= 0.000E+00
 bond charge predicted
       N       E                     dE             d eps       ncg     rms          rms(c)
DAV:   1    -0.129122759921E+03   -0.18421E-02   -0.11787E-01   332   0.171E+00    0.673E-02
DAV:   2    -0.129122915212E+03   -0.15529E-03   -0.21588E-03   364   0.209E-01    0.430E-02
DAV:   3    -0.129122912931E+03    0.22811E-05   -0.67322E-05   316   0.417E-02    0.252E-02
DAV:   4    -0.129122926690E+03   -0.13759E-04   -0.46661E-05   220   0.372E-02    0.540E-03
DAV:   5    -0.129122927439E+03   -0.74916E-06   -0.11175E-05   272   0.176E-02    0.349E-03
DAV:   6    -0.129122927968E+03   -0.52931E-06   -0.16790E-06   256   0.669E-03
  24 F= -.12912293E+03 E0= -.12912293E+03  d E =-.200962E-02
damped:  g(F)=  0.000E+00 g(S)=  0.000E+00 dE (1.order)= 0.000E+00
 bond charge predicted
       N       E                     dE             d eps       ncg     rms          rms(c)
DAV:   1    -0.129125010940E+03   -0.20835E-02   -0.17917E-01   328   0.211E+00    0.832E-02
DAV:   2    -0.129125247219E+03   -0.23628E-03   -0.32839E-03   380   0.256E-01    0.526E-02
DAV:   3    -0.129125240562E+03    0.66571E-05   -0.87724E-05   293   0.494E-02    0.305E-02
DAV:   4    -0.129125260032E+03   -0.19471E-04   -0.68274E-05   267   0.434E-02    0.643E-03
DAV:   5    -0.129125261159E+03   -0.11266E-05   -0.14910E-05   256   0.205E-02    0.385E-03
DAV:   6    -0.129125261971E+03   -0.81189E-06   -0.20825E-06   246   0.726E-03
  25 F= -.12912526E+03 E0= -.12912526E+03  d E =-.233400E-02
damped:  g(F)=  0.000E+00 g(S)=  0.000E+00 dE (1.order)= 0.000E+00
 bond charge predicted
       N       E                     dE             d eps       ncg     rms          rms(c)
DAV:   1    -0.129127667664E+03   -0.24065E-02   -0.25188E-01   328   0.249E+00    0.986E-02
DAV:   2    -0.129127980948E+03   -0.31328E-03   -0.44139E-03   356   0.295E-01    0.633E-02
DAV:   3    -0.129127979760E+03    0.11879E-05   -0.14806E-04   300   0.606E-02    0.368E-02
DAV:   4    -0.129128013016E+03   -0.33256E-04   -0.10376E-04   301   0.525E-02    0.971E-03
DAV:   5    -0.129128013245E+03   -0.22907E-06   -0.23301E-05   247   0.257E-02    0.529E-03
DAV:   6    -0.129128014393E+03   -0.11482E-05   -0.45120E-06   204   0.103E-02
  26 F= -.12912801E+03 E0= -.12912801E+03  d E =-.275242E-02
damped:  g(F)=  0.000E+00 g(S)=  0.000E+00 dE (1.order)= 0.000E+00
 bond charge predicted
       N       E                     dE             d eps       ncg     rms          rms(c)
DAV:   1    -0.129130749150E+03   -0.27359E-02   -0.35862E-01   329   0.297E+00    0.119E-01
DAV:   2    -0.129131192690E+03   -0.44354E-03   -0.63171E-03   340   0.350E-01    0.774E-02
DAV:   3    -0.129131195822E+03   -0.31323E-05   -0.22143E-04   357   0.734E-02    0.453E-02
DAV:   4    -0.129131244809E+03   -0.48987E-04   -0.14428E-04   340   0.622E-02    0.120E-02
DAV:   5    -0.129131244373E+03    0.43597E-06   -0.33404E-05   272   0.305E-02    0.624E-03
DAV:   6    -0.129131245846E+03   -0.14730E-05   -0.68182E-06   256   0.124E-02
  27 F= -.12913125E+03 E0= -.12913125E+03  d E =-.323145E-02
damped:  g(F)=  0.000E+00 g(S)=  0.000E+00 dE (1.order)= 0.000E+00
 bond charge predicted
       N       E                     dE             d eps       ncg     rms          rms(c)
DAV:   1    -0.129134268091E+03   -0.30237E-02   -0.52214E-01   328   0.358E+00    0.143E-01
DAV:   2    -0.129134915852E+03   -0.64776E-03   -0.90701E-03   364   0.420E-01    0.915E-02
DAV:   3    -0.129134929543E+03   -0.13690E-04   -0.31058E-04   364   0.847E-02    0.533E-02
DAV:   4    -0.129134998190E+03   -0.68647E-04   -0.17070E-04   332   0.681E-02    0.126E-02
DAV:   5    -0.129134999451E+03   -0.12614E-05   -0.39361E-05   272   0.332E-02    0.720E-03
DAV:   6    -0.129135001220E+03   -0.17691E-05   -0.75454E-06   256   0.133E-02
  28 F= -.12913500E+03 E0= -.12913500E+03  d E =-.375537E-02
damped:  g(F)=  0.000E+00 g(S)=  0.000E+00 dE (1.order)= 0.000E+00
 bond charge predicted
       N       E                     dE             d eps       ncg     rms          rms(c)
DAV:   1    -0.129138207858E+03   -0.32084E-02   -0.76257E-01   328   0.433E+00    0.174E-01
DAV:   2    -0.129139179563E+03   -0.97170E-03   -0.13472E-02   373   0.514E-01    0.111E-01
DAV:   3    -0.129139200999E+03   -0.21436E-04   -0.44698E-04   365   0.102E-01    0.639E-02
DAV:   4    -0.129139296194E+03   -0.95195E-04   -0.28061E-04   387   0.847E-02    0.156E-02
DAV:   5    -0.129139295672E+03    0.52168E-06   -0.50379E-05   272   0.383E-02    0.939E-03
DAV:   6    -0.129139298001E+03   -0.23286E-05   -0.12143E-05   224   0.173E-02
  29 F= -.12913930E+03 E0= -.12913930E+03  d E =-.429678E-02
damped:  g(F)=  0.000E+00 g(S)=  0.000E+00 dE (1.order)= 0.000E+00
 bond charge predicted
       N       E                     dE             d eps       ncg     rms          rms(c)
DAV:   1    -0.129142650552E+03   -0.33549E-02   -0.10453E+00   328   0.506E+00    0.207E-01
DAV:   2    -0.129143937502E+03   -0.12870E-02   -0.18250E-02   364   0.596E-01    0.133E-01
DAV:   3    -0.129143975677E+03   -0.38175E-04   -0.67356E-04   421   0.124E-01    0.776E-02
DAV:   4    -0.129144109451E+03   -0.13377E-03   -0.32443E-04   428   0.905E-02    0.190E-02
DAV:   5    -0.129144110704E+03   -0.12532E-05   -0.60933E-05   272   0.422E-02    0.104E-02
DAV:   6    -0.129144113846E+03   -0.31420E-05   -0.14433E-05   240   0.190E-02
  30 F= -.12914411E+03 E0= -.12914411E+03  d E =-.481585E-02
damped:  g(F)=  0.000E+00 g(S)=  0.000E+00 dE (1.order)= 0.000E+00
 bond charge predicted
       N       E                     dE             d eps       ncg     rms          rms(c)
DAV:   1    -0.129147452631E+03   -0.33419E-02   -0.14554E+00   328   0.595E+00    0.243E-01
DAV:   2    -0.129149212461E+03   -0.17598E-02   -0.24694E-02   364   0.692E-01    0.154E-01
DAV:   3    -0.129149272995E+03   -0.60535E-04   -0.87782E-04   412   0.138E-01    0.885E-02
DAV:   4    -0.129149448513E+03   -0.17552E-03   -0.39754E-04   428   0.100E-01    0.197E-02
DAV:   5    -0.129149451897E+03   -0.33845E-05   -0.71504E-05   271   0.454E-02    0.113E-02
DAV:   6    -0.129149455298E+03   -0.34014E-05   -0.14663E-05   254   0.192E-02
  31 F= -.12914946E+03 E0= -.12914946E+03  d E =-.534145E-02
damped:  g(F)=  0.000E+00 g(S)=  0.000E+00 dE (1.order)= 0.000E+00
 bond charge predicted
       N       E                     dE             d eps       ncg     rms          rms(c)
DAV:   1    -0.129152679464E+03   -0.32276E-02   -0.19663E+00   328   0.690E+00    0.284E-01
DAV:   2    -0.129155002153E+03   -0.23227E-02   -0.32523E-02   364   0.791E-01    0.180E-01
DAV:   3    -0.129155101306E+03   -0.99153E-04   -0.11738E-03   428   0.156E-01    0.102E-01
DAV:   4    -0.129155325542E+03   -0.22424E-03   -0.48206E-04   445   0.109E-01    0.215E-02
DAV:   5    -0.129155331970E+03   -0.64276E-05   -0.81367E-05   280   0.477E-02    0.127E-02
DAV:   6    -0.129155336172E+03   -0.42023E-05   -0.16392E-05   320   0.194E-02
  32 F= -.12915534E+03 E0= -.12915534E+03  d E =-.588087E-02
damped:  g(F)=  0.000E+00 g(S)=  0.000E+00 dE (1.order)= 0.000E+00
 bond charge predicted
       N       E                     dE             d eps       ncg     rms          rms(c)
DAV:   1    -0.129157877644E+03   -0.25457E-02   -0.26541E+00   328   0.798E+00    0.331E-01
DAV:   2    -0.129160935818E+03   -0.30582E-02   -0.43558E-02   364   0.912E-01    0.211E-01
DAV:   3    -0.129161084299E+03   -0.14848E-03   -0.15610E-03   429   0.180E-01    0.121E-01
DAV:   4    -0.129161403311E+03   -0.31901E-03   -0.64342E-04   427   0.128E-01    0.242E-02
DAV:   5    -0.129161413396E+03   -0.10084E-04   -0.11340E-04   336   0.552E-02    0.147E-02
DAV:   6    -0.129161417273E+03   -0.38777E-05   -0.11944E-05   272   0.182E-02
  33 F= -.12916142E+03 E0= -.12916142E+03  d E =-.608110E-02
damped:  g(F)=  0.000E+00 g(S)=  0.000E+00 dE (1.order)= 0.000E+00
 bond charge predicted
       N       E                     dE             d eps       ncg     rms          rms(c)
DAV:   1    -0.129160064785E+03    0.13486E-02   -0.36669E+00   328   0.965E+00    0.402E-01
DAV:   2    -0.129165035342E+03   -0.49706E-02   -0.68830E-02   356   0.119E+00    0.257E-01
DAV:   3    -0.129164994816E+03    0.40526E-04   -0.24063E-03   464   0.232E-01    0.145E-01
DAV:   4    -0.129165303835E+03   -0.30902E-03   -0.97858E-04   407   0.164E-01    0.275E-02
DAV:   5    -0.129165324865E+03   -0.21030E-04   -0.16251E-04   400   0.650E-02    0.181E-02
DAV:   6    -0.129165332324E+03   -0.74587E-05   -0.14461E-05   342   0.201E-02
  34 F= -.12916533E+03 E0= -.12916533E+03  d E =-.391505E-02
damped:  g(F)=  0.000E+00 g(S)=  0.000E+00 dE (1.order)= 0.000E+00
 bond charge predicted
       N       E                     dE             d eps       ncg     rms          rms(c)
DAV:   1    -0.129167739883E+03   -0.24150E-02   -0.16533E-01   334   0.196E+00    0.135E-01
DAV:   2    -0.129168255469E+03   -0.51559E-03   -0.74886E-03   396   0.368E-01    0.795E-02
DAV:   3    -0.129168185724E+03    0.69745E-04   -0.21770E-04   423   0.788E-02    0.451E-02
DAV:   4    -0.129168163315E+03    0.22409E-04   -0.13591E-04   297   0.595E-02    0.100E-02
DAV:   5    -0.129168166171E+03   -0.28551E-05   -0.28927E-05   368   0.259E-02    0.563E-03
DAV:   6    -0.129168168478E+03   -0.23077E-05   -0.35056E-06   350   0.978E-03
  35 F= -.12916817E+03 E0= -.12916817E+03  d E =-.283615E-02
damped:  g(F)=  0.000E+00 g(S)=  0.000E+00 dE (1.order)= 0.000E+00
 bond charge predicted
       N       E                     dE             d eps       ncg     rms          rms(c)
DAV:   1    -0.129166118100E+03    0.20481E-02   -0.14936E-01   340   0.192E+00    0.124E-01
DAV:   2    -0.129166547805E+03   -0.42971E-03   -0.68470E-03   431   0.360E-01    0.756E-02
DAV:   3    -0.129166458154E+03    0.89651E-04   -0.19277E-04   432   0.753E-02    0.445E-02
DAV:   4    -0.129166409139E+03    0.49014E-04   -0.13790E-04   365   0.607E-02    0.102E-02
DAV:   5    -0.129166410862E+03   -0.17230E-05   -0.29442E-05   368   0.271E-02    0.575E-03
DAV:   6    -0.129166417143E+03   -0.62804E-05   -0.37867E-06   272   0.104E-02
  36 F= -.12916642E+03 E0= -.12916642E+03  d E =0.175134E-02
damped:  g(F)=  0.000E+00 g(S)=  0.000E+00 dE (1.order)= 0.000E+00
 bond charge predicted
       N       E                     dE             d eps       ncg     rms          rms(c)
DAV:   1    -0.129167285698E+03   -0.87484E-03   -0.73889E-03   363   0.426E-01    0.289E-02
DAV:   2    -0.129167319912E+03   -0.34214E-04   -0.34135E-04   432   0.792E-02    0.166E-02
DAV:   3    -0.129167324923E+03   -0.50111E-05   -0.11600E-05   238   0.183E-02    0.970E-03
DAV:   4    -0.129167336244E+03   -0.11321E-04   -0.78061E-06   301   0.139E-02    0.206E-03
DAV:   5    -0.129167341213E+03   -0.49685E-05   -0.18186E-06   368   0.634E-03    0.102E-03
DAV:   6    -0.129167343679E+03   -0.24660E-05   -0.28561E-07   238   0.256E-03
  37 F= -.12916734E+03 E0= -.12916734E+03  d E =-.926536E-03
damped:  g(F)=  0.000E+00 g(S)=  0.000E+00 dE (1.order)= 0.000E+00
 bond charge predicted
       N       E                     dE             d eps       ncg     rms          rms(c)
DAV:   1    -0.129168303194E+03   -0.96198E-03   -0.23426E-02   349   0.756E-01    0.511E-02
DAV:   2    -0.129168378549E+03   -0.75355E-04   -0.11114E-03   418   0.142E-01    0.303E-02
DAV:   3    -0.129168366782E+03    0.11767E-04   -0.28974E-05   367   0.297E-02    0.180E-02
DAV:   4    -0.129168359967E+03    0.68152E-05   -0.26348E-05   265   0.263E-02    0.383E-03
DAV:   5    -0.129168359900E+03    0.67129E-07   -0.59513E-06   368   0.120E-02    0.213E-03
DAV:   6    -0.129168360332E+03   -0.43261E-06   -0.81072E-07   288   0.467E-03
  38 F= -.12916836E+03 E0= -.12916836E+03  d E =-.101665E-02
damped:  g(F)=  0.000E+00 g(S)=  0.000E+00 dE (1.order)= 0.000E+00
 bond charge predicted
       N       E                     dE             d eps       ncg     rms          rms(c)
DAV:   1    -0.129168592663E+03   -0.23276E-03   -0.33660E-02   383   0.903E-01    0.614E-02
DAV:   2    -0.129168691518E+03   -0.98854E-04   -0.15912E-03   407   0.170E-01    0.366E-02
DAV:   3    -0.129168669903E+03    0.21615E-04   -0.42844E-05   368   0.362E-02    0.216E-02
DAV:   4    -0.129168655353E+03    0.14550E-04   -0.37929E-05   332   0.316E-02    0.467E-03
DAV:   5    -0.129168655199E+03    0.15374E-06   -0.87233E-06   368   0.145E-02    0.264E-03
DAV:   6    -0.129168656560E+03   -0.13609E-05   -0.12452E-06   304   0.572E-03
  39 F= -.12916866E+03 E0= -.12916866E+03  d E =-.296228E-03
damped:  g(F)=  0.000E+00 g(S)=  0.000E+00 dE (1.order)= 0.000E+00
 bond charge predicted
       N       E                     dE             d eps       ncg     rms          rms(c)
DAV:   1    -0.129168672592E+03   -0.17392E-04   -0.13744E-05   334   0.191E-02    0.124E-03
DAV:   2    -0.129168674643E+03   -0.20516E-05   -0.77907E-07   272   0.477E-03    0.737E-04
DAV:   3    -0.129168677041E+03   -0.23975E-05   -0.14873E-07   254   0.190E-03    0.483E-04
DAV:   4    -0.129168680426E+03   -0.33850E-05   -0.90920E-08   303   0.131E-03    0.235E-04
DAV:   5    -0.129168682666E+03   -0.22402E-05   -0.33969E-08   296   0.865E-04    0.175E-04
DAV:   6    -0.129168685178E+03   -0.25121E-05   -0.36140E-08   266   0.834E-04
  40 F= -.12916869E+03 E0= -.12916869E+03  d E =-.286179E-04
damped:  g(F)=  0.000E+00 g(S)=  0.000E+00 dE (1.order)= 0.000E+00
 bond charge predicted
       N       E                     dE             d eps       ncg     rms          rms(c)
DAV:   1    -0.129168711078E+03   -0.28412E-04   -0.55044E-05   302   0.390E-02    0.200E-03
DAV:   2    -0.129168711703E+03   -0.62550E-06   -0.31009E-06   272   0.957E-03    0.120E-03
DAV:   3    -0.129168712068E+03   -0.36460E-06   -0.26733E-07   215   0.292E-03    0.848E-04
DAV:   4    -0.129168712688E+03   -0.62050E-06   -0.45885E-08   293   0.171E-03    0.262E-04
DAV:   5    -0.129168712938E+03   -0.25013E-06    0.38773E-08   271   0.745E-04    0.153E-04
DAV:   6    -0.129168713190E+03   -0.25191E-06    0.53861E-08   204   0.446E-04
  41 F= -.12916871E+03 E0= -.12916871E+03  d E =-.280120E-04
damped:  g(F)=  0.000E+00 g(S)=  0.000E+00 dE (1.order)= 0.000E+00
 bond charge predicted
       N       E                     dE             d eps       ncg     rms          rms(c)
DAV:   1    -0.129168746320E+03   -0.33382E-04   -0.11401E-04   270   0.565E-02    0.284E-03
DAV:   2    -0.129168746921E+03   -0.60089E-06   -0.65869E-06   239   0.135E-02    0.175E-03
DAV:   3    -0.129168747058E+03   -0.13702E-06   -0.76305E-07   270   0.428E-03    0.118E-03
DAV:   4    -0.129168747183E+03   -0.12453E-06   -0.18513E-07   213   0.248E-03    0.310E-04
DAV:   5    -0.129168747238E+03   -0.55245E-07   -0.48615E-09   256   0.118E-03    0.199E-04
DAV:   6    -0.129168747292E+03   -0.54100E-07    0.47026E-08   204   0.706E-04
  42 F= -.12916875E+03 E0= -.12916875E+03  d E =-.341017E-04
damped:  g(F)=  0.000E+00 g(S)=  0.000E+00 dE (1.order)= 0.000E+00
 bond charge predicted
       N       E                     dE             d eps       ncg     rms          rms(c)
DAV:   1    -0.129168786985E+03   -0.39748E-04   -0.18595E-04   375   0.717E-02    0.365E-03
DAV:   2    -0.129168787379E+03   -0.39348E-06   -0.81081E-06   236   0.150E-02    0.221E-03
DAV:   3    -0.129168787344E+03    0.34533E-07   -0.72024E-07   264   0.476E-03    0.144E-03
DAV:   4    -0.129168787271E+03    0.73833E-07   -0.16389E-07   220   0.277E-03    0.384E-04
DAV:   5    -0.129168787280E+03   -0.94878E-08    0.19621E-08   171   0.127E-03    0.227E-04
DAV:   6    -0.129168787320E+03   -0.40261E-07    0.60620E-08   226   0.700E-04
  43 F= -.12916879E+03 E0= -.12916879E+03  d E =-.400284E-04
damped:  g(F)=  0.000E+00 g(S)=  0.000E+00 dE (1.order)= 0.000E+00
 bond charge predicted
       N       E                     dE             d eps       ncg     rms          rms(c)
DAV:   1    -0.129168831368E+03   -0.44088E-04   -0.25011E-04   293   0.838E-02    0.404E-03
DAV:   2    -0.129168832024E+03   -0.65613E-06   -0.11118E-05   220   0.178E-02    0.248E-03
DAV:   3    -0.129168832020E+03    0.44765E-08   -0.11127E-06   211   0.577E-03    0.159E-03
DAV:   4    -0.129168831950E+03    0.69816E-07   -0.27015E-07   217   0.319E-03    0.410E-04
DAV:   5    -0.129168831967E+03   -0.17291E-07   -0.16835E-08   164   0.153E-03    0.250E-04
DAV:   6    -0.129168832018E+03   -0.50108E-07    0.44023E-08   167   0.838E-04
  44 F= -.12916883E+03 E0= -.12916883E+03  d E =-.446972E-04
damped:  g(F)=  0.000E+00 g(S)=  0.000E+00 dE (1.order)= 0.000E+00
 bond charge predicted
       N       E                     dE             d eps       ncg     rms          rms(c)
DAV:   1    -0.129168879790E+03   -0.47823E-04   -0.30633E-04   296   0.926E-02    0.430E-03
DAV:   2    -0.129168880305E+03   -0.51522E-06   -0.10122E-05   205   0.160E-02    0.267E-03
DAV:   3    -0.129168880297E+03    0.83128E-08   -0.10654E-06   168   0.552E-03    0.160E-03
DAV:   4    -0.129168880259E+03    0.38658E-07   -0.26998E-07   220   0.310E-03    0.412E-04
DAV:   5    -0.129168880291E+03   -0.32042E-07   -0.21006E-08   164   0.155E-03    0.238E-04
DAV:   6    -0.129168880354E+03   -0.63692E-07    0.40493E-08   175   0.816E-04
  45 F= -.12916888E+03 E0= -.12916888E+03  d E =-.483367E-04
damped:  g(F)=  0.000E+00 g(S)=  0.000E+00 dE (1.order)= 0.000E+00
 bond charge predicted
       N       E                     dE             d eps       ncg     rms          rms(c)
DAV:   1    -0.129168937479E+03   -0.57188E-04   -0.42374E-04   298   0.109E-01    0.479E-03
DAV:   2    -0.129168938156E+03   -0.67765E-06   -0.12388E-05   202   0.179E-02    0.296E-03
DAV:   3    -0.129168938203E+03   -0.46837E-07   -0.13404E-06   164   0.623E-03    0.174E-03
DAV:   4    -0.129168938205E+03   -0.15225E-08   -0.34780E-07   164   0.344E-03    0.425E-04
DAV:   5    -0.129168938247E+03   -0.42775E-07   -0.46349E-08   164   0.172E-03    0.255E-04
DAV:   6    -0.129168938318E+03   -0.70133E-07    0.30513E-08   165   0.896E-04
  46 F= -.12916894E+03 E0= -.12916894E+03  d E =-.579633E-04
damped:  g(F)=  0.000E+00 g(S)=  0.000E+00 dE (1.order)= 0.000E+00
 bond charge predicted
       N       E                     dE             d eps       ncg     rms          rms(c)
DAV:   1    -0.129169009299E+03   -0.71051E-04   -0.57344E-04   328   0.125E-01    0.542E-03
DAV:   2    -0.129169009875E+03   -0.57595E-06   -0.11587E-05   200   0.168E-02    0.327E-03
DAV:   3    -0.129169009974E+03   -0.99785E-07   -0.12995E-06   164   0.589E-03    0.173E-03
DAV:   4    -0.129169010051E+03   -0.77105E-07   -0.33431E-07   164   0.316E-03    0.401E-04
DAV:   5    -0.129169010110E+03   -0.58148E-07   -0.53472E-08   164   0.159E-03    0.224E-04
DAV:   6    -0.129169010180E+03   -0.70412E-07    0.26683E-08   164   0.814E-04
  47 F= -.12916901E+03 E0= -.12916901E+03  d E =-.718624E-04
damped:  g(F)=  0.000E+00 g(S)=  0.000E+00 dE (1.order)= 0.000E+00
 bond charge predicted
       N       E                     dE             d eps       ncg     rms          rms(c)
DAV:   1    -0.129169101196E+03   -0.91086E-04   -0.79242E-04   347   0.143E-01    0.590E-03
DAV:   2    -0.129169101887E+03   -0.69150E-06   -0.13015E-05   200   0.176E-02    0.357E-03
DAV:   3    -0.129169102139E+03   -0.25163E-06   -0.15233E-06   164   0.625E-03    0.182E-03
DAV:   4    -0.129169102326E+03   -0.18731E-06   -0.39818E-07   164   0.325E-03    0.379E-04
DAV:   5    -0.129169102397E+03   -0.70563E-07   -0.79124E-08   169   0.163E-03    0.230E-04
DAV:   6    -0.129169102457E+03   -0.60047E-07    0.17526E-08   231   0.823E-04
  48 F= -.12916910E+03 E0= -.12916910E+03  d E =-.922770E-04
damped:  g(F)=  0.000E+00 g(S)=  0.000E+00 dE (1.order)= 0.000E+00
 bond charge predicted
       N       E                     dE             d eps       ncg     rms          rms(c)
DAV:   1    -0.129169221264E+03   -0.11887E-03   -0.11723E-03   334   0.171E-01    0.704E-03
DAV:   2    -0.129169222238E+03   -0.97400E-06   -0.17399E-05   247   0.198E-02    0.424E-03
DAV:   3    -0.129169222672E+03   -0.43380E-06   -0.21301E-06   195   0.718E-03    0.208E-03
DAV:   4    -0.129169222947E+03   -0.27530E-06   -0.58074E-07   231   0.363E-03    0.433E-04
DAV:   5    -0.129169223005E+03   -0.58396E-07   -0.13991E-07   167   0.185E-03    0.262E-04
DAV:   6    -0.129169223038E+03   -0.32154E-07   -0.44104E-09   164   0.939E-04
  49 F= -.12916922E+03 E0= -.12916922E+03  d E =-.120581E-03
damped:  g(F)=  0.000E+00 g(S)=  0.000E+00 dE (1.order)= 0.000E+00
 bond charge predicted
       N       E                     dE             d eps       ncg     rms          rms(c)
DAV:   1    -0.129169375265E+03   -0.15226E-03   -0.18487E-03   330   0.215E-01    0.896E-03
DAV:   2    -0.129169376887E+03   -0.16227E-05   -0.28849E-05   240   0.258E-02    0.544E-03
DAV:   3    -0.129169377484E+03   -0.59621E-06   -0.36361E-06   230   0.947E-03    0.274E-03
DAV:   4    -0.129169377831E+03   -0.34719E-06   -0.10495E-06   217   0.488E-03    0.627E-04
DAV:   5    -0.129169377886E+03   -0.55052E-07   -0.29213E-07   164   0.253E-03    0.350E-04
DAV:   6    -0.129169377914E+03   -0.28334E-07   -0.63545E-08   164   0.128E-03
  50 F= -.12916938E+03 E0= -.12916938E+03  d E =-.154877E-03
damped:  g(F)=  0.000E+00 g(S)=  0.000E+00 dE (1.order)= 0.000E+00
 bond charge predicted
       N       E                     dE             d eps       ncg     rms          rms(c)
DAV:   1    -0.129169565209E+03   -0.18732E-03   -0.29550E-03   327   0.275E-01    0.116E-02
DAV:   2    -0.129169567944E+03   -0.27359E-05   -0.49505E-05   222   0.343E-02    0.706E-03
DAV:   3    -0.129169568713E+03   -0.76861E-06   -0.63032E-06   272   0.126E-02    0.365E-03
DAV:   4    -0.129169569142E+03   -0.42862E-06   -0.18725E-06   224   0.658E-03    0.879E-04
DAV:   5    -0.129169569221E+03   -0.79719E-07   -0.54862E-07   197   0.342E-03    0.469E-04
DAV:   6    -0.129169569289E+03   -0.67534E-07   -0.15744E-07   175   0.173E-03
  51 F= -.12916957E+03 E0= -.12916957E+03  d E =-.191375E-03
damped:  g(F)=  0.000E+00 g(S)=  0.000E+00 dE (1.order)= 0.000E+00
 bond charge predicted
       N       E                     dE             d eps       ncg     rms          rms(c)
DAV:   1    -0.129169792520E+03   -0.22330E-03   -0.45581E-03   328   0.341E-01    0.144E-02
DAV:   2    -0.129169796718E+03   -0.41978E-05   -0.76303E-05   201   0.426E-02    0.879E-03
DAV:   3    -0.129169797874E+03   -0.11560E-05   -0.97524E-06   272   0.156E-02    0.454E-03
DAV:   4    -0.129169798523E+03   -0.64919E-06   -0.29309E-06   208   0.818E-03    0.109E-03
DAV:   5    -0.129169798656E+03   -0.13232E-06   -0.88537E-07   202   0.426E-03    0.586E-04
DAV:   6    -0.129169798767E+03   -0.11078E-06   -0.27920E-07   200   0.215E-03
  52 F= -.12916980E+03 E0= -.12916980E+03  d E =-.229478E-03
damped:  g(F)=  0.000E+00 g(S)=  0.000E+00 dE (1.order)= 0.000E+00
 bond charge predicted
       N       E                     dE             d eps       ncg     rms          rms(c)
DAV:   1    -0.129170066095E+03   -0.26744E-03   -0.67266E-03   332   0.410E-01    0.171E-02
DAV:   2    -0.129170072376E+03   -0.62814E-05   -0.10824E-04   236   0.491E-02    0.105E-02
DAV:   3    -0.129170073923E+03   -0.15473E-05   -0.10143E-05   220   0.146E-02    0.552E-03
DAV:   4    -0.129170075042E+03   -0.11183E-05   -0.40828E-06   202   0.908E-03    0.118E-03
DAV:   5    -0.129170075238E+03   -0.19650E-06   -0.12704E-06   199   0.481E-03    0.729E-04
DAV:   6    -0.129170075374E+03   -0.13543E-06   -0.40740E-07   199   0.230E-03
  53 F= -.12917008E+03 E0= -.12917008E+03  d E =-.276607E-03
damped:  g(F)=  0.000E+00 g(S)=  0.000E+00 dE (1.order)= 0.000E+00
 bond charge predicted
       N       E                     dE             d eps       ncg     rms          rms(c)
DAV:   1    -0.129170404856E+03   -0.32962E-03   -0.99083E-03   333   0.495E-01    0.205E-02
DAV:   2    -0.129170414655E+03   -0.97996E-05   -0.15925E-04   268   0.571E-02    0.128E-02
DAV:   3    -0.129170416532E+03   -0.18769E-05   -0.93567E-06   247   0.153E-02    0.671E-03
DAV:   4    -0.129170418156E+03   -0.16238E-05   -0.41101E-06   245   0.100E-02    0.130E-03
DAV:   5    -0.129170418324E+03   -0.16784E-06   -0.10531E-06   202   0.485E-03    0.941E-04
DAV:   6    -0.129170418443E+03   -0.11906E-06   -0.24988E-07   237   0.224E-03
  54 F= -.12917042E+03 E0= -.12917042E+03  d E =-.343069E-03
damped:  g(F)=  0.000E+00 g(S)=  0.000E+00 dE (1.order)= 0.000E+00
 bond charge predicted
       N       E                     dE             d eps       ncg     rms          rms(c)
DAV:   1    -0.129170820084E+03   -0.40176E-03   -0.15021E-02   332   0.614E-01    0.255E-02
DAV:   2    -0.129170835415E+03   -0.15332E-04   -0.24633E-04   284   0.719E-02    0.159E-02
DAV:   3    -0.129170837917E+03   -0.25013E-05   -0.14082E-05   264   0.189E-02    0.833E-03
DAV:   4    -0.129170840048E+03   -0.21314E-05   -0.62729E-06   218   0.127E-02    0.158E-03
DAV:   5    -0.129170840244E+03   -0.19579E-06   -0.16096E-06   272   0.599E-03    0.116E-03
DAV:   6    -0.129170840369E+03   -0.12551E-06   -0.39595E-07   206   0.275E-03
  55 F= -.12917084E+03 E0= -.12917084E+03  d E =-.421926E-03
damped:  g(F)=  0.000E+00 g(S)=  0.000E+00 dE (1.order)= 0.000E+00
 bond charge predicted
       N       E                     dE             d eps       ncg     rms          rms(c)
DAV:   1    -0.129171311026E+03   -0.47078E-03   -0.22547E-02   336   0.754E-01    0.314E-02
DAV:   2    -0.129171335045E+03   -0.24020E-04   -0.37998E-04   340   0.888E-02    0.193E-02
DAV:   3    -0.129171338089E+03   -0.30440E-05   -0.18230E-05   247   0.221E-02    0.978E-03
DAV:   4    -0.129171340795E+03   -0.27055E-05   -0.85422E-06   254   0.145E-02    0.207E-03
DAV:   5    -0.129171341053E+03   -0.25853E-06   -0.19085E-06   272   0.716E-03    0.105E-03
DAV:   6    -0.129171341228E+03   -0.17439E-06   -0.33024E-07   204   0.290E-03
  56 F= -.12917134E+03 E0= -.12917134E+03  d E =-.500858E-03
damped:  g(F)=  0.000E+00 g(S)=  0.000E+00 dE (1.order)= 0.000E+00
 bond charge predicted
       N       E                     dE             d eps       ncg     rms          rms(c)
DAV:   1    -0.129171899507E+03   -0.55845E-03   -0.32587E-02   331   0.898E-01    0.374E-02
DAV:   2    -0.129171932969E+03   -0.33462E-04   -0.53438E-04   340   0.103E-01    0.234E-02
DAV:   3    -0.129171937816E+03   -0.48473E-05   -0.19431E-05   252   0.226E-02    0.121E-02
DAV:   4    -0.129171942345E+03   -0.45286E-05   -0.11882E-05   218   0.167E-02    0.236E-03
DAV:   5    -0.129171942737E+03   -0.39257E-06   -0.28456E-06   204   0.832E-03    0.136E-03
DAV:   6    -0.129171942971E+03   -0.23343E-06   -0.51756E-07   175   0.320E-03
  57 F= -.12917194E+03 E0= -.12917194E+03  d E =-.601743E-03
damped:  g(F)=  0.000E+00 g(S)=  0.000E+00 dE (1.order)= 0.000E+00
 bond charge predicted
       N       E                     dE             d eps       ncg     rms          rms(c)
DAV:   1    -0.129172608121E+03   -0.66538E-03   -0.47509E-02   330   0.108E+00    0.455E-02
DAV:   2    -0.129172658204E+03   -0.50083E-04   -0.80830E-04   363   0.125E-01    0.291E-02
DAV:   3    -0.129172663547E+03   -0.53431E-05   -0.17427E-05   272   0.248E-02    0.155E-02
DAV:   4    -0.129172671185E+03   -0.76378E-05   -0.19090E-05   264   0.203E-02    0.358E-03
DAV:   5    -0.129172671331E+03   -0.14577E-06   -0.32893E-06   272   0.973E-03    0.202E-03
DAV:   6    -0.129172671546E+03   -0.21487E-06   -0.41279E-07   206   0.343E-03
  58 F= -.12917267E+03 E0= -.12917267E+03  d E =-.728575E-03
damped:  g(F)=  0.000E+00 g(S)=  0.000E+00 dE (1.order)= 0.000E+00
 bond charge predicted
       N       E                     dE             d eps       ncg     rms          rms(c)
DAV:   1    -0.129173432930E+03   -0.76160E-03   -0.69303E-02   328   0.131E+00    0.551E-02
DAV:   2    -0.129173505030E+03   -0.72100E-04   -0.11555E-03   328   0.151E-01    0.357E-02
DAV:   3    -0.129173512439E+03   -0.74085E-05   -0.38017E-05   271   0.312E-02    0.191E-02
DAV:   4    -0.129173524204E+03   -0.11765E-04   -0.21155E-05   204   0.240E-02    0.330E-03
DAV:   5    -0.129173524633E+03   -0.42907E-06   -0.47484E-06   264   0.109E-02    0.248E-03
DAV:   6    -0.129173524928E+03   -0.29568E-06   -0.74997E-07   212   0.425E-03
  59 F= -.12917352E+03 E0= -.12917352E+03  d E =-.853383E-03
damped:  g(F)=  0.000E+00 g(S)=  0.000E+00 dE (1.order)= 0.000E+00
 reached required accuracy - stopping structural energy minimisation
