unknown system                          
           1
    30.000000    0.000000    0.000000
     0.000000   30.000000    0.000000
     0.000000    0.000000   30.000000
   H    C    N    O 
  12   6   2   2
Direct configuration=     1
   0.37356297  0.53741463  0.49736593
   0.38253536  0.48872338  0.46390672
   0.37978557  0.48390639  0.52292992
   0.44622428  0.44824000  0.49150476
   0.50865198  0.43904153  0.53998855
   0.56483750  0.43341383  0.47390135
   0.52193680  0.45773256  0.44048827
   0.51342940  0.40456082  0.46613569
   0.50784011  0.55045173  0.51087986
   0.60791928  0.54888469  0.51868271
   0.57932778  0.57742427  0.47496954
   0.57736982  0.59929163  0.53025915
   0.39057439  0.50538152  0.49542172
   0.44005619  0.51367498  0.49981773
   0.51066912  0.46214398  0.51138913
   0.52883781  0.43749084  0.47018317
   0.54710717  0.49600420  0.52392896
   0.57828420  0.56853909  0.51054223
   0.46417297  0.47526655  0.50154448
   0.54014145  0.53996241  0.51849592
   0.45469565  0.55234215  0.50278000
   0.58352896  0.47921492  0.53428461
Direct configuration=     2
   0.37343278  0.53751049  0.49732347
   0.38246947  0.48869630  0.46380487
   0.37964813  0.48385266  0.52298769
   0.44618111  0.44821896  0.49164316
   0.50871884  0.43905434  0.53994965
   0.56492797  0.43328609  0.47390473
   0.52196180  0.45770723  0.44041054
   0.51335243  0.40450054  0.46612357
   0.50794399  0.55045634  0.51084306
   0.60806844  0.54896940  0.51872589
   0.57936518  0.57751593  0.47489004
   0.57735597  0.59931694  0.53033568
   0.39066177  0.50539440  0.49542391
   0.44009796  0.51364852  0.49985205
   0.51061109  0.46217729  0.51135693
   0.52877666  0.43751344  0.47025696
   0.54718738  0.49602283  0.52388655
   0.57820612  0.56851542  0.51057552
   0.46415642  0.47526141  0.50153595
   0.54021551  0.53994950  0.51839480
   0.45458509  0.55233886  0.50282883
   0.58356478  0.47919873  0.53434635
Direct configuration=     3
   0.37329148  0.53757836  0.49725719
   0.38239396  0.48868430  0.46371117
   0.37947016  0.48381337  0.52302052
   0.44610792  0.44818076  0.49184718
   0.50881289  0.43907687  0.53989323
   0.56497984  0.43310951  0.47390815
   0.52200501  0.45765342  0.44032663
   0.51325060  0.40445085  0.46611194
   0.50808453  0.55046434  0.51078374
   0.60823104  0.54912379  0.51877783
   0.57941872  0.57763984  0.47483759
   0.57732559  0.59933044  0.53043719
   0.39066408  0.50540521  0.49542111
   0.44010581  0.51360048  0.49989743
   0.51056731  0.46223307  0.51133283
   0.52875423  0.43749816  0.47029679
   0.54728895  0.49600947  0.52383402
   0.57821092  0.56853542  0.51057826
   0.46415706  0.47524857  0.50153341
   0.54029806  0.53991230  0.51825418
   0.45446957  0.55237161  0.50290849
   0.58360134  0.47918479  0.53443111
Direct configuration=     4
   0.37317075  0.53758408  0.49717075
   0.38232261  0.48870061  0.46365887
   0.37927295  0.48381018  0.52300063
   0.44601066  0.44812666  0.49210700
   0.50892426  0.43910624  0.53982648
   0.56496307  0.43290119  0.47391031
   0.52206971  0.45756688  0.44025811
   0.51313762  0.40443528  0.46610248
   0.50823429  0.55047675  0.51069929
   0.60837765  0.54934530  0.51883173
   0.57948865  0.57778683  0.47484169
   0.57727564  0.59932010  0.53055125
   0.39053611  0.50540123  0.49540872
   0.44006122  0.51358058  0.49995306
   0.51057531  0.46229173  0.51131652
   0.52878317  0.43743082  0.47026851
   0.54737614  0.49596775  0.52377702
   0.57832806  0.56861774  0.51054234
   0.46417002  0.47523082  0.50153989
   0.54040437  0.53985054  0.51808758
   0.45436373  0.55240437  0.50301315
   0.58364325  0.47916852  0.53453439
Direct configuration=     5
   0.37307226  0.53753112  0.49706832
   0.38225597  0.48874305  0.46365042
   0.37905892  0.48384412  0.52292611
   0.44590101  0.44806266  0.49242058
   0.50904730  0.43913625  0.53975839
   0.56489159  0.43266623  0.47391050
   0.52215917  0.45744984  0.44020819
   0.51301759  0.40445624  0.46609345
   0.50838089  0.55049135  0.51058758
   0.60851604  0.54961900  0.51888685
   0.57958133  0.57796054  0.47489691
   0.57720586  0.59928779  0.53067282
   0.39030923  0.50537672  0.49538541
   0.43995604  0.51360833  0.50002043
   0.51065302  0.46232125  0.51128483
   0.52883476  0.43732637  0.47017812
   0.54744066  0.49591567  0.52372103
   0.57851631  0.56874779  0.51049033
   0.46416964  0.47522581  0.50155499
   0.54056284  0.53978815  0.51789409
   0.45426814  0.55240216  0.50313790
   0.58369088  0.47914311  0.53465231
Direct configuration=     6
   0.37297159  0.53745286  0.49695367
   0.38218324  0.48879418  0.46365854
   0.37881253  0.48389660  0.52281873
   0.44579219  0.44799837  0.49279343
   0.50918089  0.43915778  0.53969697
   0.56480863  0.43239881  0.47390697
   0.52227588  0.45731354  0.44015859
   0.51288361  0.40449567  0.46607860
   0.50853947  0.55050002  0.51044873
   0.60868209  0.54992318  0.51894734
   0.57970961  0.57817700  0.47497272
   0.57711685  0.59924932  0.53080564
   0.39007373  0.50533792  0.49535586
   0.43978587  0.51363876  0.50009916
   0.51078252  0.46229709  0.51120232
   0.52886083  0.43721670  0.47006624
   0.54751634  0.49587393  0.52367247
   0.57869828  0.56888994  0.51046290
   0.46412782  0.47525472  0.50157904
   0.54077501  0.53976128  0.51765951
   0.45418318  0.55236995  0.50328244
   0.58372943  0.47910540  0.53477950
Direct configuration=     7
   0.37282297  0.53738936  0.49681955
   0.38208201  0.48882980  0.46363627
   0.37848440  0.48393948  0.52270654
   0.44568418  0.44793849  0.49326976
   0.50933800  0.43916480  0.53963559
   0.56474989  0.43206344  0.47389528
   0.52243105  0.45716717  0.44006656
   0.51270580  0.40452288  0.46604500
   0.50875788  0.55049268  0.51026993
   0.60893254  0.55026546  0.51902504
   0.57990416  0.57847991  0.47504356
   0.57699954  0.59922940  0.53097524
   0.38990971  0.50530613  0.49532319
   0.43955811  0.51361916  0.50020037
   0.51091473  0.46223046  0.51104612
   0.52883058  0.43712113  0.46997772
   0.54765412  0.49586872  0.52361896
   0.57882719  0.56901987  0.51049043
   0.46403857  0.47531024  0.50161761
   0.54101914  0.53977284  0.51734899
   0.45409236  0.55232328  0.50346011
   0.58375276  0.47904791  0.53492740
Direct configuration=     8
   0.37260446  0.53737534  0.49666851
   0.38194912  0.48882623  0.46354644
   0.37805311  0.48394816  0.52261752
   0.44557592  0.44788501  0.49385193
   0.50951411  0.43917448  0.53956439
   0.56471173  0.43163827  0.47388570
   0.52262380  0.45701346  0.43990111
   0.51245261  0.40449475  0.46600243
   0.50904531  0.55046959  0.51004098
   0.60927679  0.55064275  0.51910420
   0.58018241  0.57889142  0.47509853
   0.57685107  0.59926187  0.53118178
   0.38983991  0.50530681  0.49529129
   0.43937573  0.51357533  0.50034135
   0.51096536  0.46220136  0.51087432
   0.52876033  0.43702977  0.46994746
   0.54783996  0.49592462  0.52351476
   0.57891483  0.56913658  0.51054674
   0.46394945  0.47533443  0.50167801
   0.54125264  0.53976175  0.51696350
   0.45396179  0.55223994  0.50368259
   0.58378945  0.47896984  0.53509542
Direct configuration=     9
   0.37234127  0.53739407  0.49650124
   0.38181105  0.48879347  0.46341762
   0.37753331  0.48394211  0.52252221
   0.44543234  0.44779529  0.49453453
   0.50970434  0.43921350  0.53944768
   0.56463233  0.43112612  0.47388055
   0.52286180  0.45684530  0.43967030
   0.51211318  0.40441905  0.46594409
   0.50934506  0.55044415  0.50973445
   0.60965216  0.55107311  0.51917799
   0.58056087  0.57941905  0.47520301
   0.57665966  0.59934209  0.53142796
   0.38972726  0.50531407  0.49525248
   0.43933419  0.51350789  0.50053078
   0.51091220  0.46230688  0.51080650
   0.52870534  0.43690371  0.46990773
   0.54801874  0.49592669  0.52333443
   0.57907394  0.56930533  0.51057823
   0.46393252  0.47528434  0.50178033
   0.54150615  0.53968474  0.51651605
   0.45380068  0.55214940  0.50395527
   0.58383185  0.47891016  0.53527512
Direct configuration=    10
   0.37209911  0.53739628  0.49631861
   0.38171498  0.48876801  0.46332585
   0.37696870  0.48396918  0.52235790
   0.44523789  0.44762954  0.49531123
   0.50989892  0.43929722  0.53929413
   0.56446191  0.43053554  0.47389484
   0.52315823  0.45662530  0.43944111
   0.51170235  0.40436758  0.46587470
   0.50960967  0.55042272  0.50932692
   0.60998690  0.55157011  0.51924684
   0.58104828  0.58006686  0.47540604
   0.57641664  0.59941707  0.53169456
   0.38946685  0.50526062  0.49519940
   0.43931824  0.51334882  0.50075397
   0.51088997  0.46246647  0.51082553
   0.52862816  0.43672413  0.46978409
   0.54815180  0.49578767  0.52311482
   0.57936467  0.56958850  0.51059218
   0.46396314  0.47520495  0.50194361
   0.54185592  0.53961321  0.51596900
   0.45370704  0.55214266  0.50429468
   0.58384132  0.47889650  0.53542801
Direct configuration=    11
   0.37193288  0.53735245  0.49612227
   0.38167119  0.48874115  0.46325985
   0.37636508  0.48400615  0.52214893
   0.44508306  0.44744922  0.49619394
   0.51008826  0.43937588  0.53919588
   0.56420119  0.42987368  0.47393865
   0.52350157  0.45635882  0.43923808
   0.51122092  0.40438919  0.46579421
   0.50992613  0.55038508  0.50882915
   0.61032161  0.55210154  0.51934523
   0.58165502  0.58086013  0.47565049
   0.57613121  0.59946799  0.53199085
   0.38924054  0.50518781  0.49514350
   0.43918740  0.51343453  0.50101906
   0.51103514  0.46242386  0.51067477
   0.52845736  0.43653911  0.46967986
   0.54823343  0.49587342  0.52287664
   0.57963937  0.56991243  0.51066178
   0.46385648  0.47509109  0.50215866
   0.54222443  0.53955638  0.51525269
   0.45363456  0.55190061  0.50466761
   0.58388435  0.47881665  0.53555532
Direct configuration=    12
   0.37182720  0.53727827  0.49591048
   0.38169481  0.48869106  0.46316625
   0.37574632  0.48401611  0.52194949
   0.44492760  0.44722235  0.49714249
   0.51030904  0.43942467  0.53918440
   0.56384595  0.42914484  0.47401502
   0.52385505  0.45608307  0.43904521
   0.51063278  0.40445017  0.46569516
   0.51035092  0.55033419  0.50824703
   0.61068338  0.55262805  0.51951405
   0.58236297  0.58178962  0.47592207
   0.57580483  0.59951896  0.53236550
   0.38914830  0.50521335  0.49511578
   0.43876709  0.51287418  0.50125718
   0.51114275  0.46228419  0.51036796
   0.52829975  0.43634304  0.46962090
   0.54864520  0.49584599  0.52271173
   0.57979682  0.57018334  0.51072929
   0.46364843  0.47515439  0.50244608
   0.54253056  0.53972611  0.51432646
   0.45379013  0.55203987  0.50511204
   0.58368185  0.47884936  0.53555219
Direct configuration=    13
   0.37184004  0.53729498  0.49590936
   0.38171051  0.48869334  0.46317139
   0.37575134  0.48401782  0.52194371
   0.44494237  0.44722982  0.49715409
   0.51031053  0.43943032  0.53917479
   0.56384714  0.42913109  0.47402465
   0.52385518  0.45608606  0.43904795
   0.51061274  0.40445229  0.46568562
   0.51029794  0.55035478  0.50821837
   0.61066733  0.55262818  0.51953035
   0.58238025  0.58181126  0.47593521
   0.57580065  0.59951041  0.53238029
   0.38912662  0.50517691  0.49511526
   0.43891195  0.51321941  0.50129809
   0.51111919  0.46232766  0.51041385
   0.52827885  0.43633505  0.46959930
   0.54846099  0.49598314  0.52261029
   0.57980081  0.57020651  0.51071842
   0.46366026  0.47503613  0.50244497
   0.54260455  0.53962305  0.51433452
   0.45367209  0.55175874  0.50508055
   0.58384042  0.47878825  0.53560573
Direct configuration=    14
   0.37184206  0.53729752  0.49590890
   0.38171549  0.48869390  0.46317179
   0.37575307  0.48401799  0.52194382
   0.44494177  0.44722845  0.49715349
   0.51031190  0.43943461  0.53917690
   0.56384508  0.42912444  0.47403076
   0.52385436  0.45608198  0.43905043
   0.51060576  0.40445007  0.46568955
   0.51029759  0.55035682  0.50821345
   0.61066387  0.55262909  0.51952936
   0.58238221  0.58181601  0.47593327
   0.57579973  0.59950914  0.53237939
   0.38912677  0.50517609  0.49511619
   0.43891695  0.51321534  0.50130095
   0.51111306  0.46233469  0.51042181
   0.52827653  0.43633102  0.46960131
   0.54846598  0.49597667  0.52260522
   0.57980366  0.57020934  0.51071404
   0.46366301  0.47503458  0.50244630
   0.54260349  0.53962387  0.51432691
   0.45367185  0.55175858  0.50508354
   0.58383760  0.47879487  0.53559934
Direct configuration=    15
   0.37184622  0.53730247  0.49590796
   0.38172540  0.48869492  0.46317252
   0.37575645  0.48401824  0.52194409
   0.44494067  0.44722572  0.49715250
   0.51031465  0.43944293  0.53918107
   0.56384090  0.42911139  0.47404269
   0.52385276  0.45607424  0.43905516
   0.51059185  0.40444589  0.46569698
   0.51029691  0.55036083  0.50820356
   0.61065714  0.55263078  0.51952780
   0.58238639  0.58182565  0.47592960
   0.57579778  0.59950656  0.53237802
   0.38912738  0.50517459  0.49511804
   0.43892652  0.51320721  0.50130656
   0.51110131  0.46234803  0.51043693
   0.52827184  0.43632335  0.46960544
   0.54847457  0.49596509  0.52259483
   0.57980887  0.57021480  0.51070562
   0.46366807  0.47503149  0.50244903
   0.54260169  0.53962526  0.51431176
   0.45367137  0.55175795  0.50508926
   0.58383312  0.47880735  0.53558719
Direct configuration=    16
   0.37185293  0.53730925  0.49590649
   0.38173980  0.48869589  0.46317324
   0.37576114  0.48401787  0.52194449
   0.44493852  0.44722031  0.49715342
   0.51031952  0.43945236  0.53918495
   0.56383513  0.42909490  0.47405670
   0.52385079  0.45606768  0.43905974
   0.51057205  0.40444225  0.46570228
   0.51029588  0.55036639  0.50818820
   0.61064727  0.55263264  0.51953031
   0.58239454  0.58184106  0.47592806
   0.57579380  0.59950175  0.53238072
   0.38912874  0.50517214  0.49512060
   0.43893984  0.51319512  0.50131385
   0.51108469  0.46236600  0.51045671
   0.52826521  0.43631495  0.46960893
   0.54848322  0.49595107  0.52257942
   0.57981565  0.57022236  0.51069683
   0.46367441  0.47502548  0.50245393
   0.54259971  0.53962595  0.51429025
   0.45367098  0.55175555  0.50509454
   0.58382814  0.47882346  0.53557285
Direct configuration=    17
   0.37186248  0.53731741  0.49590449
   0.38175855  0.48869667  0.46317381
   0.37576692  0.48401671  0.52194520
   0.44493576  0.44721256  0.49715637
   0.51032637  0.43946263  0.53918922
   0.56382740  0.42907495  0.47407276
   0.52384848  0.45606229  0.43906419
   0.51054638  0.40443929  0.46570553
   0.51029453  0.55037339  0.50816738
   0.61063494  0.55263441  0.51953690
   0.58240686  0.58186240  0.47592836
   0.57578779  0.59949487  0.53238754
   0.38913163  0.50516923  0.49512383
   0.43895554  0.51318068  0.50132278
   0.51106484  0.46238650  0.51047908
   0.52825643  0.43630620  0.46961288
   0.54848835  0.49593916  0.52255808
   0.57982260  0.57023150  0.51068788
   0.46368118  0.47501644  0.50246109
   0.54259844  0.53962511  0.51426237
   0.45367077  0.55175059  0.50509939
   0.58382580  0.47884114  0.53555730
Direct configuration=    18
   0.37187517  0.53732633  0.49590200
   0.38178139  0.48869715  0.46317407
   0.37577352  0.48401459  0.52194641
   0.44493293  0.44720285  0.49716142
   0.51033500  0.43947342  0.53919462
   0.56381727  0.42905169  0.47409072
   0.52384590  0.45605803  0.43906859
   0.51051509  0.40443724  0.46570692
   0.51029309  0.55038162  0.50814125
   0.61062102  0.55263584  0.51954751
   0.58242345  0.58188964  0.47593020
   0.57577977  0.59948614  0.53239847
   0.38913685  0.50516643  0.49512767
   0.43897175  0.51316557  0.50133315
   0.51104382  0.46240688  0.51050134
   0.52824530  0.43629755  0.46961844
   0.54848753  0.49593339  0.52253068
   0.57982819  0.57024150  0.51067909
   0.46368727  0.47500444  0.50247054
   0.54259854  0.53962249  0.51422813
   0.45367101  0.55174248  0.50510390
   0.58382827  0.47885853  0.53554123
Direct configuration=    19
   0.37189121  0.53733534  0.49589908
   0.38180793  0.48869723  0.46317392
   0.37578063  0.48401144  0.52194821
   0.44493046  0.44719152  0.49716862
   0.51034522  0.43948446  0.53920188
   0.56380426  0.42902536  0.47411040
   0.52384314  0.45605478  0.43907314
   0.51047857  0.40443646  0.46570663
   0.51029191  0.55039077  0.50811010
   0.61060630  0.55263673  0.51956197
   0.58244428  0.58192264  0.47593334
   0.57576971  0.59947580  0.53241340
   0.38914501  0.50516422  0.49513205
   0.43898656  0.51315093  0.50134462
   0.51102403  0.46242442  0.51052086
   0.52823172  0.43628938  0.46962646
   0.54848071  0.49593585  0.52249830
   0.57983121  0.57025157  0.51067085
   0.46369149  0.47498991  0.50248227
   0.54260009  0.53961878  0.51418739
   0.45367219  0.55173114  0.50510819
   0.58383557  0.47887477  0.53552456
Direct configuration=    20
   0.37191309  0.53734469  0.49589537
   0.38184125  0.48869680  0.46317327
   0.37578887  0.48400678  0.52195085
   0.44492843  0.44717721  0.49717917
   0.51035829  0.43949676  0.53921272
   0.56378590  0.42899292  0.47413391
   0.52384002  0.45605224  0.43907874
   0.51043250  0.40443758  0.46570455
   0.51029144  0.55040160  0.50807001
   0.61058973  0.55263694  0.51958225
   0.58247224  0.58196568  0.47593827
   0.57575602  0.59946265  0.53243455
   0.38915780  0.50516278  0.49513745
   0.43899930  0.51313560  0.50135824
   0.51100600  0.46243797  0.51053690
   0.52821374  0.43628113  0.46963858
   0.54846918  0.49594761  0.52245899
   0.57983082  0.57026202  0.51066290
   0.46369273  0.47497172  0.50249795
   0.54260289  0.53961531  0.51413426
   0.45367546  0.55171531  0.50511284
   0.58384657  0.47889187  0.53550434
Direct configuration=    21
   0.37194237  0.53735363  0.49589079
   0.38188251  0.48869577  0.46317216
   0.37579829  0.48400048  0.52195426
   0.44492703  0.44715904  0.49719395
   0.51037487  0.43951046  0.53922852
   0.56376013  0.42895333  0.47416179
   0.52383674  0.45605035  0.43908636
   0.51037533  0.40444192  0.46570043
   0.51029248  0.55041401  0.50801917
   0.61057137  0.55263630  0.51960944
   0.58250895  0.58202076  0.47594576
   0.57573751  0.59944609  0.53246337
   0.38917603  0.50516225  0.49514400
   0.43900757  0.51311896  0.50137400
   0.51099279  0.46244427  0.51054662
   0.52819029  0.43627270  0.46965524
   0.54845799  0.49596711  0.52241489
   0.57982637  0.57027244  0.51065594
   0.46368907  0.47495041  0.50251853
   0.54260585  0.53961543  0.51406509
   0.45368254  0.55169522  0.50511811
   0.58385630  0.47891192  0.53547759
Direct configuration=    22
   0.37198057  0.53736134  0.49588523
   0.38193286  0.48869415  0.46317088
   0.37580906  0.48399275  0.52195794
   0.44492599  0.44713560  0.49721388
   0.51039587  0.43952597  0.53925044
   0.56372453  0.42890544  0.47419447
   0.52383364  0.45604887  0.43909750
   0.51030551  0.40445116  0.46569409
   0.51029550  0.55042792  0.50795549
   0.61055080  0.55263483  0.51964446
   0.58255613  0.58208980  0.47595722
   0.57571269  0.59942537  0.53250130
   0.38919939  0.50516208  0.49515178
   0.43900973  0.51309974  0.50139188
   0.51098716  0.46244085  0.51054808
   0.52816063  0.43626344  0.46967530
   0.54845433  0.49598997  0.52236918
   0.57981843  0.57028295  0.51065071
   0.46367897  0.47492707  0.50254511
   0.54260741  0.53962323  0.51397603
   0.45369549  0.55167174  0.50512440
   0.58385782  0.47893822  0.53544051
Direct configuration=    23
   0.37202920  0.53736723  0.49587860
   0.38199378  0.48869213  0.46317005
   0.37582150  0.48398416  0.52196089
   0.44492458  0.44710485  0.49724020
   0.51042259  0.43954411  0.53927915
   0.56367623  0.42884757  0.47423237
   0.52383132  0.45604755  0.43911423
   0.51022108  0.40446736  0.46568524
   0.51029983  0.55044358  0.50787592
   0.61052691  0.55263273  0.51968830
   0.58261620  0.58217520  0.47597539
   0.57567950  0.59939934  0.53255022
   0.38922603  0.50516069  0.49516078
   0.43900641  0.51307720  0.50141219
   0.51099068  0.46242695  0.51054179
   0.52812370  0.43625165  0.46969554
   0.54846103  0.49601279  0.52232280
   0.57980934  0.57029526  0.51064741
   0.46366224  0.47490240  0.50257916
   0.54260686  0.53964074  0.51386302
   0.45371597  0.55164532  0.50513196
   0.58384762  0.47897328  0.53539054
Direct configuration=    24
   0.37208966  0.53737119  0.49587076
   0.38206708  0.48868984  0.46317036
   0.37583588  0.48397551  0.52196168
   0.44492165  0.44706432  0.49727485
   0.51045708  0.43956617  0.53931446
   0.56361188  0.42877682  0.47427567
   0.52383065  0.45604655  0.43913863
   0.51011882  0.40449259  0.46567306
   0.51030265  0.55046199  0.50777569
   0.61049776  0.55263042  0.51974230
   0.58269293  0.58228039  0.47600471
   0.57563515  0.59936642  0.53261281
   0.38925256  0.50515532  0.49517081
   0.43900201  0.51305255  0.50143586
   0.51100227  0.46240482  0.51053193
   0.52807836  0.43623454  0.46971108
   0.54846926  0.49603857  0.52227022
   0.57980309  0.57031352  0.51064619
   0.46364105  0.47487503  0.50262273
   0.54260617  0.53966425  0.51372246
   0.45374443  0.55161474  0.50514071
   0.58383233  0.47901616  0.53532864
Direct configuration=    25
   0.37216156  0.53737414  0.49586162
   0.38215357  0.48868698  0.46317170
   0.37585165  0.48396712  0.52195947
   0.44491632  0.44701320  0.49732017
   0.51050173  0.43959346  0.53935490
   0.56352972  0.42868947  0.47432374
   0.52383255  0.45604721  0.43917084
   0.50999475  0.40452673  0.46565638
   0.51029950  0.55048457  0.50764984
   0.61046155  0.55262839  0.51980729
   0.58279051  0.58240874  0.47605002
   0.57557678  0.59932555  0.53269176
   0.38927590  0.50514360  0.49518113
   0.43900472  0.51302766  0.50146444
   0.51101547  0.46238197  0.51052676
   0.52802450  0.43620957  0.46971722
   0.54845951  0.49607592  0.52219941
   0.57980406  0.57034276  0.51064722
   0.46362089  0.47484012  0.50267776
   0.54260966  0.53968359  0.51355322
   0.45377939  0.55157814  0.50515026
   0.58382855  0.47906242  0.53526033
Direct configuration=    26
   0.37224250  0.53737792  0.49585106
   0.38225265  0.48868206  0.46317195
   0.37586658  0.48395776  0.52195510
   0.44490855  0.44695298  0.49737977
   0.51056009  0.43962665  0.53939849
   0.56343027  0.42858045  0.47437465
   0.52383779  0.45605361  0.43920702
   0.50984271  0.40456682  0.46563250
   0.51028862  0.55051204  0.50749325
   0.61041785  0.55262701  0.51988475
   0.58291404  0.58256472  0.47611575
   0.57550058  0.59927650  0.53279131
   0.38929771  0.50512596  0.49519116
   0.43902157  0.51299790  0.50149922
   0.51101979  0.46236900  0.51053393
   0.52796306  0.43617627  0.46971497
   0.54843015  0.49612178  0.52210228
   0.57981458  0.57038479  0.51065286
   0.46360748  0.47479127  0.50274612
   0.54261746  0.53969406  0.51335218
   0.45381972  0.55153718  0.50515992
   0.58383918  0.47911424  0.53518712
Direct configuration=    27
   0.37232859  0.53738467  0.49583862
   0.38236254  0.48867241  0.46316673
   0.37587653  0.48394464  0.52195117
   0.44489976  0.44688705  0.49745769
   0.51063696  0.43966698  0.53944564
   0.56331672  0.42844112  0.47442710
   0.52384709  0.45606977  0.43924053
   0.50965342  0.40460640  0.46560002
   0.51027498  0.55054334  0.50730088
   0.61036958  0.55262643  0.51997522
   0.58306932  0.58275482  0.47620277
   0.57540191  0.59922038  0.53291596
   0.38932771  0.50510687  0.49520079
   0.43905425  0.51295102  0.50154179
   0.51100692  0.46237292  0.51055501
   0.52789220  0.43613778  0.46971455
   0.54841539  0.49615224  0.52198417
   0.57983078  0.57043505  0.51066702
   0.46360230  0.47472720  0.50282968
   0.54262210  0.53970651  0.51311046
   0.45386596  0.55149620  0.50517034
   0.58383802  0.47918683  0.53509914
Direct configuration=    28
   0.37241642  0.53739448  0.49582349
   0.38247992  0.48865582  0.46315253
   0.37587696  0.48392583  0.52194856
   0.44489184  0.44681741  0.49755930
   0.51073707  0.43971457  0.53949818
   0.56319373  0.42826179  0.47447826
   0.52386198  0.45609901  0.43926618
   0.50941872  0.40464262  0.46555651
   0.51026645  0.55057592  0.50706792
   0.61032279  0.55262631  0.52008140
   0.58326339  0.58298691  0.47631219
   0.57527581  0.59915817  0.53307178
   0.38937948  0.50508951  0.49521021
   0.43910014  0.51288790  0.50159352
   0.51098142  0.46238509  0.51058069
   0.52780358  0.43609954  0.46973072
   0.54842635  0.49617303  0.52184313
   0.57983848  0.57048486  0.51069433
   0.46360019  0.47465599  0.50293148
   0.54262307  0.53972688  0.51282040
   0.45391534  0.55144670  0.50518034
   0.58381996  0.47928203  0.53499406
Direct configuration=    29
   0.37250697  0.53740125  0.49580447
   0.38260258  0.48863398  0.46313317
   0.37586719  0.48390502  0.52194051
   0.44488696  0.44674484  0.49769010
   0.51086330  0.43977052  0.53955992
   0.56305776  0.42803295  0.47452576
   0.52388556  0.45613473  0.43929230
   0.50913617  0.40468331  0.46550300
   0.51026667  0.55060751  0.50678937
   0.61027963  0.55262827  0.52020521
   0.58350205  0.58326679  0.47644978
   0.57511838  0.59908604  0.53326153
   0.38945275  0.50507085  0.49521970
   0.43914836  0.51282878  0.50165534
   0.51096543  0.46238441  0.51059914
   0.52768853  0.43606037  0.46976047
   0.54840696  0.49624370  0.52165730
   0.57982718  0.57053481  0.51073479
   0.46359459  0.47458684  0.50305640
   0.54263651  0.53973831  0.51247960
   0.45396496  0.55137379  0.50518929
   0.58383467  0.47937301  0.53488793
Direct configuration=    30
   0.37260583  0.53739186  0.49577931
   0.38273193  0.48861363  0.46312091
   0.37585190  0.48389152  0.52191290
   0.44488592  0.44667196  0.49785751
   0.51102156  0.43983965  0.53963594
   0.56288478  0.42774719  0.47456653
   0.52392173  0.45616210  0.43933951
   0.50880491  0.40474787  0.46544313
   0.51028295  0.55063552  0.50645830
   0.61022679  0.55264170  0.52034737
   0.58378663  0.58359791  0.47663123
   0.57492158  0.59899149  0.53348534
   0.38951870  0.50504301  0.49522715
   0.43917311  0.51275385  0.50172318
   0.51098455  0.46237024  0.51060676
   0.52755517  0.43600243  0.46977289
   0.54842112  0.49630677  0.52146167
   0.57981976  0.57059635  0.51078617
   0.46358173  0.47452049  0.50321051
   0.54265656  0.53976654  0.51207376
   0.45403255  0.55130692  0.50520107
   0.58382349  0.47949083  0.53475387
Direct configuration=    31
   0.37271234  0.53736116  0.49574538
   0.38286560  0.48859654  0.46311884
   0.37582892  0.48388340  0.52186412
   0.44488654  0.44659443  0.49806952
   0.51121788  0.43992647  0.53972455
   0.56265118  0.42739529  0.47459371
   0.52397203  0.45617434  0.43940979
   0.50841797  0.40484440  0.46537725
   0.51030643  0.55066239  0.50606716
   0.61015333  0.55267467  0.52051254
   0.58411601  0.58398503  0.47686754
   0.57467971  0.59886343  0.53374516
   0.38954772  0.50500504  0.49522614
   0.43919594  0.51271265  0.50180278
   0.51103317  0.46235779  0.51060961
   0.52742637  0.43590869  0.46975716
   0.54842534  0.49637613  0.52123886
   0.57983760  0.57068971  0.51084399
   0.46357773  0.47444480  0.50340056
   0.54270617  0.53979146  0.51160129
   0.45409998  0.55122122  0.50521172
   0.58383533  0.47962049  0.53460721
Direct configuration=    32
   0.37279675  0.53733767  0.49569835
   0.38299191  0.48856945  0.46309763
   0.37577968  0.48385735  0.52181871
   0.44488615  0.44650621  0.49833568
   0.51146399  0.44003803  0.53981437
   0.56239391  0.42694896  0.47460265
   0.52403754  0.45617876  0.43946704
   0.50795197  0.40495201  0.46530056
   0.51036145  0.55068560  0.50561319
   0.61007938  0.55272492  0.52071469
   0.58448998  0.58444578  0.47713880
   0.57438767  0.59870854  0.53405451
   0.38958724  0.50497276  0.49522123
   0.43921174  0.51259596  0.50188567
   0.51107695  0.46234513  0.51061256
   0.52727444  0.43580305  0.46975916
   0.54845718  0.49645083  0.52097838
   0.57985481  0.57080201  0.51092143
   0.46358623  0.47439428  0.50363577
   0.54277381  0.53981114  0.51105251
   0.45417704  0.55119502  0.50522410
   0.58387355  0.47976582  0.53444780
Direct configuration=    33
   0.37285333  0.53733623  0.49563856
   0.38310388  0.48853127  0.46305205
   0.37570213  0.48381332  0.52177562
   0.44491631  0.44644473  0.49866334
   0.51175087  0.44016728  0.53990542
   0.56213805  0.42640844  0.47459971
   0.52411823  0.45616969  0.43950028
   0.50740787  0.40505832  0.46521464
   0.51043310  0.55070933  0.50510543
   0.61002185  0.55279003  0.52095891
   0.58489458  0.58497640  0.47743522
   0.57404881  0.59854651  0.53441996
   0.38964381  0.50492154  0.49522108
   0.43931817  0.51271626  0.50199440
   0.51112432  0.46236370  0.51062426
   0.52707174  0.43570707  0.46978024
   0.54855013  0.49652316  0.52068583
   0.57985010  0.57090517  0.51099782
   0.46358211  0.47425838  0.50389270
   0.54288417  0.53981964  0.51044358
   0.45415790  0.55099426  0.50521120
   0.58392206  0.47992811  0.53427441
Direct configuration=    34
   0.37285003  0.53733108  0.49563641
   0.38310477  0.48853228  0.46305304
   0.37570194  0.48381307  0.52177389
   0.44490577  0.44643182  0.49866878
   0.51175844  0.44016983  0.53990601
   0.56212697  0.42639741  0.47459723
   0.52411982  0.45616486  0.43949859
   0.50739778  0.40506246  0.46521563
   0.51044933  0.55070574  0.50510013
   0.61002118  0.55279485  0.52096357
   0.58489631  0.58498478  0.47744137
   0.57404290  0.59854133  0.53442347
   0.38964176  0.50492965  0.49522064
   0.43926931  0.51257348  0.50198417
   0.51112301  0.46236078  0.51062611
   0.52707784  0.43570084  0.46977831
   0.54854325  0.49652205  0.52067787
   0.57985424  0.57091175  0.51099928
   0.46359165  0.47430594  0.50390099
   0.54287818  0.53982194  0.51043325
   0.45420208  0.55110689  0.50521915
   0.58393695  0.47992593  0.53427675
Direct configuration=    35
   0.37284433  0.53732223  0.49563170
   0.38310482  0.48853429  0.46305523
   0.37569914  0.48381216  0.52176885
   0.44489673  0.44641780  0.49868725
   0.51177441  0.44017572  0.53990801
   0.56210407  0.42636913  0.47459254
   0.52412440  0.45615284  0.43949461
   0.50737286  0.40507229  0.46521766
   0.51047249  0.55070089  0.50508460
   0.61002026  0.55280660  0.52097563