   6   6   0   0
  0.4500000E+04  0.3000000E-08  0.3000000E-08  0.3000000E-08  0.0000000E+00
  1.000000000000000E-004
  CAR 
 unknown system                          
      1.78910198    -26.08600801  301     -6.29431696      1.00000000
    -26.086  0.0000E+00  0.0000E+00
    -25.993  0.0000E+00  0.0000E+00
    -25.900  0.0000E+00  0.0000E+00
    -25.807  0.0000E+00  0.0000E+00
    -25.714  0.0000E+00  0.0000E+00
    -25.621  0.0000E+00  0.0000E+00
    -25.529  0.0000E+00  0.0000E+00
    -25.436  0.0000E+00  0.0000E+00
    -25.343  0.0000E+00  0.0000E+00
    -25.250  0.7966E-17  0.7401E-18
    -25.157  0.1310E-14  0.1225E-15
    -25.064  0.1667E-12  0.1561E-13
    -24.971  0.1383E-10  0.1301E-11
    -24.878  0.7512E-09  0.7110E-10
    -24.785  0.2672E-07  0.2553E-08
    -24.692  0.6228E-06  0.6042E-07
    -24.599  0.9526E-05  0.9455E-06
    -24.506  0.9570E-04  0.9838E-05
    -24.414  0.6322E-03  0.6858E-04
    -24.321  0.2748E-02  0.3239E-03
    -24.228  0.7868E-02  0.1055E-02
    -24.135  0.1485E-01  0.2434E-02
    -24.042  0.1847E-01  0.4151E-02
    -23.949  0.1515E-01  0.5559E-02
    -23.856  0.8197E-02  0.6320E-02
    -23.763  0.2922E-02  0.6592E-02
    -23.670  0.6862E-03  0.6656E-02
    -23.577  0.1060E-03  0.6666E-02
    -23.484  0.1078E-04  0.6667E-02
    -23.391  0.7192E-06  0.6667E-02
    -23.298  0.3150E-07  0.6667E-02
    -23.206  0.9043E-09  0.6667E-02
    -23.113  0.1700E-10  0.6667E-02
    -23.020  0.2092E-12  0.6667E-02
    -22.927  0.1681E-14  0.6667E-02
    -22.834  0.7966E-17  0.6667E-02
    -22.741  0.0000E+00  0.6667E-02
    -22.648  0.0000E+00  0.6667E-02
    -22.555  0.0000E+00  0.6667E-02
    -22.462  0.0000E+00  0.6667E-02
    -22.369  0.0000E+00  0.6667E-02
    -22.276  0.0000E+00  0.6667E-02
    -22.183  0.0000E+00  0.6667E-02
    -22.091  0.0000E+00  0.6667E-02
    -21.998  0.0000E+00  0.6667E-02
    -21.905  0.0000E+00  0.6667E-02
    -21.812  0.0000E+00  0.6667E-02
    -21.719  0.0000E+00  0.6667E-02
    -21.626  0.0000E+00  0.6667E-02
    -21.533  0.0000E+00  0.6667E-02
    -21.440  0.0000E+00  0.6667E-02
    -21.347  0.0000E+00  0.6667E-02
    -21.254  0.0000E+00  0.6667E-02
    -21.161  0.0000E+00  0.6667E-02
    -21.068  0.0000E+00  0.6667E-02
    -20.976  0.0000E+00  0.6667E-02
    -20.883  0.0000E+00  0.6667E-02
    -20.790  0.0000E+00  0.6667E-02
    -20.697  0.0000E+00  0.6667E-02
    -20.604  0.0000E+00  0.6667E-02
    -20.511  0.0000E+00  0.6667E-02
    -20.418  0.0000E+00  0.6667E-02
    -20.325  0.0000E+00  0.6667E-02
    -20.232  0.0000E+00  0.6667E-02
    -20.139  0.0000E+00  0.6667E-02
    -20.046  0.0000E+00  0.6667E-02
    -19.953  0.0000E+00  0.6667E-02
    -19.861  0.0000E+00  0.6667E-02
    -19.768  0.0000E+00  0.6667E-02
    -19.675  0.0000E+00  0.6667E-02
    -19.582  0.0000E+00  0.6667E-02
    -19.489  0.0000E+00  0.6667E-02
    -19.396  0.0000E+00  0.6667E-02
    -19.303  0.0000E+00  0.6667E-02
    -19.210  0.0000E+00  0.6667E-02
    -19.117  0.0000E+00  0.6667E-02
    -19.024  0.7966E-17  0.6667E-02
    -18.931  0.1227E-14  0.6667E-02
    -18.838  0.1567E-12  0.6667E-02
    -18.746  0.1308E-10  0.6667E-02
    -18.653  0.7143E-09  0.6667E-02
    -18.560  0.2555E-07  0.6667E-02
    -18.467  0.5988E-06  0.6667E-02
    -18.374  0.9211E-05  0.6668E-02
    -18.281  0.9306E-04  0.6676E-02
    -18.188  0.6181E-03  0.6734E-02
    -18.095  0.2702E-02  0.6985E-02
    -18.002  0.7780E-02  0.7708E-02
    -17.909  0.1476E-01  0.9079E-02
    -17.816  0.1847E-01  0.1080E-01
    -17.723  0.1524E-01  0.1221E-01
    -17.631  0.8287E-02  0.1298E-01
    -17.538  0.2971E-02  0.1326E-01
    -17.445  0.7015E-03  0.1332E-01
    -17.352  0.1090E-03  0.1333E-01
    -17.259  0.1114E-04  0.1333E-01
    -17.166  0.7477E-06  0.1333E-01
    -17.073  0.3293E-07  0.1333E-01
    -16.980  0.9508E-09  0.1333E-01
    -16.887  0.1798E-10  0.1333E-01
    -16.794  0.2224E-12  0.1333E-01
    -16.701  0.1800E-14  0.1333E-01
    -16.608  0.7966E-17  0.1333E-01
    -16.516  0.0000E+00  0.1333E-01
    -16.423  0.0000E+00  0.1333E-01
    -16.330  0.0000E+00  0.1333E-01
    -16.237  0.0000E+00  0.1333E-01
    -16.144  0.0000E+00  0.1333E-01
    -16.051  0.0000E+00  0.1333E-01
    -15.958  0.0000E+00  0.1333E-01
    -15.865  0.0000E+00  0.1333E-01
    -15.772  0.0000E+00  0.1333E-01
    -15.679  0.0000E+00  0.1333E-01
    -15.586  0.0000E+00  0.1333E-01
    -15.493  0.0000E+00  0.1333E-01
    -15.401  0.0000E+00  0.1333E-01
    -15.308  0.0000E+00  0.1333E-01
    -15.215  0.0000E+00  0.1333E-01
    -15.122  0.0000E+00  0.1333E-01
    -15.029  0.0000E+00  0.1333E-01
    -14.936  0.0000E+00  0.1333E-01
    -14.843  0.0000E+00  0.1333E-01
    -14.750  0.0000E+00  0.1333E-01
    -14.657  0.0000E+00  0.1333E-01
    -14.564  0.0000E+00  0.1333E-01
    -14.471  0.0000E+00  0.1333E-01
    -14.378  0.0000E+00  0.1333E-01
    -14.286  0.0000E+00  0.1333E-01
    -14.193  0.0000E+00  0.1333E-01
    -14.100  0.0000E+00  0.1333E-01
    -14.007  0.0000E+00  0.1333E-01
    -13.914  0.0000E+00  0.1333E-01
    -13.821  0.0000E+00  0.1333E-01
    -13.728  0.0000E+00  0.1333E-01
    -13.635  0.3186E-16  0.1333E-01
    -13.542  0.5512E-14  0.1333E-01
    -13.449  0.6192E-12  0.1333E-01
    -13.356  0.4550E-10  0.1333E-01
    -13.263  0.2188E-08  0.1333E-01
    -13.171  0.6891E-07  0.1333E-01
    -13.078  0.1423E-05  0.1333E-01
    -12.985  0.1929E-04  0.1334E-01
    -12.892  0.1718E-03  0.1335E-01
    -12.799  0.1006E-02  0.1344E-01
    -12.706  0.3879E-02  0.1381E-01
    -12.613  0.9853E-02  0.1472E-01
    -12.520  0.1650E-01  0.1625E-01
    -12.427  0.1821E-01  0.1795E-01
    -12.334  0.1326E-01  0.1918E-01
    -12.241  0.6363E-02  0.1977E-01
    -12.148  0.2030E-02  0.1996E-01
    -12.056  0.5865E-03  0.2001E-01
    -11.963  0.1044E-02  0.2011E-01
    -11.870  0.3829E-02  0.2046E-01
    -11.777  0.9764E-02  0.2137E-01
    -11.684  0.1643E-01  0.2290E-01
    -11.591  0.1823E-01  0.2459E-01
    -11.498  0.1334E-01  0.2583E-01
    -11.405  0.6444E-02  0.2643E-01
    -11.312  0.2119E-02  0.2663E-01
    -11.219  0.9324E-03  0.2671E-01
    -11.126  0.2375E-02  0.2694E-01
    -11.033  0.7014E-02  0.2759E-01
    -10.941  0.1398E-01  0.2889E-01
    -10.848  0.1838E-01  0.3059E-01
    -10.755  0.1594E-01  0.3207E-01
    -10.662  0.9110E-02  0.3292E-01
    -10.569  0.3433E-02  0.3324E-01
    -10.476  0.8521E-03  0.3332E-01
    -10.383  0.1392E-03  0.3333E-01
    -10.290  0.1496E-04  0.3333E-01
    -10.197  0.1059E-05  0.3333E-01
    -10.104  0.1404E-06  0.3333E-01
    -10.011  0.1823E-05  0.3333E-01
     -9.918  0.2379E-04  0.3334E-01
     -9.826  0.2042E-03  0.3335E-01
     -9.733  0.1153E-02  0.3346E-01
     -9.640  0.4283E-02  0.3386E-01
     -9.547  0.1049E-01  0.3483E-01
     -9.454  0.1692E-01  0.3641E-01
     -9.361  0.1801E-01  0.3808E-01
     -9.268  0.1263E-01  0.3925E-01
     -9.175  0.5845E-02  0.3980E-01
     -9.082  0.1782E-02  0.3996E-01
     -8.989  0.3577E-03  0.4000E-01
     -8.896  0.5006E-04  0.4000E-01
     -8.803  0.3881E-04  0.4000E-01
     -8.711  0.2785E-03  0.4003E-01
     -8.618  0.1468E-02  0.4017E-01
     -8.525  0.5096E-02  0.4064E-01
     -8.432  0.1166E-01  0.4172E-01
     -8.339  0.1758E-01  0.4336E-01
     -8.246  0.1749E-01  0.4498E-01
     -8.153  0.1147E-01  0.4605E-01
     -8.060  0.4958E-02  0.4651E-01
     -7.967  0.1412E-02  0.4664E-01
     -7.874  0.2652E-03  0.4666E-01
     -7.781  0.3836E-04  0.4667E-01
     -7.688  0.6491E-04  0.4667E-01
     -7.596  0.4475E-03  0.4671E-01
     -7.503  0.2115E-02  0.4691E-01
     -7.410  0.6586E-02  0.4752E-01
     -7.317  0.1351E-01  0.4878E-01
     -7.224  0.1828E-01  0.5048E-01
     -7.131  0.1630E-01  0.5199E-01
     -7.038  0.9590E-02  0.5288E-01
     -6.945  0.3718E-02  0.5323E-01
     -6.852  0.9495E-03  0.5332E-01
     -6.759  0.1596E-03  0.5333E-01
     -6.666  0.1765E-04  0.5333E-01
     -6.573  0.1282E-05  0.5333E-01
     -6.481  0.6110E-07  0.5333E-01
     -6.388  0.1910E-08  0.5333E-01
     -6.295  0.3909E-10  0.5333E-01
     -6.202  0.5237E-12  0.5333E-01
     -6.109  0.4584E-14  0.5333E-01
     -6.016  0.3186E-16  0.5333E-01
     -5.923  0.0000E+00  0.5333E-01
     -5.830  0.0000E+00  0.5333E-01
     -5.737  0.0000E+00  0.5333E-01
     -5.644  0.0000E+00  0.5333E-01
     -5.551  0.0000E+00  0.5333E-01
     -5.458  0.0000E+00  0.5333E-01
     -5.366  0.0000E+00  0.5333E-01
     -5.273  0.0000E+00  0.5333E-01
     -5.180  0.0000E+00  0.5333E-01
     -5.087  0.0000E+00  0.5333E-01
     -4.994  0.0000E+00  0.5333E-01
     -4.901  0.0000E+00  0.5333E-01
     -4.808  0.0000E+00  0.5333E-01
     -4.715  0.0000E+00  0.5333E-01
     -4.622  0.0000E+00  0.5333E-01
     -4.529  0.0000E+00  0.5333E-01
     -4.436  0.0000E+00  0.5333E-01
     -4.343  0.0000E+00  0.5333E-01
     -4.251  0.0000E+00  0.5333E-01
     -4.158  0.0000E+00  0.5333E-01
     -4.065  0.0000E+00  0.5333E-01
     -3.972  0.0000E+00  0.5333E-01
     -3.879  0.0000E+00  0.5333E-01
     -3.786  0.0000E+00  0.5333E-01
     -3.693  0.0000E+00  0.5333E-01
     -3.600  0.0000E+00  0.5333E-01
     -3.507  0.0000E+00  0.5333E-01
     -3.414  0.0000E+00  0.5333E-01
     -3.321  0.0000E+00  0.5333E-01
     -3.228  0.0000E+00  0.5333E-01
     -3.136  0.0000E+00  0.5333E-01
     -3.043  0.0000E+00  0.5333E-01
     -2.950  0.0000E+00  0.5333E-01
     -2.857  0.1713E-15  0.5333E-01
     -2.764  0.2558E-13  0.5333E-01
     -2.671  0.2514E-11  0.5333E-01
     -2.578  0.1616E-09  0.5333E-01
     -2.485  0.6798E-08  0.5333E-01
     -2.392  0.1874E-06  0.5333E-01
     -2.299  0.3389E-05  0.5333E-01
     -2.206  0.4023E-04  0.5334E-01
     -2.113  0.3139E-03  0.5337E-01
     -2.020  0.1611E-02  0.5352E-01
     -1.928  0.5445E-02  0.5402E-01
     -1.835  0.1213E-01  0.5515E-01
     -1.742  0.1780E-01  0.5680E-01
     -1.649  0.1723E-01  0.5840E-01
     -1.556  0.1100E-01  0.5943E-01
     -1.463  0.4630E-02  0.5986E-01
     -1.370  0.1308E-02  0.5998E-01
     -1.277  0.4475E-03  0.6002E-01
     -1.184  0.1232E-02  0.6013E-01
     -1.091  0.4524E-02  0.6055E-01
     -0.998  0.1150E-01  0.6162E-01
     -0.905  0.2050E-01  0.6353E-01
     -0.813  0.2717E-01  0.6605E-01
     -0.720  0.2852E-01  0.6870E-01
     -0.627  0.2420E-01  0.7095E-01
     -0.534  0.1630E-01  0.7246E-01
     -0.441  0.1018E-01  0.7341E-01
     -0.348  0.1051E-01  0.7439E-01
     -0.255  0.1565E-01  0.7584E-01
     -0.162  0.1854E-01  0.7756E-01
     -0.069  0.1485E-01  0.7895E-01
      0.024  0.7868E-02  0.7968E-01
      0.117  0.2748E-02  0.7993E-01
      0.210  0.6321E-03  0.7999E-01
      0.302  0.9570E-04  0.8000E-01
      0.395  0.9525E-05  0.8000E-01
      0.488  0.6227E-06  0.8000E-01
      0.581  0.2671E-07  0.8000E-01
      0.674  0.7511E-09  0.8000E-01
      0.767  0.1383E-10  0.8000E-01
      0.860  0.1666E-12  0.8000E-01
      0.953  0.1314E-14  0.8000E-01
      1.046  0.7966E-17  0.8000E-01
      1.139  0.0000E+00  0.8000E-01
      1.232  0.0000E+00  0.8000E-01
      1.325  0.0000E+00  0.8000E-01
      1.417  0.0000E+00  0.8000E-01
      1.510  0.0000E+00  0.8000E-01
      1.603  0.0000E+00  0.8000E-01
      1.696  0.0000E+00  0.8000E-01
      1.789  0.0000E+00  0.8000E-01
