    6    6  300    1
  0.4500000E+04  0.3000000E-08  0.3000000E-08  0.3000000E-08  0.0000000E+00
  1.000000000000000E-004
  CAR 
 unknown system                          
     16      4     12
 
  0.2500000E+00  0.2500000E+00  0.2500000E+00  0.2500000E+00
    1      -24.086008   1.000000
    2      -17.859329   1.000000
    3      -12.498065   1.000000
    4      -11.660635   1.000000
    5      -10.879445   1.000000
    6       -9.439999   1.000000
    7       -8.340078   1.000000
    8       -7.249356   1.000000
    9       -1.748992   0.000000
   10       -0.893483   0.000000
   11       -0.689184   0.000000
   12       -0.210904   0.000000
 
 -0.2500000E+00  0.2500000E+00  0.2500000E+00  0.2500000E+00
    1      -24.086007   1.000000
    2      -17.859327   1.000000
    3      -12.498067   1.000000
    4      -11.660637   1.000000
    5      -10.879447   1.000000
    6       -9.439989   1.000000
    7       -8.340076   1.000000
    8       -7.249356   1.000000
    9       -1.748995   0.000000
   10       -0.893490   0.000000
   11       -0.689186   0.000000
   12       -0.210904   0.000000
 
  0.2500000E+00 -0.2500000E+00  0.2500000E+00  0.2500000E+00
    1      -24.086007   1.000000
    2      -17.859328   1.000000
    3      -12.498062   1.000000
    4      -11.660638   1.000000
    5      -10.879445   1.000000
    6       -9.439991   1.000000
    7       -8.340086   1.000000
    8       -7.249348   1.000000
    9       -1.748992   0.000000
   10       -0.893483   0.000000
   11       -0.689180   0.000000
   12       -0.210898   0.000000
 
 -0.2500000E+00 -0.2500000E+00  0.2500000E+00  0.2500000E+00
    1      -24.086006   1.000000
    2      -17.859327   1.000000
    3      -12.498063   1.000000
    4      -11.660643   1.000000
    5      -10.879447   1.000000
    6       -9.439992   1.000000
    7       -8.340080   1.000000
    8       -7.249349   1.000000
    9       -1.748992   0.000000
   10       -0.893485   0.000000
   11       -0.689186   0.000000
   12       -0.210899   0.000000
