       N       E                     dE             d eps       ncg     rms          rms(c)
DAV:   1     0.107078716207E+03    0.10708E+03   -0.21302E+03   160   0.366E+02
DAV:   2     0.622766609034E+00   -0.10646E+03   -0.10281E+03   192   0.980E+01
DAV:   3    -0.332742156827E+02   -0.33897E+02   -0.33805E+02   124   0.879E+01
DAV:   4    -0.367487975370E+02   -0.34746E+01   -0.34421E+01   128   0.306E+01
DAV:   5    -0.368607304064E+02   -0.11193E+00   -0.11003E+00   132   0.551E+00    0.103E+01
DAV:   6    -0.346283760748E+02    0.22324E+01   -0.35126E+00   108   0.132E+01    0.558E+00
DAV:   7    -0.340305100216E+02    0.59787E+00   -0.14793E+00   116   0.829E+00    0.203E+00
DAV:   8    -0.339718970627E+02    0.58613E-01   -0.10787E-01   128   0.278E+00    0.762E-01
DAV:   9    -0.339578347349E+02    0.14062E-01   -0.19635E-02   128   0.120E+00    0.212E-01
DAV:  10    -0.339574144357E+02    0.42030E-03   -0.28554E-03   128   0.470E-01    0.116E-01
DAV:  11    -0.339587437048E+02   -0.13293E-02   -0.12050E-03   128   0.256E-01    0.741E-02
DAV:  12    -0.339631094377E+02   -0.43657E-02   -0.21828E-03   128   0.307E-01    0.387E-02
DAV:  13    -0.339688521336E+02   -0.57427E-02   -0.12713E-03   160   0.189E-01    0.255E-02
DAV:  14    -0.339718198433E+02   -0.29677E-02   -0.28432E-04   128   0.944E-02    0.145E-02
DAV:  15    -0.339739459953E+02   -0.21262E-02   -0.15362E-04   112   0.627E-02    0.870E-03
DAV:  16    -0.339755750782E+02   -0.16291E-02   -0.15011E-04   128   0.544E-02    0.495E-03
DAV:  17    -0.339764481206E+02   -0.87304E-03   -0.45273E-05    96   0.358E-02    0.290E-03
DAV:  18    -0.339766611263E+02   -0.21301E-03   -0.16969E-05    96   0.203E-02    0.177E-03
DAV:  19    -0.339768080618E+02   -0.14694E-03   -0.83562E-06    96   0.134E-02    0.878E-04
DAV:  20    -0.339768834417E+02   -0.75380E-04   -0.31918E-06    96   0.101E-02
   1 F= -.33976883E+02 E0= -.33976883E+02  d E =-.339769E+02
       N       E                     dE             d eps       ncg     rms          rms(c)
DAV:   1    -0.339745454418E+02    0.22626E-02   -0.51691E-02    96   0.217E+00    0.664E-02
DAV:   2    -0.339745302721E+02    0.15170E-04   -0.82365E-04   128   0.223E-01    0.436E-02
DAV:   3    -0.339745510261E+02   -0.20754E-04   -0.28986E-05    96   0.635E-02    0.222E-02
DAV:   4    -0.339745952332E+02   -0.44207E-04   -0.16560E-05    96   0.406E-02    0.495E-03
DAV:   5    -0.339745974562E+02   -0.22230E-05   -0.31534E-06    96   0.188E-02    0.212E-03
DAV:   6    -0.339746002102E+02   -0.27541E-05   -0.76527E-07    64   0.807E-03
   2 F= -.33974600E+02 E0= -.33974600E+02  d E =0.228323E-02
       N       E                     dE             d eps       ncg     rms          rms(c)
DAV:   1    -0.339702120927E+02    0.43854E-02   -0.20112E-01    96   0.429E+00    0.131E-01
DAV:   2    -0.339701502449E+02    0.61848E-04   -0.31125E-03   128   0.435E-01    0.850E-02
DAV:   3    -0.339701970501E+02   -0.46805E-04   -0.10615E-04    96   0.119E-01    0.423E-02
DAV:   4    -0.339703333773E+02   -0.13633E-03   -0.51694E-05    96   0.712E-02    0.907E-03
DAV:   5    -0.339703331867E+02    0.19052E-06   -0.95587E-06    80   0.320E-02    0.366E-03
DAV:   6    -0.339703342213E+02   -0.10346E-05   -0.22677E-06    64   0.135E-02
   3 F= -.33970334E+02 E0= -.33970334E+02  d E =0.426599E-02
       N       E                     dE             d eps       ncg     rms          rms(c)
DAV:   1    -0.339646691345E+02    0.56641E-02   -0.41592E-01    96   0.617E+00    0.191E-01
DAV:   2    -0.339645904744E+02    0.78660E-04   -0.63382E-03   128   0.625E-01    0.122E-01
DAV:   3    -0.339646644731E+02   -0.73999E-04   -0.25552E-04   128   0.170E-01    0.598E-02
DAV:   4    -0.339649076169E+02   -0.24314E-03   -0.62961E-05    96   0.864E-02    0.110E-02
DAV:   5    -0.339649083062E+02   -0.68932E-06   -0.12628E-05    64   0.352E-02    0.496E-03
DAV:   6    -0.339649104407E+02   -0.21345E-05   -0.28597E-06    64   0.157E-02
   4 F= -.33964910E+02 E0= -.33964910E+02  d E =0.542378E-02
       N       E                     dE             d eps       ncg     rms          rms(c)
DAV:   1    -0.339591242653E+02    0.57840E-02   -0.62758E-01    96   0.757E+00    0.235E-01
DAV:   2    -0.339590601305E+02    0.64135E-04   -0.93311E-03   128   0.762E-01    0.152E-01
DAV:   3    -0.339591384882E+02   -0.78358E-04   -0.40021E-04   128   0.215E-01    0.737E-02
DAV:   4    -0.339594686927E+02   -0.33020E-03   -0.10070E-04    96   0.110E-01    0.139E-02
DAV:   5    -0.339594697492E+02   -0.10565E-05   -0.20880E-05    64   0.458E-02    0.633E-03
DAV:   6    -0.339594739323E+02   -0.41831E-05   -0.53250E-06    80   0.216E-02
   5 F= -.33959474E+02 E0= -.33959474E+02  d E =0.543651E-02
       N       E                     dE             d eps       ncg     rms          rms(c)
DAV:   1    -0.339548204284E+02    0.46493E-02   -0.80522E-01    96   0.857E+00    0.268E-01
DAV:   2    -0.339547590880E+02    0.61340E-04   -0.11638E-02   128   0.856E-01    0.174E-01
DAV:   3    -0.339548656828E+02   -0.10659E-03   -0.53526E-04   128   0.247E-01    0.823E-02
DAV:   4    -0.339552386659E+02   -0.37298E-03   -0.13026E-04    96   0.123E-01    0.159E-02
DAV:   5    -0.339552395633E+02   -0.89744E-06   -0.28118E-05    80   0.529E-02    0.730E-03
DAV:   6    -0.339552452412E+02   -0.56778E-05   -0.74810E-06    80   0.259E-02
   6 F= -.33955245E+02 E0= -.33955245E+02  d E =0.422869E-02
       N       E                     dE             d eps       ncg     rms          rms(c)
DAV:   1    -0.339527468516E+02    0.24927E-02   -0.90414E-01    96   0.910E+00    0.286E-01
DAV:   2    -0.339526709651E+02    0.75887E-04   -0.12796E-02   128   0.902E-01    0.184E-01
DAV:   3    -0.339528104095E+02   -0.13944E-03   -0.59450E-04   128   0.254E-01    0.856E-02
DAV:   4    -0.339531993729E+02   -0.38896E-03   -0.12743E-04    96   0.120E-01    0.158E-02
DAV:   5    -0.339532024651E+02   -0.30921E-05   -0.29436E-05    96   0.520E-02    0.733E-03
DAV:   6    -0.339532091656E+02   -0.67005E-05   -0.68296E-06    80   0.246E-02
   7 F= -.33953209E+02 E0= -.33953209E+02  d E =0.203608E-02
       N       E                     dE             d eps       ncg     rms          rms(c)
DAV:   1    -0.339535842089E+02   -0.38174E-03   -0.96719E-01    96   0.939E+00    0.299E-01
DAV:   2    -0.339534068998E+02    0.17731E-03   -0.12799E-02   128   0.911E-01    0.195E-01
DAV:   3    -0.339535998906E+02   -0.19299E-03   -0.78854E-04   128   0.291E-01    0.811E-02
DAV:   4    -0.339539231120E+02   -0.32322E-03   -0.16189E-04    96   0.133E-01    0.181E-02
DAV:   5    -0.339539243391E+02   -0.12271E-05   -0.38447E-05    96   0.620E-02    0.815E-03
DAV:   6    -0.339539328481E+02   -0.85090E-05   -0.10808E-05    96   0.318E-02
   8 F= -.33953933E+02 E0= -.33953933E+02  d E =-.723683E-03
       N       E                     dE             d eps       ncg     rms          rms(c)
DAV:   1    -0.339540194118E+02   -0.95073E-04   -0.17341E-03    96   0.383E-01    0.173E-02
DAV:   2    -0.339540206587E+02   -0.12469E-05   -0.23365E-05    96   0.482E-02    0.980E-03
DAV:   3    -0.339540295070E+02   -0.88483E-05   -0.12091E-05    96   0.324E-02    0.289E-03
DAV:   4    -0.339540338616E+02   -0.43546E-05   -0.18277E-06    48   0.134E-02    0.180E-03
DAV:   5    -0.339540406818E+02   -0.68203E-05   -0.52151E-07    96   0.618E-03    0.510E-04
DAV:   6    -0.339540437370E+02   -0.30552E-05   -0.17048E-07    64   0.301E-03
   9 F= -.33954044E+02 E0= -.33954044E+02  d E =-.110889E-03
       N       E                     dE             d eps       ncg     rms          rms(c)
DAV:   1    -0.339540537949E+02   -0.13113E-04   -0.40470E-03   128   0.588E-01    0.253E-02
DAV:   2    -0.339540460893E+02    0.77055E-05   -0.57653E-05    96   0.738E-02    0.144E-02
DAV:   3    -0.339540495507E+02   -0.34614E-05   -0.25172E-05    96   0.472E-02    0.419E-03
DAV:   4    -0.339540513424E+02   -0.17917E-05   -0.35506E-06    48   0.187E-02    0.256E-03
DAV:   5    -0.339540535473E+02   -0.22049E-05   -0.59268E-07    96   0.821E-03    0.658E-04
DAV:   6    -0.339540544309E+02   -0.88358E-06   -0.17927E-07    48   0.367E-03
  10 F= -.33954054E+02 E0= -.33954054E+02  d E =-.106939E-04
       N       E                     dE             d eps       ncg     rms          rms(c)
DAV:   1    -0.339539833684E+02    0.70179E-04   -0.33730E-03    96   0.546E-01    0.194E-02
DAV:   2    -0.339539785071E+02    0.48613E-05   -0.47472E-05    96   0.626E-02    0.121E-02
DAV:   3    -0.339539818027E+02   -0.32955E-05   -0.11868E-05    96   0.331E-02    0.350E-03
DAV:   4    -0.339539828113E+02   -0.10087E-05   -0.23423E-06    48   0.136E-02    0.199E-03
DAV:   5    -0.339539833813E+02   -0.56999E-06   -0.44692E-07    96   0.649E-03    0.537E-04
DAV:   6    -0.339539836526E+02   -0.27124E-06   -0.17261E-07    48   0.305E-03
  11 F= -.33953984E+02 E0= -.33953984E+02  d E =0.707783E-04
       N       E                     dE             d eps       ncg     rms          rms(c)
DAV:   1    -0.339539682138E+02    0.15167E-04   -0.33940E-03    96   0.551E-01    0.179E-02
DAV:   2    -0.339539635902E+02    0.46236E-05   -0.42056E-05    96   0.564E-02    0.108E-02
DAV:   3    -0.339539676435E+02   -0.40533E-05   -0.78393E-06    80   0.242E-02    0.376E-03
DAV:   4    -0.339539693345E+02   -0.16910E-05   -0.19242E-06    48   0.108E-02    0.110E-03
DAV:   5    -0.339539695106E+02   -0.17606E-06   -0.60999E-07    80   0.545E-03    0.435E-04
DAV:   6    -0.339539696018E+02   -0.91209E-07   -0.21554E-07    48   0.296E-03
  12 F= -.33953970E+02 E0= -.33953970E+02  d E =0.140508E-04
       N       E                     dE             d eps       ncg     rms          rms(c)
DAV:   1    -0.339539770327E+02   -0.75221E-05   -0.59009E-03    96   0.730E-01    0.258E-02
DAV:   2    -0.339539687864E+02    0.82463E-05   -0.88193E-05    96   0.858E-02    0.148E-02
DAV:   3    -0.339539731072E+02   -0.43208E-05   -0.17489E-05    80   0.381E-02    0.594E-03
DAV:   4    -0.339539758741E+02   -0.27669E-05   -0.43657E-06    48   0.182E-02    0.214E-03
DAV:   5    -0.339539760744E+02   -0.20033E-06   -0.10270E-06    80   0.865E-03    0.697E-04
DAV:   6    -0.339539761955E+02   -0.12108E-06   -0.35398E-07    48   0.442E-03
  13 F= -.33953976E+02 E0= -.33953976E+02  d E =-.659370E-05
       N       E                     dE             d eps       ncg     rms          rms(c)
DAV:   1    -0.339539031272E+02    0.72947E-04   -0.78468E-03    96   0.841E-01    0.293E-02
DAV:   2    -0.339538923599E+02    0.10767E-04   -0.11605E-04    96   0.979E-02    0.170E-02
DAV:   3    -0.339538985125E+02   -0.61526E-05   -0.22437E-05    64   0.431E-02    0.673E-03
DAV:   4    -0.339539022822E+02   -0.37697E-05   -0.55596E-06    48   0.204E-02    0.239E-03
DAV:   5    -0.339539026159E+02   -0.33370E-06   -0.13520E-06    80   0.983E-03    0.775E-04
DAV:   6    -0.339539028274E+02   -0.21153E-06   -0.46112E-07    48   0.507E-03
  14 F= -.33953903E+02 E0= -.33953903E+02  d E =0.733681E-04
       N       E                     dE             d eps       ncg     rms          rms(c)
DAV:   1    -0.339538190570E+02    0.83559E-04   -0.93680E-03    96   0.913E-01    0.294E-02
DAV:   2    -0.339538062468E+02    0.12810E-04   -0.11888E-04    96   0.936E-02    0.179E-02
DAV:   3    -0.339538174189E+02   -0.11172E-04   -0.21067E-05    80   0.401E-02    0.619E-03
DAV:   4    -0.339538220345E+02   -0.46155E-05   -0.51710E-06    48   0.179E-02    0.181E-03
DAV:   5    -0.339538224812E+02   -0.44672E-06   -0.16281E-06    48   0.904E-03    0.714E-04
DAV:   6    -0.339538227569E+02   -0.27572E-06   -0.56259E-07    48   0.491E-03
  15 F= -.33953823E+02 E0= -.33953823E+02  d E =0.800705E-04
       N       E                     dE             d eps       ncg     rms          rms(c)
DAV:   1    -0.339537828499E+02    0.39631E-04   -0.14623E-02    96   0.114E+00    0.374E-02
DAV:   2    -0.339537645205E+02    0.18329E-04   -0.22124E-04   128   0.119E-01    0.249E-02
DAV:   3    -0.339537766875E+02   -0.12167E-04   -0.17453E-05    96   0.450E-02    0.899E-03
DAV:   4    -0.339537839721E+02   -0.72846E-05   -0.61711E-06    80   0.234E-02    0.319E-03
DAV:   5    -0.339537842233E+02   -0.25125E-06   -0.11701E-06    48   0.114E-02    0.140E-03
DAV:   6    -0.339537846038E+02   -0.38051E-06   -0.32473E-07    48   0.495E-03
  16 F= -.33953785E+02 E0= -.33953785E+02  d E =0.381531E-04
       N       E                     dE             d eps       ncg     rms          rms(c)
DAV:   1    -0.339536583042E+02    0.12592E-03   -0.21497E-02    96   0.138E+00    0.451E-02
DAV:   2    -0.339536323123E+02    0.25992E-04   -0.32631E-04   128   0.144E-01    0.300E-02
DAV:   3    -0.339536490492E+02   -0.16737E-04   -0.25485E-05    96   0.550E-02    0.111E-02
DAV:   4    -0.339536605766E+02   -0.11527E-04   -0.91334E-06    48   0.287E-02    0.389E-03
DAV:   5    -0.339536609672E+02   -0.39057E-06   -0.17168E-06    48   0.139E-02    0.170E-03
DAV:   6    -0.339536614942E+02   -0.52702E-06   -0.48595E-07    48   0.614E-03
  17 F= -.33953661E+02 E0= -.33953661E+02  d E =0.123110E-03
       N       E                     dE             d eps       ncg     rms          rms(c)
DAV:   1    -0.339536766747E+02   -0.15707E-04   -0.10649E-04    48   0.966E-02    0.414E-03
DAV:   2    -0.339536770701E+02   -0.39540E-06   -0.46938E-06    80   0.220E-02    0.240E-03
DAV:   3    -0.339536773303E+02   -0.26020E-06   -0.56354E-07    48   0.785E-03    0.980E-04
DAV:   4    -0.339536776149E+02   -0.28465E-06   -0.20036E-07    48   0.388E-03    0.453E-04
DAV:   5    -0.339536778606E+02   -0.24567E-06   -0.57013E-08    48   0.181E-03    0.145E-04
DAV:   6    -0.339536780451E+02   -0.18454E-06   -0.35022E-08    80   0.803E-04
  18 F= -.33953678E+02 E0= -.33953678E+02  d E =-.165509E-04
       N       E                     dE             d eps       ncg     rms          rms(c)
DAV:   1    -0.339536946920E+02   -0.16831E-04   -0.34701E-04    96   0.171E-01    0.827E-03
DAV:   2    -0.339536939357E+02    0.75627E-06   -0.48130E-06    48   0.221E-02    0.427E-03
DAV:   3    -0.339536940576E+02   -0.12190E-06   -0.21470E-06    80   0.136E-02    0.124E-03
DAV:   4    -0.339536941647E+02   -0.10703E-06   -0.32013E-07    48   0.541E-03    0.658E-04
DAV:   5    -0.339536942685E+02   -0.10386E-06   -0.74539E-08    48   0.242E-03    0.175E-04
DAV:   6    -0.339536943220E+02   -0.53498E-07   -0.41477E-08    48   0.105E-03
  19 F= -.33953694E+02 E0= -.33953694E+02  d E =-.162769E-04
       N       E                     dE             d eps       ncg     rms          rms(c)
DAV:   1    -0.339536960830E+02   -0.18145E-05   -0.50688E-04   112   0.208E-01    0.979E-03
DAV:   2    -0.339536949717E+02    0.11113E-05   -0.72504E-06    48   0.267E-02    0.508E-03
DAV:   3    -0.339536950398E+02   -0.68022E-07   -0.28759E-06    80   0.157E-02    0.151E-03
DAV:   4    -0.339536951355E+02   -0.95724E-07   -0.42867E-07    48   0.623E-03    0.776E-04
DAV:   5    -0.339536951892E+02   -0.53678E-07   -0.94243E-08    48   0.280E-03    0.202E-04
DAV:   6    -0.339536952187E+02   -0.29554E-07   -0.48997E-08    48   0.122E-03
  20 F= -.33953695E+02 E0= -.33953695E+02  d E =-.896690E-06
       N       E                     dE             d eps       ncg     rms          rms(c)
DAV:   1    -0.339536951415E+02    0.47645E-07   -0.47861E-07    48   0.641E-03    0.217E-04
DAV:   2    -0.339536951648E+02   -0.23284E-07   -0.55051E-08    48   0.152E-03    0.141E-04
DAV:   3    -0.339536951998E+02   -0.34975E-07   -0.37249E-08    48   0.562E-04    0.557E-05
DAV:   4    -0.339536952264E+02   -0.26582E-07   -0.35738E-08    48   0.264E-04    0.321E-05
DAV:   5    -0.339536952544E+02   -0.28090E-07   -0.35394E-08    48   0.142E-04    0.122E-05
DAV:   6    -0.339536952746E+02   -0.20176E-07   -0.35394E-08    48   0.822E-05
  21 F= -.33953695E+02 E0= -.33953695E+02  d E =-.559093E-07
       N       E                     dE             d eps       ncg     rms          rms(c)
DAV:   1    -0.339536950243E+02    0.23018E-06   -0.17532E-06    48   0.126E-02    0.401E-04
DAV:   2    -0.339536950317E+02   -0.74112E-08   -0.10973E-07    48   0.288E-03    0.260E-04
DAV:   3    -0.339536950433E+02   -0.11648E-07   -0.43146E-08    48   0.941E-04    0.114E-04
DAV:   4    -0.339536950522E+02   -0.88403E-08   -0.37373E-08    48   0.443E-04    0.530E-05
DAV:   5    -0.339536950587E+02   -0.64967E-08   -0.35345E-08    48   0.226E-04    0.206E-05
DAV:   6    -0.339536950621E+02   -0.34815E-08   -0.34701E-08    48   0.101E-04
  22 F= -.33953695E+02 E0= -.33953695E+02  d E =0.212483E-06
       N       E                     dE             d eps       ncg     rms          rms(c)
DAV:   1    -0.339536946071E+02    0.45153E-06   -0.37671E-06    48   0.185E-02    0.586E-04
DAV:   2    -0.339536946096E+02   -0.24954E-08   -0.19585E-07    48   0.425E-03    0.380E-04
DAV:   3    -0.339536946167E+02   -0.70434E-08   -0.51366E-08    48   0.138E-03    0.168E-04
DAV:   4    -0.339536946210E+02   -0.43583E-08   -0.39069E-08    48   0.649E-04    0.765E-05
DAV:   5    -0.339536946230E+02   -0.19304E-08   -0.35029E-08    48   0.329E-04    0.306E-05
DAV:   6    -0.339536946239E+02   -0.96111E-09   -0.34145E-08    48   0.147E-04
  23 F= -.33953695E+02 E0= -.33953695E+02  d E =0.438221E-06
       N       E                     dE             d eps       ncg     rms          rms(c)
DAV:   1    -0.339536939220E+02    0.70096E-06   -0.63704E-06    48   0.242E-02    0.755E-04
DAV:   2    -0.339536939256E+02   -0.35767E-08   -0.30780E-07    48   0.554E-03    0.487E-04
DAV:   3    -0.339536939353E+02   -0.97223E-08   -0.62992E-08    48   0.178E-03    0.220E-04
DAV:   4    -0.339536939402E+02   -0.49038E-08   -0.42251E-08    48   0.839E-04    0.967E-05
DAV:   5    -0.339536939414E+02   -0.11526E-08   -0.35765E-08    48   0.424E-04    0.404E-05
DAV:   6    -0.339536939418E+02   -0.46111E-09   -0.34342E-08    48   0.191E-04
  24 F= -.33953694E+02 E0= -.33953694E+02  d E =0.682103E-06
       N       E                     dE             d eps       ncg     rms          rms(c)
DAV:   1    -0.339536929496E+02    0.99173E-06   -0.94045E-06    48   0.294E-02    0.907E-04
DAV:   2    -0.339536929563E+02   -0.66334E-08   -0.43795E-07    48   0.674E-03    0.580E-04
DAV:   3    -0.339536929712E+02   -0.14961E-07   -0.76795E-08    48   0.213E-03    0.267E-04
DAV:   4    -0.339536929786E+02   -0.73553E-08   -0.46110E-08    48   0.100E-03    0.113E-04
DAV:   5    -0.339536929794E+02   -0.81650E-09   -0.36954E-08    48   0.504E-04    0.495E-05
DAV:   6    -0.339536929798E+02   -0.39904E-09   -0.34860E-08    48   0.232E-04
  25 F= -.33953693E+02 E0= -.33953693E+02  d E =0.962023E-06
       N       E                     dE             d eps       ncg     rms          rms(c)
DAV:   1    -0.339536916751E+02    0.13043E-05   -0.12745E-05    48   0.342E-02    0.105E-03
DAV:   2    -0.339536916865E+02   -0.11455E-07   -0.57987E-07    48   0.785E-03    0.659E-04
DAV:   3    -0.339536917078E+02   -0.21258E-07   -0.92073E-08    48   0.245E-03    0.310E-04
DAV:   4    -0.339536917177E+02   -0.98989E-08   -0.50021E-08    48   0.115E-03    0.124E-04
DAV:   5    -0.339536917187E+02   -0.10191E-08   -0.38320E-08    48   0.569E-04    0.577E-05
DAV:   6    -0.339536917191E+02   -0.36312E-09   -0.35538E-08    48   0.272E-04
  26 F= -.33953692E+02 E0= -.33953692E+02  d E =0.126073E-05
       N       E                     dE             d eps       ncg     rms          rms(c)
DAV:   1    -0.339536899178E+02    0.18009E-05   -0.20262E-05    48   0.431E-02    0.131E-03
DAV:   2    -0.339536899393E+02   -0.21475E-07   -0.89764E-07    48   0.989E-03    0.807E-04
DAV:   3    -0.339536899752E+02   -0.35895E-07   -0.12623E-07    48   0.304E-03    0.386E-04
DAV:   4    -0.339536899914E+02   -0.16223E-07   -0.58536E-08    48   0.140E-03    0.146E-04
DAV:   5    -0.339536899923E+02   -0.89949E-09   -0.41114E-08    48   0.693E-04    0.721E-05
DAV:   6    -0.339536899930E+02   -0.69804E-09   -0.36775E-08    48   0.346E-04
  27 F= -.33953690E+02 E0= -.33953690E+02  d E =0.172604E-05
       N       E                     dE             d eps       ncg     rms          rms(c)
DAV:   1    -0.339536876223E+02    0.23700E-05   -0.31625E-05    48   0.538E-02    0.163E-03
DAV:   2    -0.339536876610E+02   -0.38661E-07   -0.13750E-06    48   0.123E-02    0.978E-04
DAV:   3    -0.339536877192E+02   -0.58177E-07   -0.17775E-07    48   0.374E-03    0.473E-04
DAV:   4    -0.339536877451E+02   -0.25932E-07   -0.70577E-08    48   0.170E-03    0.169E-04
DAV:   5    -0.339536877460E+02   -0.87016E-09   -0.45290E-08    48   0.836E-04    0.882E-05
DAV:   6    -0.339536877465E+02   -0.46543E-09   -0.38545E-08    48   0.436E-04
  28 F= -.33953688E+02 E0= -.33953688E+02  d E =0.224657E-05
       N       E                     dE             d eps       ncg     rms          rms(c)
DAV:   1    -0.339536847631E+02    0.29829E-05   -0.48986E-05    48   0.669E-02    0.203E-03
DAV:   2    -0.339536848283E+02   -0.65216E-07   -0.21009E-06    48   0.153E-02    0.119E-03
DAV:   3    -0.339536849210E+02   -0.92655E-07   -0.25591E-07    48   0.459E-03    0.576E-04
DAV:   4    -0.339536849619E+02   -0.40909E-07   -0.88237E-08    48   0.205E-03    0.195E-04
DAV:   5    -0.339536849626E+02   -0.70509E-09   -0.51362E-08    48   0.101E-03    0.107E-04
DAV:   6    -0.339536849628E+02   -0.15348E-09   -0.41027E-08    48   0.545E-04
  29 F= -.33953685E+02 E0= -.33953685E+02  d E =0.278370E-05
       N       E                     dE             d eps       ncg     rms          rms(c)
DAV:   1    -0.339536813160E+02    0.36466E-05   -0.75753E-05    48   0.832E-02    0.254E-03
DAV:   2    -0.339536814255E+02   -0.10956E-06   -0.32197E-06    48   0.189E-02    0.145E-03
DAV:   3    -0.339536815668E+02   -0.14129E-06   -0.37533E-07    48   0.564E-03    0.706E-04
DAV:   4    -0.339536816303E+02   -0.63447E-07   -0.11493E-07    48   0.249E-03    0.229E-04
DAV:   5    -0.339536816311E+02   -0.83992E-09   -0.60365E-08    48   0.123E-03    0.129E-04
DAV:   6    -0.339536816307E+02    0.34902E-09   -0.44594E-08    48   0.675E-04
  30 F= -.33953682E+02 E0= -.33953682E+02  d E =0.333200E-05
       N       E                     dE             d eps       ncg     rms          rms(c)
DAV:   1    -0.339536771882E+02    0.44428E-05   -0.11674E-04    64   0.103E-01    0.317E-03
DAV:   2    -0.339536773703E+02   -0.18203E-06   -0.49384E-06    48   0.234E-02    0.179E-03
DAV:   3    -0.339536775777E+02   -0.20744E-06   -0.55790E-07    48   0.695E-03    0.874E-04
DAV:   4    -0.339536776742E+02   -0.96485E-07   -0.15596E-07    48   0.305E-03    0.281E-04
DAV:   5    -0.339536776753E+02   -0.10753E-08   -0.73964E-08    48   0.150E-03    0.159E-04
DAV:   6    -0.339536776744E+02    0.83605E-09   -0.49595E-08    48   0.832E-04
  31 F= -.33953678E+02 E0= -.33953678E+02  d E =0.395630E-05
       N       E                     dE             d eps       ncg     rms          rms(c)
DAV:   1    -0.339536727490E+02    0.49262E-05   -0.18322E-04    96   0.127E-01    0.386E-03
DAV:   2    -0.339536725655E+02    0.18355E-06   -0.24286E-06    48   0.130E-02    0.230E-03
DAV:   3    -0.339536728232E+02   -0.25767E-06   -0.36544E-07    48   0.536E-03    0.768E-04
DAV:   4    -0.339536729020E+02   -0.78816E-07   -0.11585E-07    48   0.242E-03    0.275E-04
DAV:   5    -0.339536729029E+02   -0.95815E-09   -0.60252E-08    48   0.120E-03    0.106E-04
DAV:   6    -0.339536729054E+02   -0.24845E-08   -0.46211E-08    48   0.648E-04
  32 F= -.33953673E+02 E0= -.33953673E+02  d E =0.476903E-05
       N       E                     dE             d eps       ncg     rms          rms(c)
DAV:   1    -0.339536669365E+02    0.59664E-05   -0.27078E-04    96   0.155E-01    0.469E-03
DAV:   2    -0.339536666756E+02    0.26089E-06   -0.35514E-06    48   0.158E-02    0.280E-03
DAV:   3    -0.339536670365E+02   -0.36091E-06   -0.51062E-07    48   0.647E-03    0.944E-04
DAV:   4    -0.339536671553E+02   -0.11880E-06   -0.14941E-07    48   0.290E-03    0.331E-04
DAV:   5    -0.339536671588E+02   -0.34852E-08   -0.69573E-08    48   0.144E-03    0.130E-04
DAV:   6    -0.339536671628E+02   -0.39795E-08   -0.49460E-08    48   0.773E-04
  33 F= -.33953667E+02 E0= -.33953667E+02  d E =0.574262E-05
       N       E                     dE             d eps       ncg     rms          rms(c)
DAV:   1    -0.339536602569E+02    0.69020E-05   -0.38685E-04    96   0.185E-01    0.559E-03
DAV:   2    -0.339536598744E+02    0.38243E-06   -0.50601E-06    48   0.188E-02    0.336E-03
DAV:   3    -0.339536603880E+02   -0.51354E-06   -0.71821E-07    48   0.782E-03    0.115E-03
DAV:   4    -0.339536605560E+02   -0.16800E-06   -0.20118E-07    48   0.352E-03    0.415E-04
DAV:   5    -0.339536605633E+02   -0.73196E-08   -0.83162E-08    48   0.177E-03    0.170E-04
DAV:   6    -0.339536605694E+02   -0.61286E-08   -0.54050E-08    48   0.939E-04
  34 F= -.33953661E+02 E0= -.33953661E+02  d E =0.659338E-05
       N       E                     dE             d eps       ncg     rms          rms(c)
DAV:   1    -0.339536531792E+02    0.73841E-05   -0.53764E-04    96   0.219E-01    0.657E-03
DAV:   2    -0.339536526162E+02    0.56300E-06   -0.70566E-06    48   0.223E-02    0.400E-03
DAV:   3    -0.339536533322E+02   -0.71602E-06   -0.10165E-06    48   0.949E-03    0.139E-03
DAV:   4    -0.339536535622E+02   -0.22997E-06   -0.28052E-07    48   0.430E-03    0.535E-04
DAV:   5    -0.339536535769E+02   -0.14783E-07   -0.10123E-07    48   0.221E-03    0.222E-04
DAV:   6    -0.339536535869E+02   -0.99969E-08   -0.59944E-08    48   0.114E-03
  35 F= -.33953654E+02 E0= -.33953654E+02  d E =0.698247E-05
       N       E                     dE             d eps       ncg     rms          rms(c)
DAV:   1    -0.339536458958E+02    0.76811E-05   -0.73874E-04    96   0.257E-01    0.772E-03
DAV:   2    -0.339536451034E+02    0.79243E-06   -0.97404E-06    48   0.263E-02    0.476E-03
DAV:   3    -0.339536460632E+02   -0.95984E-06   -0.14288E-06    48   0.114E-02    0.167E-03
DAV:   4    -0.339536463766E+02   -0.31334E-06   -0.39068E-07    48   0.520E-03    0.660E-04
DAV:   5    -0.339536463987E+02   -0.22124E-07   -0.12554E-07    48   0.269E-03    0.272E-04
DAV:   6    -0.339536464139E+02   -0.15209E-07   -0.67746E-08    48   0.135E-03
  36 F= -.33953646E+02 E0= -.33953646E+02  d E =0.717303E-05
       N       E                     dE             d eps       ncg     rms          rms(c)
DAV:   1    -0.339536387186E+02    0.76801E-05   -0.98934E-04    96   0.298E-01    0.895E-03
DAV:   2    -0.339536376825E+02    0.10361E-05   -0.12957E-05    48   0.303E-02    0.551E-03
DAV:   3    -0.339536389420E+02   -0.12595E-05   -0.18514E-06    48   0.130E-02    0.196E-03
DAV:   4    -0.339536393856E+02   -0.44361E-06   -0.49686E-07    48   0.591E-03    0.726E-04
DAV:   5    -0.339536394145E+02   -0.28928E-07   -0.15545E-07    48   0.305E-03    0.305E-04
DAV:   6    -0.339536394340E+02   -0.19480E-07   -0.77266E-08    48   0.155E-03
  37 F= -.33953639E+02 E0= -.33953639E+02  d E =0.697989E-05
       N       E                     dE             d eps       ncg     rms          rms(c)
DAV:   1    -0.339536332728E+02    0.61418E-05   -0.12554E-03    96   0.336E-01    0.102E-02
DAV:   2    -0.339536320286E+02    0.12441E-05   -0.16230E-05    96   0.339E-02    0.616E-03
DAV:   3    -0.339536335784E+02   -0.15498E-05   -0.22266E-06    48   0.140E-02    0.224E-03
DAV:   4    -0.339536341806E+02   -0.60217E-06   -0.56578E-07    48   0.628E-03    0.700E-04
DAV:   5    -0.339536342101E+02   -0.29514E-07   -0.18568E-07    48   0.316E-03    0.299E-04
DAV:   6    -0.339536342322E+02   -0.22077E-07   -0.86696E-08    48   0.166E-03
  38 F= -.33953634E+02 E0= -.33953634E+02  d E =0.520183E-05
       N       E                     dE             d eps       ncg     rms          rms(c)
DAV:   1    -0.339536308221E+02    0.33880E-05   -0.15003E-03    96   0.369E-01    0.112E-02
DAV:   2    -0.339536293287E+02    0.14934E-05   -0.19221E-05    48   0.371E-02    0.677E-03
DAV:   3    -0.339536311245E+02   -0.17958E-05   -0.26545E-06    48   0.152E-02    0.251E-03
DAV:   4    -0.339536318574E+02   -0.73294E-06   -0.64635E-07    48   0.674E-03    0.709E-04
DAV:   5    -0.339536318945E+02   -0.37077E-07   -0.21312E-07    48   0.331E-03    0.295E-04
DAV:   6    -0.339536319227E+02   -0.28230E-07   -0.95142E-08    48   0.176E-03
  39 F= -.33953632E+02 E0= -.33953632E+02  d E =0.230945E-05
       N       E                     dE             d eps       ncg     rms          rms(c)
DAV:   1    -0.339536331669E+02   -0.12724E-05   -0.15810E-03    96   0.380E-01    0.115E-02
DAV:   2    -0.339536314414E+02    0.17255E-05   -0.19730E-05    48   0.378E-02    0.708E-03
DAV:   3    -0.339536333652E+02   -0.19237E-05   -0.28422E-06    48   0.158E-02    0.259E-03
DAV:   4    -0.339536340999E+02   -0.73480E-06   -0.72138E-07    48   0.715E-03    0.781E-04
DAV:   5    -0.339536341475E+02   -0.47592E-07   -0.22239E-07    48   0.355E-03    0.329E-04
DAV:   6    -0.339536341852E+02   -0.37650E-07   -0.96971E-08    48   0.184E-03
  40 F= -.33953634E+02 E0= -.33953634E+02  d E =-.226245E-05
       N       E                     dE             d eps       ncg     rms          rms(c)
DAV:   1    -0.339536399395E+02   -0.57920E-05   -0.14749E-03    96   0.369E-01    0.111E-02
DAV:   2    -0.339536383062E+02    0.16333E-05   -0.17483E-05    96   0.361E-02    0.689E-03
DAV:   3    -0.339536400031E+02   -0.16968E-05   -0.26643E-06    48   0.153E-02    0.247E-03
DAV:   4    -0.339536406154E+02   -0.61230E-06   -0.68797E-07    48   0.697E-03    0.767E-04
DAV:   5    -0.339536406695E+02   -0.54102E-07   -0.20504E-07    48   0.342E-03    0.310E-04
DAV:   6    -0.339536407136E+02   -0.44164E-07   -0.89652E-08    48   0.173E-03
  41 F= -.33953641E+02 E0= -.33953641E+02  d E =-.652844E-05
       N       E                     dE             d eps       ncg     rms          rms(c)
DAV:   1    -0.339536408266E+02   -0.15714E-06   -0.10257E-06    48   0.959E-03    0.310E-04
DAV:   2    -0.339536408596E+02   -0.32958E-07   -0.86353E-08    48   0.233E-03    0.205E-04
DAV:   3    -0.339536409050E+02   -0.45416E-07   -0.41244E-08    48   0.803E-04    0.888E-05
DAV:   4    -0.339536409491E+02   -0.44132E-07   -0.37839E-08    48   0.390E-04    0.421E-05
DAV:   5    -0.339536409957E+02   -0.46561E-07   -0.37017E-08    48   0.218E-04    0.154E-05
DAV:   6    -0.339536410288E+02   -0.33171E-07   -0.36922E-08    48   0.126E-04
  42 F= -.33953641E+02 E0= -.33953641E+02  d E =-.315214E-06
       N       E                     dE             d eps       ncg     rms          rms(c)
DAV:   1    -0.339536411467E+02   -0.15106E-06   -0.34776E-06    48   0.179E-02    0.593E-04
DAV:   2    -0.339536411677E+02   -0.20967E-07   -0.18844E-07    48   0.409E-03    0.380E-04
DAV:   3    -0.339536411902E+02   -0.22550E-07   -0.51932E-08    48   0.134E-03    0.160E-04
DAV:   4    -0.339536412063E+02   -0.16074E-07   -0.41372E-08    48   0.637E-04    0.759E-05
DAV:   5    -0.339536412179E+02   -0.11615E-07   -0.37368E-08    48   0.329E-04    0.271E-05
DAV:   6    -0.339536412247E+02   -0.67996E-08   -0.36232E-08    48   0.147E-04
  43 F= -.33953641E+02 E0= -.33953641E+02  d E =-.195897E-06
       N       E                     dE             d eps       ncg     rms          rms(c)
DAV:   1    -0.339536412498E+02   -0.31858E-07   -0.63912E-06    48   0.243E-02    0.773E-04
DAV:   2    -0.339536412629E+02   -0.13124E-07   -0.31334E-07    48   0.558E-03    0.496E-04
DAV:   3    -0.339536412754E+02   -0.12470E-07   -0.62693E-08    48   0.178E-03    0.215E-04
DAV:   4    -0.339536412814E+02   -0.60332E-08   -0.42823E-08    48   0.841E-04    0.968E-05
DAV:   5    -0.339536412831E+02   -0.16348E-08   -0.36028E-08    48   0.427E-04    0.377E-05
DAV:   6    -0.339536412843E+02   -0.12328E-08   -0.34299E-08    48   0.194E-04
  44 F= -.33953641E+02 E0= -.33953641E+02  d E =-.595530E-07
       N       E                     dE             d eps       ncg     rms          rms(c)
DAV:   1    -0.339536412329E+02    0.50107E-07   -0.89769E-06    48   0.288E-02    0.874E-04
DAV:   2    -0.339536412457E+02   -0.12750E-07   -0.41779E-07    48   0.663E-03    0.548E-04
DAV:   3    -0.339536412598E+02   -0.14056E-07   -0.71694E-08    48   0.204E-03    0.245E-04
DAV:   4    -0.339536412654E+02   -0.56393E-08   -0.43155E-08    48   0.939E-04    0.975E-05
DAV:   5    -0.339536412666E+02   -0.11757E-08   -0.35270E-08    48   0.464E-04    0.440E-05
DAV:   6    -0.339536412670E+02   -0.46430E-09   -0.33087E-08    48   0.231E-04
  45 F= -.33953641E+02 E0= -.33953641E+02  d E =0.172543E-07
       N       E                     dE             d eps       ncg     rms          rms(c)
DAV:   1    -0.339536412102E+02    0.56363E-07   -0.11798E-05    48   0.329E-02    0.989E-04
DAV:   2    -0.339536412239E+02   -0.13645E-07   -0.52967E-07    48   0.756E-03    0.587E-04
DAV:   3    -0.339536412429E+02   -0.19022E-07   -0.83189E-08    48   0.226E-03    0.261E-04
DAV:   4    -0.339536412507E+02   -0.78073E-08   -0.44039E-08    48   0.100E-03    0.859E-05
DAV:   5    -0.339536412522E+02   -0.15302E-08   -0.35093E-08    48   0.494E-04    0.469E-05
DAV:   6    -0.339536412528E+02   -0.61800E-09   -0.32457E-08    48   0.270E-04
  46 F= -.33953641E+02 E0= -.33953641E+02  d E =0.142043E-07
       N       E                     dE             d eps       ncg     rms          rms(c)
DAV:   1    -0.339536412263E+02    0.25929E-07   -0.15922E-05    48   0.382E-02    0.115E-03
DAV:   2    -0.339536412437E+02   -0.17375E-07   -0.70336E-07    48   0.874E-03    0.667E-04
DAV:   3    -0.339536412680E+02   -0.24353E-07   -0.10101E-07    48   0.258E-03    0.302E-04
DAV:   4    -0.339536412783E+02   -0.10325E-07   -0.46988E-08    48   0.113E-03    0.915E-05
DAV:   5    -0.339536412809E+02   -0.25761E-08   -0.35609E-08    48   0.556E-04    0.541E-05
DAV:   6    -0.339536412821E+02   -0.12334E-08   -0.32108E-08    48   0.308E-04
  47 F= -.33953641E+02 E0= -.33953641E+02  d E =-.293151E-07
       N       E                     dE             d eps       ncg     rms          rms(c)
DAV:   1    -0.339536412154E+02    0.65558E-07   -0.26569E-05    48   0.494E-02    0.150E-03
DAV:   2    -0.339536412466E+02   -0.31292E-07   -0.11609E-06    48   0.113E-02    0.867E-04
DAV:   3    -0.339536412846E+02   -0.37905E-07   -0.14800E-07    48   0.333E-03    0.413E-04
DAV:   4    -0.339536413011E+02   -0.16588E-07   -0.57390E-08    48   0.146E-03    0.132E-04
DAV:   5    -0.339536413051E+02   -0.39736E-08   -0.38269E-08    48   0.714E-04    0.768E-05
DAV:   6    -0.339536413072E+02   -0.20965E-08   -0.32456E-08    48   0.389E-04
  48 F= -.33953641E+02 E0= -.33953641E+02  d E =-.250637E-07
       N       E                     dE             d eps       ncg     rms          rms(c)
DAV:   1    -0.339536410938E+02    0.21132E-06   -0.41762E-05    48   0.619E-02    0.188E-03
DAV:   2    -0.339536411459E+02   -0.52150E-07   -0.18075E-06    48   0.141E-02    0.109E-03
DAV:   3    -0.339536412069E+02   -0.60987E-07   -0.21613E-07    48   0.417E-03    0.520E-04
DAV:   4    -0.339536412334E+02   -0.26429E-07   -0.72719E-08    48   0.183E-03    0.167E-04
DAV:   5    -0.339536412388E+02   -0.54238E-08   -0.42598E-08    48   0.897E-04    0.964E-05
DAV:   6    -0.339536412414E+02   -0.25869E-08   -0.33404E-08    48   0.490E-04
  49 F= -.33953641E+02 E0= -.33953641E+02  d E =0.658396E-07
       N       E                     dE             d eps       ncg     rms          rms(c)
DAV:   1    -0.339536409142E+02    0.32459E-06   -0.60213E-05    48   0.743E-02    0.226E-03
DAV:   2    -0.339536409913E+02   -0.77136E-07   -0.25733E-06    48   0.170E-02    0.130E-03
DAV:   3    -0.339536410878E+02   -0.96453E-07   -0.29939E-07    48   0.503E-03    0.605E-04
DAV:   4    -0.339536411278E+02   -0.40053E-07   -0.91672E-08    48   0.220E-03    0.184E-04
DAV:   5    -0.339536411337E+02   -0.58458E-08   -0.48195E-08    48   0.109E-03    0.107E-04
DAV:   6    -0.339536411364E+02   -0.27294E-08   -0.34927E-08    48   0.603E-04
  50 F= -.33953641E+02 E0= -.33953641E+02  d E =0.104964E-06
       N       E                     dE             d eps       ncg     rms          rms(c)
DAV:   1    -0.339536407802E+02    0.35346E-06   -0.85903E-05    48   0.888E-02    0.270E-03
DAV:   2    -0.339536408914E+02   -0.11118E-06   -0.36482E-06    48   0.203E-02    0.159E-03
DAV:   3    -0.339536410329E+02   -0.14148E-06   -0.41477E-07    48   0.606E-03    0.736E-04
DAV:   4    -0.339536410916E+02   -0.58731E-07   -0.12137E-07    48   0.270E-03    0.235E-04
DAV:   5    -0.339536410981E+02   -0.64713E-08   -0.56391E-08    48   0.133E-03    0.130E-04
DAV:   6    -0.339536411010E+02   -0.29058E-08   -0.37234E-08    48   0.735E-04
  51 F= -.33953641E+02 E0= -.33953641E+02  d E =0.354153E-07
       N       E                     dE             d eps       ncg     rms          rms(c)
DAV:   1    -0.339536406076E+02    0.49045E-06   -0.12273E-04    64   0.106E-01    0.324E-03
DAV:   2    -0.339536407714E+02   -0.16379E-06   -0.51903E-06    48   0.242E-02    0.193E-03
DAV:   3    -0.339536409681E+02   -0.19666E-06   -0.58293E-07    48   0.727E-03    0.903E-04
DAV:   4    -0.339536410514E+02   -0.83291E-07   -0.16410E-07    48   0.327E-03    0.299E-04
DAV:   5    -0.339536410600E+02   -0.85931E-08   -0.68416E-08    48   0.161E-03    0.161E-04
DAV:   6    -0.339536410636E+02   -0.36717E-08   -0.40732E-08    48   0.880E-04
  52 F= -.33953641E+02 E0= -.33953641E+02  d E =0.373529E-07
       N       E                     dE             d eps       ncg     rms          rms(c)
DAV:   1    -0.339536411332E+02   -0.73240E-07   -0.16739E-04    96   0.122E-01    0.362E-03
DAV:   2    -0.339536409228E+02    0.21045E-06   -0.21073E-06    48   0.122E-02    0.226E-03
DAV:   3    -0.339536411339E+02   -0.21117E-06   -0.32249E-07    48   0.522E-03    0.709E-04
DAV:   4    -0.339536411946E+02   -0.60726E-07   -0.98617E-08    48   0.230E-03    0.241E-04
DAV:   5    -0.339536412016E+02   -0.69474E-08   -0.47154E-08    48   0.118E-03    0.102E-04
DAV:   6    -0.339536412073E+02   -0.56780E-08   -0.34226E-08    48   0.622E-04
  53 F= -.33953641E+02 E0= -.33953641E+02  d E =-.143638E-06
       N       E                     dE             d eps       ncg     rms          rms(c)
DAV:   1    -0.339536415622E+02   -0.36057E-06   -0.21826E-04    96   0.140E-01    0.415E-03
DAV:   2    -0.339536413079E+02    0.25425E-06   -0.26615E-06    48   0.139E-02    0.255E-03
DAV:   3    -0.339536415455E+02   -0.23762E-06   -0.38754E-07    48   0.568E-03    0.853E-04
DAV:   4    -0.339536416274E+02   -0.81912E-07   -0.10903E-07    48   0.247E-03    0.263E-04
DAV:   5    -0.339536416393E+02   -0.11878E-07   -0.51235E-08    48   0.122E-03    0.109E-04
DAV:   6    -0.339536416479E+02   -0.86150E-08   -0.35403E-08    48   0.653E-04
  54 F= -.33953642E+02 E0= -.33953642E+02  d E =-.440662E-06
       N       E                     dE             d eps       ncg     rms          rms(c)
DAV:   1    -0.339536424120E+02   -0.77265E-06   -0.25959E-04    96   0.152E-01    0.449E-03
DAV:   2    -0.339536421209E+02    0.29108E-06   -0.28805E-06    48   0.145E-02    0.278E-03
DAV:   3    -0.339536424088E+02   -0.28792E-06   -0.43777E-07    48   0.609E-03    0.832E-04
DAV:   4    -0.339536424822E+02   -0.73352E-07   -0.12195E-07    48   0.263E-03    0.277E-04
DAV:   5    -0.339536424932E+02   -0.11071E-07   -0.54914E-08    48   0.133E-03    0.117E-04
DAV:   6    -0.339536425031E+02   -0.98582E-08   -0.36695E-08    48   0.692E-04
  55 F= -.33953643E+02 E0= -.33953643E+02  d E =-.855160E-06
       N       E                     dE             d eps       ncg     rms          rms(c)
DAV:   1    -0.339536438280E+02   -0.13347E-05   -0.30566E-04    96   0.163E-01    0.489E-03
DAV:   2    -0.339536434885E+02    0.33942E-06   -0.30462E-06    48   0.152E-02    0.305E-03
DAV:   3    -0.339536438240E+02   -0.33542E-06   -0.52604E-07    48   0.683E-03    0.757E-04
DAV:   4    -0.339536438715E+02   -0.47572E-07   -0.14322E-07    48   0.293E-03    0.325E-04
DAV:   5    -0.339536438816E+02   -0.10114E-07   -0.58523E-08    48   0.149E-03    0.134E-04
DAV:   6    -0.339536438923E+02   -0.10654E-07   -0.38203E-08    48   0.756E-04
  56 F= -.33953644E+02 E0= -.33953644E+02  d E =-.138920E-05
       N       E                     dE             d eps       ncg     rms          rms(c)
DAV:   1    -0.339536457868E+02   -0.19051E-05   -0.35724E-04    96   0.177E-01    0.526E-03
DAV:   2    -0.339536454364E+02    0.35035E-06   -0.33800E-06    48   0.160E-02    0.316E-03
DAV:   3    -0.339536457419E+02   -0.30544E-06   -0.54487E-07    48   0.662E-03    0.913E-04
DAV:   4    -0.339536458094E+02   -0.67572E-07   -0.14433E-07    48   0.287E-03    0.338E-04
DAV:   5    -0.339536458268E+02   -0.17359E-07   -0.61814E-08    48   0.144E-03    0.137E-04
DAV:   6    -0.339536458412E+02   -0.14418E-07   -0.39303E-08    48   0.739E-04
  57 F= -.33953646E+02 E0= -.33953646E+02  d E =-.194892E-05
       N       E                     dE             d eps       ncg     rms          rms(c)
DAV:   1    -0.339536481807E+02   -0.23539E-05   -0.41558E-04    96   0.189E-01    0.562E-03
DAV:   2    -0.339536478037E+02    0.37698E-06   -0.34212E-06    48   0.159E-02    0.336E-03
DAV:   3    -0.339536481311E+02   -0.32738E-06   -0.59262E-07    48   0.680E-03    0.810E-04
DAV:   4    -0.339536481774E+02   -0.46358E-07   -0.15517E-07    48   0.292E-03    0.352E-04
DAV:   5    -0.339536481960E+02   -0.18573E-07   -0.65431E-08    48   0.148E-03    0.153E-04
DAV:   6    -0.339536482139E+02   -0.17902E-07   -0.40730E-08    48   0.743E-04
  58 F= -.33953648E+02 E0= -.33953648E+02  d E =-.237269E-05
       N       E                     dE             d eps       ncg     rms          rms(c)
DAV:   1    -0.339536505885E+02   -0.23925E-05   -0.51938E-04    96   0.210E-01    0.628E-03
DAV:   2    -0.339536501030E+02    0.48548E-06   -0.38563E-06    48   0.169E-02    0.379E-03
DAV:   3    -0.339536505359E+02   -0.43294E-06   -0.83005E-07    48   0.820E-03    0.719E-04
DAV:   4    -0.339536505530E+02   -0.17081E-07   -0.19914E-07    48   0.346E-03    0.384E-04
DAV:   5    -0.339536505733E+02   -0.20231E-07   -0.76759E-08    48   0.170E-03    0.161E-04
DAV:   6    -0.339536505938E+02   -0.20597E-07   -0.45310E-08    48   0.852E-04
  59 F= -.33953651E+02 E0= -.33953651E+02  d E =-.237994E-05
       N       E                     dE             d eps       ncg     rms          rms(c)
DAV:   1    -0.339536524626E+02   -0.18894E-05   -0.73946E-04    96   0.255E-01    0.763E-03
DAV:   2    -0.339536517117E+02    0.75088E-06   -0.68542E-06    48   0.231E-02    0.455E-03
DAV:   3    -0.339536522899E+02   -0.57817E-06   -0.12729E-06    48   0.104E-02    0.104E-03
DAV:   4    -0.339536523681E+02   -0.78200E-07   -0.28897E-07    48   0.433E-03    0.545E-04
DAV:   5    -0.339536524098E+02   -0.41672E-07   -0.91388E-08    48   0.210E-03    0.189E-04
DAV:   6    -0.339536524430E+02   -0.33235E-07   -0.53912E-08    48   0.111E-03
  60 F= -.33953652E+02 E0= -.33953652E+02  d E =-.184917E-05
       N       E                     dE             d eps       ncg     rms          rms(c)
DAV:   1    -0.339536532323E+02   -0.82250E-06   -0.10550E-03    96   0.298E-01    0.954E-03
DAV:   2    -0.339536519701E+02    0.12621E-05   -0.10604E-05    48   0.289E-02    0.585E-03
DAV:   3    -0.339536528344E+02   -0.86422E-06   -0.26508E-06    48   0.150E-02    0.162E-03
DAV:   4    -0.339536529536E+02   -0.11924E-06   -0.54118E-07    48   0.633E-03    0.914E-04
DAV:   5    -0.339536530110E+02   -0.57396E-07   -0.14503E-07    48   0.312E-03    0.191E-04
DAV:   6    -0.339536530426E+02   -0.31586E-07   -0.69915E-08    48   0.148E-03
  61 F= -.33953653E+02 E0= -.33953653E+02  d E =-.599557E-06
       N       E                     dE             d eps       ncg     rms          rms(c)
DAV:   1    -0.339536548177E+02   -0.18067E-05   -0.76699E-05    48   0.815E-02    0.346E-03
DAV:   2    -0.339536548919E+02   -0.74273E-07   -0.32778E-06    48   0.184E-02    0.205E-03
DAV:   3    -0.339536548868E+02    0.51625E-08   -0.42408E-07    48   0.695E-03    0.744E-04
DAV:   4    -0.339536549340E+02   -0.47254E-07   -0.14860E-07    48   0.310E-03    0.391E-04
DAV:   5    -0.339536549723E+02   -0.38332E-07   -0.51538E-08    48   0.148E-03    0.111E-04
DAV:   6    -0.339536549955E+02   -0.23192E-07   -0.37974E-08    48   0.591E-04
  62 F= -.33953655E+02 E0= -.33953655E+02  d E =-.195296E-05
       N       E                     dE             d eps       ncg     rms          rms(c)
DAV:   1    -0.339536534934E+02    0.14789E-05   -0.80389E-05    48   0.840E-02    0.341E-03
DAV:   2    -0.339536535636E+02   -0.70108E-07   -0.35004E-06    48   0.191E-02    0.207E-03
DAV:   3    -0.339536535433E+02    0.20294E-07   -0.43458E-07    48   0.702E-03    0.760E-04
DAV:   4    -0.339536535760E+02   -0.32714E-07   -0.15000E-07    48   0.310E-03    0.405E-04
DAV:   5    -0.339536535994E+02   -0.23395E-07   -0.52468E-08    48   0.153E-03    0.110E-04
DAV:   6    -0.339536536093E+02   -0.99579E-08   -0.37463E-08    48   0.631E-04
  63 F= -.33953654E+02 E0= -.33953654E+02  d E =0.138622E-05
       N       E                     dE             d eps       ncg     rms          rms(c)
DAV:   1    -0.339536541869E+02   -0.58756E-06   -0.36058E-06    48   0.177E-02    0.775E-04
DAV:   2    -0.339536542030E+02   -0.16067E-07   -0.18092E-07    48   0.394E-03    0.445E-04
DAV:   3    -0.339536542174E+02   -0.14373E-07   -0.49967E-08    48   0.145E-03    0.172E-04
DAV:   4    -0.339536542248E+02   -0.74791E-08   -0.37746E-08    48   0.687E-04    0.826E-05
DAV:   5    -0.339536542286E+02   -0.37169E-08   -0.33252E-08    48   0.311E-04    0.231E-05
DAV:   6    -0.339536542316E+02   -0.30699E-08   -0.32712E-08    48   0.124E-04
  64 F= -.33953654E+02 E0= -.33953654E+02  d E =-.622304E-06
       N       E                     dE             d eps       ncg     rms          rms(c)
DAV:   1    -0.339536548571E+02   -0.62850E-06   -0.11181E-05    48   0.312E-02    0.136E-03
DAV:   2    -0.339536548770E+02   -0.19963E-07   -0.50864E-07    48   0.703E-03    0.776E-04
DAV:   3    -0.339536548840E+02   -0.69471E-08   -0.88579E-08    48   0.256E-03    0.305E-04
DAV:   4    -0.339536548881E+02   -0.41309E-08   -0.50407E-08    48   0.123E-03    0.141E-04
DAV:   5    -0.339536548868E+02    0.12997E-08   -0.35817E-08    48   0.560E-04    0.422E-05
DAV:   6    -0.339536548867E+02    0.57753E-10   -0.33892E-08    48   0.227E-04
  65 F= -.33953655E+02 E0= -.33953655E+02  d E =-.655112E-06
       N       E                     dE             d eps       ncg     rms          rms(c)
DAV:   1    -0.339536550074E+02   -0.12065E-06   -0.15980E-05    48   0.374E-02    0.161E-03
DAV:   2    -0.339536550322E+02   -0.24717E-07   -0.72355E-07    48   0.848E-03    0.922E-04
DAV:   3    -0.339536550371E+02   -0.49262E-08   -0.11392E-07    48   0.304E-03    0.372E-04
DAV:   4    -0.339536550420E+02   -0.49600E-08   -0.59027E-08    48   0.148E-03    0.169E-04
DAV:   5    -0.339536550409E+02    0.11963E-08   -0.37820E-08    48   0.672E-04    0.525E-05
DAV:   6    -0.339536550413E+02   -0.39995E-09   -0.34762E-08    48   0.277E-04
  66 F= -.33953655E+02 E0= -.33953655E+02  d E =-.154510E-06
       N       E                     dE             d eps       ncg     rms          rms(c)
DAV:   1    -0.339536550455E+02   -0.46416E-08   -0.43239E-08    48   0.942E-04    0.348E-05
DAV:   2    -0.339536550461E+02   -0.59163E-09   -0.34186E-08    48   0.230E-04    0.238E-05
DAV:   3    -0.339536550473E+02   -0.12326E-08   -0.33684E-08    48   0.910E-05    0.835E-06
DAV:   4    -0.339536550482E+02   -0.90245E-09   -0.33546E-08    48   0.424E-05    0.511E-06
DAV:   5    -0.339536550494E+02   -0.11769E-08   -0.33445E-08    48   0.236E-05    0.168E-06
DAV:   6    -0.339536550499E+02   -0.48408E-09   -0.33342E-08    48   0.145E-05
  67 F= -.33953655E+02 E0= -.33953655E+02  d E =-.862929E-08
       N       E                     dE             d eps       ncg     rms          rms(c)
DAV:   1    -0.339536550566E+02   -0.71827E-08   -0.68923E-08    48   0.182E-03    0.599E-05
DAV:   2    -0.339536550564E+02    0.21714E-09   -0.34651E-08    48   0.412E-04    0.390E-05
DAV:   3    -0.339536550567E+02   -0.38324E-09   -0.33220E-08    48   0.134E-04    0.155E-05
DAV:   4    -0.339536550571E+02   -0.33810E-09   -0.33049E-08    48   0.608E-05    0.804E-06
DAV:   5    -0.339536550573E+02   -0.23647E-09   -0.33003E-08    48   0.314E-05    0.256E-06
DAV:   6    -0.339536550574E+02   -0.75261E-10   -0.32917E-08    48   0.151E-05
  68 F= -.33953655E+02 E0= -.33953655E+02  d E =-.751459E-08
       N       E                     dE             d eps       ncg     rms          rms(c)
DAV:   1    -0.339536550649E+02   -0.75855E-08   -0.10907E-07    48   0.266E-03    0.866E-05
DAV:   2    -0.339536550643E+02    0.62596E-09   -0.36182E-08    48   0.601E-04    0.565E-05
DAV:   3    -0.339536550644E+02   -0.75943E-10   -0.33208E-08    48   0.195E-04    0.227E-05
DAV:   4    -0.339536550648E+02   -0.42519E-09   -0.32916E-08    48   0.887E-05    0.116E-05
DAV:   5    -0.339536550648E+02   -0.57071E-10   -0.32876E-08    48   0.457E-05    0.375E-06
DAV:   6    -0.339536550650E+02   -0.11914E-09   -0.32838E-08    48   0.221E-05
  69 F= -.33953655E+02 E0= -.33953655E+02  d E =-.756165E-08
       N       E                     dE             d eps       ncg     rms          rms(c)
DAV:   1    -0.339536550720E+02   -0.71798E-08   -0.15862E-07    48   0.342E-03    0.110E-04
DAV:   2    -0.339536550712E+02    0.79785E-09   -0.38256E-08    48   0.774E-04    0.715E-05
DAV:   3    -0.339536550714E+02   -0.19349E-09   -0.33390E-08    48   0.248E-04    0.293E-05
DAV:   4    -0.339536550715E+02   -0.86175E-10   -0.32977E-08    48   0.114E-04    0.145E-05
DAV:   5    -0.339536550719E+02   -0.41723E-09   -0.32850E-08    48   0.583E-05    0.493E-06
DAV:   6    -0.339536550719E+02    0.47294E-10   -0.32829E-08    48   0.284E-05
  70 F= -.33953655E+02 E0= -.33953655E+02  d E =-.691239E-08
       N       E                     dE             d eps       ncg     rms          rms(c)
DAV:   1    -0.339536550771E+02   -0.52278E-08   -0.21210E-07    48   0.409E-03    0.129E-04
DAV:   2    -0.339536550764E+02    0.69826E-09   -0.40531E-08    48   0.926E-04    0.836E-05
DAV:   3    -0.339536550766E+02   -0.18281E-09   -0.33609E-08    48   0.291E-04    0.351E-05
DAV:   4    -0.339536550771E+02   -0.43019E-09   -0.33041E-08    48   0.135E-04    0.167E-05
DAV:   5    -0.339536550772E+02   -0.16257E-09   -0.32870E-08    48   0.687E-05    0.604E-06
DAV:   6    -0.339536550771E+02    0.94133E-10   -0.32827E-08    48   0.339E-05
  71 F= -.33953655E+02 E0= -.33953655E+02  d E =-.525824E-08
       N       E                     dE             d eps       ncg     rms          rms(c)
DAV:   1    -0.339536550807E+02   -0.34383E-08   -0.26538E-07    48   0.466E-03    0.144E-04
DAV:   2    -0.339536550799E+02    0.74897E-09   -0.42767E-08    48   0.106E-03    0.926E-05
DAV:   3    -0.339536550803E+02   -0.36744E-09   -0.33878E-08    48   0.326E-04    0.402E-05
DAV:   4    -0.339536550805E+02   -0.17872E-09   -0.33146E-08    48   0.153E-04    0.179E-05
DAV:   5    -0.339536550809E+02   -0.40473E-09   -0.32916E-08    48   0.765E-05    0.708E-06
DAV:   6    -0.339536550809E+02   -0.22737E-12   -0.32851E-08    48   0.385E-05
  72 F= -.33953655E+02 E0= -.33953655E+02  d E =-.373461E-08
       N       E                     dE             d eps       ncg     rms          rms(c)
DAV:   1    -0.339536550822E+02   -0.13778E-08   -0.38430E-07    48   0.574E-03    0.174E-04
DAV:   2    -0.339536550817E+02    0.52455E-09   -0.47746E-08    48   0.130E-03    0.110E-04
DAV:   3    -0.339536550824E+02   -0.71100E-09   -0.34439E-08    48   0.394E-04    0.490E-05
DAV:   4    -0.339536550830E+02   -0.55161E-09   -0.33298E-08    48   0.186E-04    0.199E-05
DAV:   5    -0.339536550832E+02   -0.22646E-09   -0.32999E-08    48   0.915E-05    0.896E-06
DAV:   6    -0.339536550832E+02    0.29559E-11   -0.32909E-08    48   0.477E-05
  73 F= -.33953655E+02 E0= -.33953655E+02  d E =-.233911E-08
       N       E                     dE             d eps       ncg     rms          rms(c)
DAV:   1    -0.339536550838E+02   -0.56821E-09   -0.55437E-07    48   0.699E-03    0.211E-04
DAV:   2    -0.339536550836E+02    0.14597E-09   -0.54733E-08    48   0.159E-03    0.129E-04
DAV:   3    -0.339536550849E+02   -0.12637E-08   -0.35259E-08    48   0.475E-04    0.579E-05
DAV:   4    -0.339536550855E+02   -0.61095E-09   -0.33551E-08    48   0.223E-04    0.209E-05
DAV:   5    -0.339536550858E+02   -0.26944E-09   -0.33083E-08    48   0.109E-04    0.110E-05
DAV:   6    -0.339536550857E+02    0.35243E-10   -0.32991E-08    48   0.593E-05
  74 F= -.33953655E+02 E0= -.33953655E+02  d E =-.253408E-08
       N       E                     dE             d eps       ncg     rms          rms(c)
DAV:   1    -0.339536550882E+02   -0.24015E-08   -0.81020E-07    48   0.854E-03    0.259E-04
DAV:   2    -0.339536550889E+02   -0.75988E-09   -0.65282E-08    48   0.194E-03    0.152E-04
DAV:   3    -0.339536550908E+02   -0.19111E-08   -0.36556E-08    48   0.578E-04    0.676E-05
DAV:   4    -0.339536550917E+02   -0.86811E-09   -0.33915E-08    48   0.266E-04    0.212E-05
DAV:   5    -0.339536550916E+02    0.87994E-10   -0.33250E-08    48   0.131E-04    0.126E-05
DAV:   6    -0.339536550919E+02   -0.23351E-09   -0.33091E-08    48   0.730E-05
  75 F= -.33953655E+02 E0= -.33953655E+02  d E =-.612135E-08
       N       E                     dE             d eps       ncg     rms          rms(c)
DAV:   1    -0.339536550997E+02   -0.80825E-08   -0.12159E-06    48   0.105E-02    0.322E-04
DAV:   2    -0.339536551015E+02   -0.18229E-08   -0.82193E-08    48   0.240E-03    0.183E-04
DAV:   3    -0.339536551046E+02   -0.30886E-08   -0.38750E-08    48   0.717E-04    0.816E-05
DAV:   4    -0.339536551059E+02   -0.13149E-08   -0.34443E-08    48   0.323E-04    0.238E-05
DAV:   5    -0.339536551059E+02    0.15916E-11   -0.33485E-08    48   0.159E-04    0.145E-05
DAV:   6    -0.339536551059E+02    0.75261E-10   -0.33213E-08    48   0.895E-05
  76 F= -.33953655E+02 E0= -.33953655E+02  d E =-.139985E-07
       N       E                     dE             d eps       ncg     rms          rms(c)
DAV:   1    -0.339536551214E+02   -0.15455E-07   -0.18684E-06    48   0.131E-02    0.404E-04
DAV:   2    -0.339536551249E+02   -0.35616E-08   -0.10986E-07    48   0.299E-03    0.228E-04
DAV:   3    -0.339536551296E+02   -0.46441E-08   -0.42191E-08    48   0.901E-04    0.103E-04
DAV:   4    -0.339536551313E+02   -0.17208E-08   -0.35323E-08    48   0.401E-04    0.314E-05
DAV:   5    -0.339536551310E+02    0.26955E-09   -0.33834E-08    48   0.197E-04    0.183E-05
DAV:   6    -0.339536551310E+02    0.88676E-10   -0.33379E-08    48   0.111E-04
  77 F= -.33953655E+02 E0= -.33953655E+02  d E =-.250982E-07
       N       E                     dE             d eps       ncg     rms          rms(c)
DAV:   1    -0.339536551539E+02   -0.22836E-07   -0.28809E-06    48   0.163E-02    0.505E-04
DAV:   2    -0.339536551595E+02   -0.55818E-08   -0.15302E-07    48   0.373E-03    0.284E-04
DAV:   3    -0.339536551662E+02   -0.67560E-08   -0.47505E-08    48   0.113E-03    0.131E-04
DAV:   4    -0.339536551689E+02   -0.26789E-08   -0.36655E-08    48   0.501E-04    0.420E-05
DAV:   5    -0.339536551686E+02    0.32992E-09   -0.34328E-08    48   0.245E-04    0.237E-05
DAV:   6    -0.339536551684E+02    0.17417E-09   -0.33647E-08    48   0.138E-04
  78 F= -.33953655E+02 E0= -.33953655E+02  d E =-.374371E-07
       N       E                     dE             d eps       ncg     rms          rms(c)
DAV:   1    -0.339536551974E+02   -0.28869E-07   -0.43518E-06    48   0.201E-02    0.620E-04
DAV:   2    -0.339536552053E+02   -0.79144E-08   -0.21517E-07    48   0.459E-03    0.350E-04
DAV:   3    -0.339536552152E+02   -0.98903E-08   -0.55043E-08    48   0.139E-03    0.161E-04
DAV:   4    -0.339536552190E+02   -0.37689E-08   -0.38575E-08    48   0.617E-04    0.517E-05
DAV:   5    -0.339536552186E+02    0.43224E-09   -0.35022E-08    48   0.302E-04    0.291E-05
DAV:   6    -0.339536552185E+02    0.44793E-10   -0.33975E-08    48   0.170E-04
  79 F= -.33953655E+02 E0= -.33953655E+02  d E =-.501400E-07
       N       E                     dE             d eps       ncg     rms          rms(c)
DAV:   1    -0.339536552588E+02   -0.40226E-07   -0.63934E-06    48   0.244E-02    0.746E-04
DAV:   2    -0.339536552693E+02   -0.10468E-07   -0.30006E-07    48   0.557E-03    0.422E-04
DAV:   3    -0.339536552832E+02   -0.13965E-07   -0.64999E-08    48   0.167E-03    0.188E-04
DAV:   4    -0.339536552885E+02   -0.52410E-08   -0.41111E-08    48   0.744E-04    0.580E-05
DAV:   5    -0.339536552883E+02    0.21805E-09   -0.35931E-08    48   0.366E-04    0.338E-05
DAV:   6    -0.339536552878E+02    0.42519E-09   -0.34342E-08    48   0.206E-04
  80 F= -.33953655E+02 E0= -.33953655E+02  d E =-.693013E-07
       N       E                     dE             d eps       ncg     rms          rms(c)
DAV:   1    -0.339536553532E+02   -0.64918E-07   -0.92994E-06    48   0.294E-02    0.891E-04
DAV:   2    -0.339536553672E+02   -0.14068E-07   -0.42031E-07    48   0.672E-03    0.508E-04
DAV:   3    -0.339536553863E+02   -0.19084E-07   -0.78528E-08    48   0.200E-03    0.219E-04
DAV:   4    -0.339536553932E+02   -0.69147E-08   -0.44508E-08    48   0.896E-04    0.649E-05
DAV:   5    -0.339536553934E+02   -0.13938E-09   -0.37065E-08    48   0.442E-04    0.393E-05
DAV:   6    -0.339536553934E+02   -0.60254E-10   -0.34808E-08    48   0.249E-04
  81 F= -.33953655E+02 E0= -.33953655E+02  d E =-.105610E-06
       N       E                     dE             d eps       ncg     rms          rms(c)
DAV:   1    -0.339536554935E+02   -0.10007E-06   -0.13585E-05    48   0.355E-02    0.107E-03
DAV:   2    -0.339536555131E+02   -0.19653E-07   -0.59915E-07    48   0.811E-03    0.617E-04
DAV:   3    -0.339536555397E+02   -0.26583E-07   -0.97974E-08    48   0.240E-03    0.260E-04
DAV:   4    -0.339536555487E+02   -0.89804E-08   -0.49505E-08    48   0.109E-03    0.797E-05
DAV:   5    -0.339536555492E+02   -0.53433E-09   -0.38677E-08    48   0.536E-04    0.479E-05
DAV:   6    -0.339536555495E+02   -0.29240E-09   -0.35415E-08    48   0.302E-04
  82 F= -.33953656E+02 E0= -.33953656E+02  d E =-.156057E-06
       N       E                     dE             d eps       ncg     rms          rms(c)
DAV:   1    -0.339536556940E+02   -0.14483E-06   -0.19552E-05    48   0.426E-02    0.127E-03
DAV:   2    -0.339536557234E+02   -0.29395E-07   -0.84845E-07    48   0.973E-03    0.739E-04
DAV:   3    -0.339536557599E+02   -0.36458E-07   -0.12571E-07    48   0.288E-03    0.305E-04
DAV:   4    -0.339536557717E+02   -0.11791E-07   -0.56483E-08    48   0.130E-03    0.956E-05
DAV:   5    -0.339536557726E+02   -0.89722E-09   -0.40915E-08    48   0.641E-04    0.566E-05
DAV:   6    -0.339536557733E+02   -0.71009E-09   -0.36252E-08    48   0.361E-04
  83 F= -.33953656E+02 E0= -.33953656E+02  d E =-.223793E-06
       N       E                     dE             d eps       ncg     rms          rms(c)
DAV:   1    -0.339536559830E+02   -0.21039E-06   -0.26341E-05    48   0.493E-02    0.147E-03
DAV:   2    -0.339536560256E+02   -0.42582E-07   -0.11306E-06    48   0.113E-02    0.848E-04
DAV:   3    -0.339536560743E+02   -0.48696E-07   -0.15921E-07    48   0.334E-03    0.339E-04
DAV:   4    -0.339536560889E+02   -0.14680E-07   -0.64490E-08    48   0.150E-03    0.105E-04
DAV:   5    -0.339536560897E+02   -0.80149E-09   -0.43574E-08    48   0.739E-04    0.624E-05
DAV:   6    -0.339536560904E+02   -0.61937E-09   -0.37235E-08    48   0.417E-04
  84 F= -.33953656E+02 E0= -.33953656E+02  d E =-.317062E-06
       N       E                     dE             d eps       ncg     rms          rms(c)
DAV:   1    -0.339536563835E+02   -0.29373E-06   -0.34967E-05    48   0.566E-02    0.170E-03
DAV:   2    -0.339536564454E+02   -0.61956E-07   -0.14917E-06    48   0.130E-02    0.967E-04
DAV:   3    -0.339536565086E+02   -0.63158E-07   -0.20368E-07    48   0.387E-03    0.381E-04
DAV:   4    -0.339536565261E+02   -0.17498E-07   -0.74953E-08    48   0.171E-03    0.120E-04
DAV:   5    -0.339536565271E+02   -0.10011E-08   -0.46885E-08    48   0.846E-04    0.701E-05
DAV:   6    -0.339536565280E+02   -0.88176E-09   -0.38492E-08    48   0.475E-04
  85 F= -.33953657E+02 E0= -.33953657E+02  d E =-.437604E-06
       N       E                     dE             d eps       ncg     rms          rms(c)
DAV:   1    -0.339536569006E+02   -0.37356E-06   -0.46374E-05    48   0.649E-02    0.194E-03
DAV:   2    -0.339536569888E+02   -0.88154E-07   -0.19701E-06    48   0.149E-02    0.111E-03
DAV:   3    -0.339536570690E+02   -0.80217E-07   -0.25960E-07    48   0.445E-03    0.419E-04
DAV:   4    -0.339536570887E+02   -0.19694E-07   -0.88455E-08    48   0.196E-03    0.137E-04
DAV:   5    -0.339536570903E+02   -0.16395E-08   -0.50973E-08    48   0.969E-04    0.779E-05
DAV:   6    -0.339536570916E+02   -0.12444E-08   -0.39841E-08    48   0.542E-04
  86 F= -.33953657E+02 E0= -.33953657E+02  d E =-.563629E-06
       N       E                     dE             d eps       ncg     rms          rms(c)
DAV:   1    -0.339536575480E+02   -0.45766E-06   -0.61233E-05    48   0.744E-02    0.220E-03
DAV:   2    -0.339536576732E+02   -0.12516E-06   -0.26072E-06    48   0.170E-02    0.126E-03
DAV:   3    -0.339536577713E+02   -0.98182E-07   -0.32790E-07    48   0.508E-03    0.447E-04
DAV:   4    -0.339536577924E+02   -0.21016E-07   -0.10527E-07    48   0.224E-03    0.152E-04
DAV:   5    -0.339536577953E+02   -0.29665E-08   -0.55792E-08    48   0.111E-03    0.840E-05
DAV:   6    -0.339536577978E+02   -0.24620E-08   -0.41221E-08    48   0.620E-04
  87 F= -.33953658E+02 E0= -.33953658E+02  d E =-.706200E-06
       N       E                     dE             d eps       ncg     rms          rms(c)
DAV:   1    -0.339536583214E+02   -0.52612E-06   -0.80802E-05    64   0.851E-02    0.251E-03
DAV:   2    -0.339536585028E+02   -0.18133E-06   -0.34607E-06    48   0.195E-02    0.143E-03
DAV:   3    -0.339536586210E+02   -0.11823E-06   -0.42735E-07    48   0.584E-03    0.504E-04
DAV:   4    -0.339536586451E+02   -0.24134E-07   -0.12838E-07    48   0.258E-03    0.177E-04
DAV:   5    -0.339536586495E+02   -0.43590E-08   -0.61969E-08    48   0.127E-03    0.941E-05
DAV:   6    -0.339536586528E+02   -0.33062E-08   -0.42844E-08    48   0.705E-04
  88 F= -.33953659E+02 E0= -.33953659E+02  d E =-.855012E-06
       N       E                     dE             d eps       ncg     rms          rms(c)
DAV:   1    -0.339536592893E+02   -0.63983E-06   -0.11131E-04    64   0.988E-02    0.295E-03
DAV:   2    -0.339536595547E+02   -0.26538E-06   -0.47437E-06    48   0.226E-02    0.167E-03
DAV:   3    -0.339536597081E+02   -0.15341E-06   -0.58515E-07    48   0.685E-03    0.617E-04
DAV:   4    -0.339536597393E+02   -0.31150E-07   -0.16434E-07    48   0.301E-03    0.224E-04
DAV:   5    -0.339536597440E+02   -0.47917E-08   -0.71619E-08    48   0.148E-03    0.114E-04
DAV:   6    -0.339536597479E+02   -0.38847E-08   -0.45535E-08    48   0.810E-04
  89 F= -.33953660E+02 E0= -.33953660E+02  d E =-.109513E-05
       N       E                     dE             d eps       ncg     rms          rms(c)
DAV:   1    -0.339536609981E+02   -0.12540E-05   -0.16543E-04    96   0.118E-01    0.350E-03
DAV:   2    -0.339536608628E+02    0.13526E-06   -0.14453E-06    48   0.106E-02    0.207E-03
DAV:   3    -0.339536609921E+02   -0.12930E-06   -0.27107E-07    48   0.452E-03    0.393E-04
DAV:   4    -0.339536610047E+02   -0.12614E-07   -0.89142E-08    48   0.195E-03    0.197E-04
DAV:   5    -0.339536610128E+02   -0.81297E-08   -0.48696E-08    48   0.980E-04    0.678E-05
DAV:   6    -0.339536610205E+02   -0.76868E-08   -0.38300E-08    48   0.510E-04
  90 F= -.33953661E+02 E0= -.33953661E+02  d E =-.127259E-05
       N       E                     dE             d eps       ncg     rms          rms(c)
DAV:   1    -0.339536625268E+02   -0.15139E-05   -0.24879E-04    96   0.144E-01    0.430E-03
DAV:   2    -0.339536623453E+02    0.18147E-06   -0.21606E-06    48   0.130E-02    0.253E-03
DAV:   3    -0.339536625163E+02   -0.17101E-06   -0.37585E-07    48   0.546E-03    0.523E-04
DAV:   4    -0.339536625378E+02   -0.21436E-07   -0.11237E-07    48   0.235E-03    0.248E-04
DAV:   5    -0.339536625497E+02   -0.11955E-07   -0.53774E-08    48   0.117E-03    0.936E-05
DAV:   6    -0.339536625610E+02   -0.11247E-07   -0.39262E-08    48   0.601E-04
  91 F= -.33953663E+02 E0= -.33953663E+02  d E =-.154044E-05
       N       E                     dE             d eps       ncg     rms          rms(c)
DAV:   1    -0.339536642758E+02   -0.17261E-05   -0.37244E-04    96   0.175E-01    0.527E-03
DAV:   2    -0.339536640127E+02    0.26309E-06   -0.31209E-06    48   0.157E-02    0.312E-03
DAV:   3    -0.339536642691E+02   -0.25638E-06   -0.55061E-07    48   0.678E-03    0.647E-04
DAV:   4    -0.339536642957E+02   -0.26587E-07   -0.15405E-07    48   0.295E-03    0.316E-04
DAV:   5    -0.339536643101E+02   -0.14368E-07   -0.64160E-08    48   0.147E-03    0.122E-04
DAV:   6    -0.339536643246E+02   -0.14569E-07   -0.41906E-08    48   0.744E-04
  92 F= -.33953664E+02 E0= -.33953664E+02  d E =-.176369E-05
       N       E                     dE             d eps       ncg     rms          rms(c)
DAV:   1    -0.339536660999E+02   -0.17899E-05   -0.57567E-04    96   0.220E-01    0.662E-03
DAV:   2    -0.339536657274E+02    0.37253E-06   -0.52670E-06    48   0.204E-02    0.386E-03
DAV:   3    -0.339536660891E+02   -0.36169E-06   -0.83516E-07    48   0.842E-03    0.956E-04
DAV:   4    -0.339536661511E+02   -0.62018E-07   -0.21510E-07    48   0.365E-03    0.413E-04
DAV:   5    -0.339536661762E+02   -0.25057E-07   -0.77469E-08    48   0.180E-03    0.156E-04
DAV:   6    -0.339536661989E+02   -0.22730E-07   -0.45358E-08    48   0.921E-04
  93 F= -.33953666E+02 E0= -.33953666E+02  d E =-.187426E-05
       N       E                     dE             d eps       ncg     rms          rms(c)
DAV:   1    -0.339536677650E+02   -0.15888E-05   -0.79988E-04    96   0.254E-01    0.804E-03
DAV:   2    -0.339536671074E+02    0.65759E-06   -0.67528E-06    48   0.237E-02    0.485E-03
DAV:   3    -0.339536676409E+02   -0.53355E-06   -0.16995E-06    48   0.125E-02    0.114E-03
DAV:   4    -0.339536676729E+02   -0.31910E-07   -0.37591E-07    48   0.548E-03    0.634E-04
DAV:   5    -0.339536676977E+02   -0.24860E-07   -0.10311E-07    48   0.252E-03    0.205E-04
DAV:   6    -0.339536677211E+02   -0.23392E-07   -0.52564E-08    48   0.124E-03
  94 F= -.33953668E+02 E0= -.33953668E+02  d E =-.152219E-05
       N       E                     dE             d eps       ncg     rms          rms(c)
DAV:   1    -0.339536685474E+02   -0.84970E-06   -0.35374E-05    48   0.556E-02    0.238E-03
DAV:   2    -0.339536685821E+02   -0.34711E-07   -0.15319E-06    48   0.125E-02    0.138E-03
DAV:   3    -0.339536685849E+02   -0.28219E-08   -0.20692E-07    48   0.461E-03    0.519E-04
DAV:   4    -0.339536686172E+02   -0.32272E-07   -0.84966E-08    48   0.215E-03    0.256E-04
DAV:   5    -0.339536686479E+02   -0.30690E-07   -0.39535E-08    48   0.101E-03    0.771E-05
DAV:   6    -0.339536686687E+02   -0.20838E-07   -0.33226E-08    48   0.407E-04
  95 F= -.33953669E+02 E0= -.33953669E+02  d E =-.947637E-06
       N       E                     dE             d eps       ncg     rms          rms(c)
DAV:   1    -0.339536681410E+02    0.50690E-06   -0.33308E-05    48   0.544E-02    0.224E-03
DAV:   2    -0.339536681730E+02   -0.32044E-07   -0.15077E-06    48   0.124E-02    0.130E-03
DAV:   3    -0.339536681635E+02    0.95868E-08   -0.19147E-07    48   0.434E-03    0.528E-04
DAV:   4    -0.339536681831E+02   -0.19669E-07   -0.83681E-08    48   0.210E-03    0.240E-04
DAV:   5    -0.339536681997E+02   -0.16549E-07   -0.40359E-08    48   0.997E-04    0.802E-05
DAV:   6    -0.339536682093E+02   -0.96120E-08   -0.33465E-08    48   0.401E-04
  96 F= -.33953668E+02 E0= -.33953668E+02  d E =0.459454E-06
       N       E                     dE             d eps       ncg     rms          rms(c)
DAV:   1    -0.339536684912E+02   -0.29153E-06   -0.17102E-06    48   0.120E-02    0.529E-04
DAV:   2    -0.339536685015E+02   -0.10315E-07   -0.10015E-07    48   0.269E-03    0.310E-04
DAV:   3    -0.339536685119E+02   -0.10386E-07   -0.39846E-08    48   0.103E-03    0.113E-04
DAV:   4    -0.339536685162E+02   -0.43166E-08   -0.33895E-08    48   0.458E-04    0.588E-05
DAV:   5    -0.339536685193E+02   -0.30661E-08   -0.31993E-08    48   0.208E-04    0.158E-05
DAV:   6    -0.339536685212E+02   -0.19552E-08   -0.31909E-08    48   0.834E-05
  97 F= -.33953669E+02 E0= -.33953669E+02  d E =-.311954E-06
       N       E                     dE             d eps       ncg     rms          rms(c)
DAV:   1    -0.339536688304E+02   -0.31113E-06   -0.51912E-06    48   0.210E-02    0.917E-04
DAV:   2    -0.339536688418E+02   -0.11345E-07   -0.24931E-07    48   0.475E-03    0.536E-04
DAV:   3    -0.339536688471E+02   -0.53043E-08   -0.58836E-08    48   0.180E-03    0.199E-04
DAV:   4    -0.339536688484E+02   -0.13313E-08   -0.40250E-08    48   0.817E-04    0.100E-04
DAV:   5    -0.339536688475E+02    0.85902E-09   -0.33739E-08    48   0.374E-04    0.285E-05
DAV:   6    -0.339536688476E+02   -0.29786E-10   -0.32937E-08    48   0.151E-04
  98 F= -.33953669E+02 E0= -.33953669E+02  d E =-.326324E-06
       N       E                     dE             d eps       ncg     rms          rms(c)
DAV:   1    -0.339536689313E+02   -0.83759E-07   -0.71672E-06    48   0.247E-02    0.107E-03
DAV:   2    -0.339536689444E+02   -0.13146E-07   -0.33680E-07    48   0.562E-03    0.631E-04
DAV:   3    -0.339536689483E+02   -0.38506E-08   -0.70200E-08    48   0.212E-03    0.236E-04
DAV:   4    -0.339536689494E+02   -0.10997E-08   -0.44078E-08    48   0.963E-04    0.119E-04
DAV:   5    -0.339536689481E+02    0.12452E-08   -0.34876E-08    48   0.440E-04    0.337E-05
DAV:   6    -0.339536689484E+02   -0.22419E-09   -0.33640E-08    48   0.179E-04
  99 F= -.33953669E+02 E0= -.33953669E+02  d E =-.100805E-06
       N       E                     dE             d eps       ncg     rms          rms(c)
DAV:   1    -0.339536689545E+02   -0.63369E-08   -0.38322E-08    48   0.687E-04    0.269E-05
DAV:   2    -0.339536689546E+02   -0.96406E-10   -0.33469E-08    48   0.163E-04    0.173E-05
DAV:   3    -0.339536689551E+02   -0.48681E-09   -0.33217E-08    48   0.615E-05    0.694E-06
DAV:   4    -0.339536689555E+02   -0.45225E-09   -0.33151E-08    48   0.280E-05    0.391E-06
DAV:   5    -0.339536689561E+02   -0.54206E-09   -0.33049E-08    48   0.155E-05    0.113E-06
DAV:   6    -0.339536689562E+02   -0.10982E-09   -0.33038E-08    48   0.882E-06
 100 F= -.33953669E+02 E0= -.33953669E+02  d E =-.780005E-08
       N       E                     dE             d eps       ncg     rms          rms(c)
DAV:   1    -0.339536689669E+02   -0.10866E-07   -0.52071E-08    48   0.132E-03    0.464E-05
DAV:   2    -0.339536689666E+02    0.28490E-09   -0.33820E-08    48   0.305E-04    0.285E-05
DAV:   3    -0.339536689665E+02    0.16030E-09   -0.33011E-08    48   0.995E-05    0.132E-05
DAV:   4    -0.339536689667E+02   -0.20373E-09   -0.32872E-08    48   0.485E-05    0.599E-06
DAV:   5    -0.339536689669E+02   -0.23579E-09   -0.32866E-08    48   0.236E-05    0.238E-06
DAV:   6    -0.339536689670E+02   -0.42974E-10   -0.32797E-08    48   0.993E-06
 101 F= -.33953669E+02 E0= -.33953669E+02  d E =-.107934E-07
       N       E                     dE             d eps       ncg     rms          rms(c)
DAV:   1    -0.339536689813E+02   -0.14397E-07   -0.72554E-08    48   0.191E-03    0.661E-05
DAV:   2    -0.339536689809E+02    0.39688E-09   -0.34679E-08    48   0.441E-04    0.406E-05
DAV:   3    -0.339536689806E+02    0.26921E-09   -0.32966E-08    48   0.143E-04    0.192E-05
DAV:   4    -0.339536689808E+02   -0.15211E-09   -0.32828E-08    48   0.701E-05    0.860E-06
DAV:   5    -0.339536689810E+02   -0.17121E-09   -0.32772E-08    48   0.341E-05    0.347E-06
DAV:   6    -0.339536689810E+02   -0.68894E-10   -0.32720E-08    48   0.144E-05
 102 F= -.33953669E+02 E0= -.33953669E+02  d E =-.140798E-07
       N       E                     dE             d eps       ncg     rms          rms(c)
DAV:   1    -0.339536689983E+02   -0.17332E-07   -0.96155E-08    48   0.242E-03    0.818E-05
DAV:   2    -0.339536689978E+02    0.46612E-09   -0.35746E-08    48   0.558E-04    0.504E-05
DAV:   3    -0.339536689976E+02    0.28103E-09   -0.33081E-08    48   0.180E-04    0.242E-05
DAV:   4    -0.339536689977E+02   -0.15712E-09   -0.32866E-08    48   0.878E-05    0.108E-05
DAV:   5    -0.339536689978E+02   -0.11073E-09   -0.32770E-08    48   0.426E-05    0.441E-06
DAV:   6    -0.339536689979E+02   -0.11551E-09   -0.32780E-08    48   0.184E-05
 103 F= -.33953669E+02 E0= -.33953669E+02  d E =-.168989E-07
       N       E                     dE             d eps       ncg     rms          rms(c)
DAV:   1    -0.339536690173E+02   -0.19456E-07   -0.11865E-07    48   0.282E-03    0.928E-05
DAV:   2    -0.339536690165E+02    0.80513E-09   -0.36836E-08    48   0.651E-04    0.572E-05
DAV:   3    -0.339536690162E+02    0.25716E-09   -0.33207E-08    48   0.208E-04    0.279E-05
DAV:   4    -0.339536690162E+02    0.60709E-10   -0.32898E-08    48   0.101E-04    0.123E-05
DAV:   5    -0.339536690164E+02   -0.26193E-09   -0.32784E-08    48   0.488E-05    0.512E-06
DAV:   6    -0.339536690166E+02   -0.17099E-09   -0.32773E-08    48   0.216E-05
 104 F= -.33953669E+02 E0= -.33953669E+02  d E =-.186506E-07
       N       E                     dE             d eps       ncg     rms          rms(c)
DAV:   1    -0.339536690375E+02   -0.21114E-07   -0.13661E-07    48   0.310E-03    0.990E-05
DAV:   2    -0.339536690369E+02    0.61550E-09   -0.37669E-08    48   0.718E-04    0.606E-05
DAV:   3    -0.339536690365E+02    0.43883E-09   -0.33278E-08    48   0.227E-04    0.297E-05
DAV:   4    -0.339536690366E+02   -0.16780E-09   -0.32890E-08    48   0.109E-04    0.128E-05
DAV:   5    -0.339536690370E+02   -0.32219E-09   -0.32803E-08    48   0.523E-05    0.549E-06
DAV:   6    -0.339536690369E+02    0.38199E-10   -0.32783E-08    48   0.242E-05
 105 F= -.33953669E+02 E0= -.33953669E+02  d E =-.203402E-07
       N       E                     dE             d eps       ncg     rms          rms(c)
DAV:   1    -0.339536690621E+02   -0.25170E-07   -0.17576E-07    48   0.363E-03    0.112E-04
DAV:   2    -0.339536690617E+02    0.41973E-09   -0.39513E-08    48   0.844E-04    0.674E-05
DAV:   3    -0.339536690613E+02    0.46703E-09   -0.33508E-08    48   0.264E-04    0.324E-05
DAV:   4    -0.339536690615E+02   -0.24443E-09   -0.32954E-08    48   0.124E-04    0.134E-05
DAV:   5    -0.339536690618E+02   -0.34356E-09   -0.32788E-08    48   0.590E-05    0.601E-06
DAV:   6    -0.339536690619E+02   -0.96406E-10   -0.32772E-08    48   0.289E-05
 106 F= -.33953669E+02 E0= -.33953669E+02  d E =-.250059E-07
       N       E                     dE             d eps       ncg     rms          rms(c)
DAV:   1    -0.339536690929E+02   -0.31073E-07   -0.22364E-07    48   0.417E-03    0.126E-04
DAV:   2    -0.339536690927E+02    0.19168E-09   -0.41679E-08    48   0.973E-04    0.730E-05
DAV:   3    -0.339536690925E+02    0.18849E-09   -0.33797E-08    48   0.301E-04    0.336E-05
DAV:   4    -0.339536690926E+02   -0.66393E-10   -0.33021E-08    48   0.138E-04    0.129E-05
DAV:   5    -0.339536690930E+02   -0.35425E-09   -0.32817E-08    48   0.656E-05    0.618E-06
DAV:   6    -0.339536690930E+02   -0.36380E-11   -0.32771E-08    48   0.343E-05
 107 F= -.33953669E+02 E0= -.33953669E+02  d E =-.310208E-07
       N       E                     dE             d eps       ncg     rms          rms(c)
DAV:   1    -0.339536691329E+02   -0.39897E-07   -0.29182E-07    48   0.482E-03    0.143E-04
DAV:   2    -0.339536691330E+02   -0.16166E-09   -0.44654E-08    48   0.112E-03    0.805E-05
DAV:   3    -0.339536691330E+02   -0.22055E-10   -0.34198E-08    48   0.346E-04    0.357E-05
DAV:   4    -0.339536691332E+02   -0.17280E-09   -0.33106E-08    48   0.156E-04    0.123E-05
DAV:   5    -0.339536691334E+02   -0.18167E-09   -0.32857E-08    48   0.748E-05    0.632E-06
DAV:   6    -0.339536691335E+02   -0.87539E-10   -0.32794E-08    48   0.403E-05
 108 F= -.33953669E+02 E0= -.33953669E+02  d E =-.405189E-07
       N       E                     dE             d eps       ncg     rms          rms(c)
DAV:   1    -0.339536691855E+02   -0.52083E-07   -0.40708E-07    48   0.573E-03    0.169E-04
DAV:   2    -0.339536691865E+02   -0.99840E-09   -0.49621E-08    48   0.133E-03    0.954E-05
DAV:   3    -0.339536691868E+02   -0.35061E-09   -0.34845E-08    48   0.412E-04    0.424E-05
DAV:   4    -0.339536691870E+02   -0.18053E-09   -0.33308E-08    48   0.185E-04    0.145E-05
DAV:   5    -0.339536691871E+02   -0.84128E-10   -0.32967E-08    48   0.899E-05    0.732E-06
DAV:   6    -0.339536691872E+02   -0.11846E-09   -0.32822E-08    48   0.482E-05
 109 F= -.33953669E+02 E0= -.33953669E+02  d E =-.537281E-07
       N       E                     dE             d eps       ncg     rms          rms(c)
DAV:   1    -0.339536692536E+02   -0.66485E-07   -0.61062E-07    48   0.707E-03    0.210E-04
DAV:   2    -0.339536692553E+02   -0.17321E-08   -0.58443E-08    48   0.163E-03    0.122E-04
DAV:   3    -0.339536692564E+02   -0.11012E-08   -0.35970E-08    48   0.513E-04    0.553E-05
DAV:   4    -0.339536692566E+02   -0.16053E-09   -0.33611E-08    48   0.231E-04    0.207E-05
DAV:   5    -0.339536692565E+02    0.48885E-10   -0.33070E-08    48   0.112E-04    0.967E-06
DAV:   6    -0.339536692565E+02    0.32969E-10   -0.32868E-08    48   0.601E-05
 110 F= -.33953669E+02 E0= -.33953669E+02  d E =-.692784E-07
       N       E                     dE             d eps       ncg     rms          rms(c)
DAV:   1    -0.339536693380E+02   -0.81458E-07   -0.94616E-07    48   0.886E-03    0.265E-04
DAV:   2    -0.339536693413E+02   -0.32992E-08   -0.72957E-08    48   0.203E-03    0.157E-04
DAV:   3    -0.339536693428E+02   -0.15359E-08   -0.37781E-08    48   0.647E-04    0.723E-05
DAV:   4    -0.339536693428E+02   -0.45475E-12   -0.34078E-08    48   0.291E-04    0.293E-05
DAV:   5    -0.339536693427E+02    0.14825E-09   -0.33218E-08    48   0.141E-04    0.127E-05
DAV:   6    -0.339536693426E+02    0.71850E-10   -0.32982E-08    48   0.751E-05
 111 F= -.33953669E+02 E0= -.33953669E+02  d E =-.861060E-07
       N       E                     dE             d eps       ncg     rms          rms(c)
DAV:   1    -0.339536694390E+02   -0.96309E-07   -0.14438E-06    48   0.110E-02    0.329E-04
DAV:   2    -0.339536694439E+02   -0.49574E-08   -0.94828E-08    48   0.252E-03    0.195E-04
DAV:   3    -0.339536694463E+02   -0.23319E-08   -0.40501E-08    48   0.803E-04    0.893E-05
DAV:   4    -0.339536694464E+02   -0.15098E-09   -0.34787E-08    48   0.361E-04    0.360E-05
DAV:   5    -0.339536694461E+02    0.28626E-09   -0.33422E-08    48   0.175E-04    0.157E-05
DAV:   6    -0.339536694461E+02    0.37289E-10   -0.33053E-08    48   0.933E-05
 112 F= -.33953669E+02 E0= -.33953669E+02  d E =-.103498E-06
       N       E                     dE             d eps       ncg     rms          rms(c)
DAV:   1    -0.339536695609E+02   -0.11479E-06   -0.21505E-06    48   0.135E-02    0.401E-04
DAV:   2    -0.339536695674E+02   -0.64445E-08   -0.12665E-07    48   0.312E-03    0.232E-04
DAV:   3    -0.339536695705E+02   -0.31589E-08   -0.44316E-08    48   0.978E-04    0.104E-04
DAV:   4    -0.339536695708E+02   -0.29536E-09   -0.35710E-08    48   0.440E-04    0.386E-05
DAV:   5    -0.339536695709E+02   -0.74806E-10   -0.33757E-08    48   0.214E-04    0.183E-05
DAV:   6    -0.339536695708E+02    0.83901E-10   -0.33174E-08    48   0.115E-04
 113 F= -.33953670E+02 E0= -.33953670E+02  d E =-.124714E-06
       N       E                     dE             d eps       ncg     rms          rms(c)
DAV:   1    -0.339536697106E+02   -0.13969E-06   -0.32408E-06    48   0.167E-02    0.492E-04
DAV:   2    -0.339536697196E+02   -0.89954E-08   -0.17644E-07    48   0.389E-03    0.278E-04
DAV:   3    -0.339536697234E+02   -0.38697E-08   -0.50101E-08    48   0.120E-03    0.121E-04
DAV:   4    -0.339536697245E+02   -0.10723E-08   -0.37064E-08    48   0.538E-04    0.414E-05
DAV:   5    -0.339536697248E+02   -0.33219E-09   -0.34125E-08    48   0.262E-04    0.211E-05
DAV:   6    -0.339536697249E+02   -0.10323E-09   -0.33280E-08    48   0.141E-04
 114 F= -.33953670E+02 E0= -.33953670E+02  d E =-.154146E-06
       N       E                     dE             d eps       ncg     rms          rms(c)
DAV:   1    -0.339536698924E+02   -0.16758E-06   -0.49973E-06    48   0.209E-02    0.614E-04
DAV:   2    -0.339536699057E+02   -0.13302E-07   -0.25668E-07    48   0.488E-03    0.346E-04
DAV:   3    -0.339536699110E+02   -0.53060E-08   -0.59205E-08    48   0.149E-03    0.147E-04
DAV:   4    -0.339536699126E+02   -0.15702E-08   -0.39132E-08    48   0.669E-04    0.501E-05
DAV:   5    -0.339536699132E+02   -0.61709E-09   -0.34713E-08    48   0.324E-04    0.259E-05
DAV:   6    -0.339536699137E+02   -0.43497E-09   -0.33439E-08    48   0.175E-04
 115 F= -.33953670E+02 E0= -.33953670E+02  d E =-.188708E-06
       N       E                     dE             d eps       ncg     rms          rms(c)
DAV:   1    -0.339536701063E+02   -0.19312E-06   -0.75094E-06    48   0.257E-02    0.753E-04
DAV:   2    -0.339536701266E+02   -0.20214E-07   -0.36960E-07    48   0.599E-03    0.425E-04
DAV:   3    -0.339536701343E+02   -0.77182E-08   -0.72332E-08    48   0.183E-03    0.179E-04
DAV:   4    -0.339536701366E+02   -0.23231E-08   -0.42173E-08    48   0.820E-04    0.611E-05
DAV:   5    -0.339536701375E+02   -0.92336E-09   -0.35559E-08    48   0.397E-04    0.316E-05
DAV:   6    -0.339536701379E+02   -0.34515E-09   -0.33685E-08    48   0.215E-04
 116 F= -.33953670E+02 E0= -.33953670E+02  d E =-.224205E-06
       N       E                     dE             d eps       ncg     rms          rms(c)
DAV:   1    -0.339536703629E+02   -0.22536E-06   -0.10770E-05    48   0.306E-02    0.895E-04
DAV:   2    -0.339536703935E+02   -0.30585E-07   -0.51158E-07    48   0.712E-03    0.507E-04
DAV:   3    -0.339536704059E+02   -0.12397E-07   -0.89395E-08    48   0.218E-03    0.212E-04
DAV:   4    -0.339536704090E+02   -0.31318E-08   -0.46232E-08    48   0.975E-04    0.726E-05
DAV:   5    -0.339536704098E+02   -0.76602E-09   -0.36775E-08    48   0.474E-04    0.376E-05
DAV:   6    -0.339536704100E+02   -0.26762E-09   -0.34094E-08    48   0.256E-04
 117 F= -.33953670E+02 E0= -.33953670E+02  d E =-.272166E-06
       N       E                     dE             d eps       ncg     rms          rms(c)
DAV:   1    -0.339536706721E+02   -0.26229E-06   -0.15638E-05    48   0.366E-02    0.107E-03
DAV:   2    -0.339536707177E+02   -0.45644E-07   -0.72130E-07    48   0.849E-03    0.616E-04
DAV:   3    -0.339536707366E+02   -0.18919E-07   -0.11470E-07    48   0.262E-03    0.261E-04
DAV:   4    -0.339536707408E+02   -0.42107E-08   -0.52399E-08    48   0.117E-03    0.949E-05
DAV:   5    -0.339536707411E+02   -0.27603E-09   -0.38544E-08    48   0.570E-04    0.473E-05
DAV:   6    -0.339536707414E+02   -0.26193E-09   -0.34686E-08    48   0.308E-04
 118 F= -.33953671E+02 E0= -.33953671E+02  d E =-.331339E-06
       N       E                     dE             d eps       ncg     rms          rms(c)
DAV:   1    -0.339536710312E+02   -0.29013E-06   -0.23004E-05    48   0.444E-02    0.130E-03
DAV:   2    -0.339536710982E+02   -0.67003E-07   -0.10459E-06    48   0.103E-02    0.743E-04
DAV:   3    -0.339536711257E+02   -0.27442E-07   -0.15252E-07    48   0.316E-03    0.310E-04
DAV:   4    -0.339536711316E+02   -0.59456E-08   -0.61343E-08    48   0.141E-03    0.112E-04
DAV:   5    -0.339536711323E+02   -0.65938E-09   -0.41197E-08    48   0.689E-04    0.565E-05
DAV:   6    -0.339536711330E+02   -0.73328E-09   -0.35578E-08    48   0.372E-04
 119 F= -.33953671E+02 E0= -.33953671E+02  d E =-.391656E-06
       N       E                     dE             d eps       ncg     rms          rms(c)
DAV:   1    -0.339536714532E+02   -0.32087E-06   -0.33839E-05    48   0.541E-02    0.157E-03
DAV:   2    -0.339536715506E+02   -0.97463E-07   -0.15347E-06    48   0.126E-02    0.893E-04
DAV:   3    -0.339536715890E+02   -0.38387E-07   -0.20698E-07    48   0.383E-03    0.357E-04
DAV:   4    -0.339536715975E+02   -0.85088E-08   -0.73879E-08    48   0.171E-03    0.124E-04
DAV:   5    -0.339536715997E+02   -0.21446E-08   -0.44883E-08    48   0.831E-04    0.645E-05
DAV:   6    -0.339536716009E+02   -0.12139E-08   -0.36647E-08    48   0.451E-04
 120 F= -.33953672E+02 E0= -.33953672E+02  d E =-.467850E-06
       N       E                     dE             d eps       ncg     rms          rms(c)
DAV:   1    -0.339536719359E+02   -0.33621E-06   -0.49097E-05    48   0.650E-02    0.188E-03
DAV:   2    -0.339536720768E+02   -0.14093E-06   -0.22087E-06    48   0.152E-02    0.107E-03
DAV:   3    -0.339536721327E+02   -0.55908E-07   -0.28344E-07    48   0.460E-03    0.422E-04
DAV:   4    -0.339536721449E+02   -0.12157E-07   -0.91674E-08    48   0.205E-03    0.148E-04
DAV:   5    -0.339536721477E+02   -0.28767E-08   -0.49918E-08    48   0.997E-04    0.769E-05
DAV:   6    -0.339536721494E+02   -0.16889E-08   -0.38184E-08    48   0.541E-04
 121 F= -.33953672E+02 E0= -.33953672E+02  d E =-.548557E-06
       N       E                     dE             d eps       ncg     rms          rms(c)
DAV:   1    -0.339536725603E+02   -0.41255E-06   -0.69188E-05    64   0.767E-02    0.223E-03
DAV:   2    -0.339536727607E+02   -0.20044E-06   -0.30665E-06    48   0.178E-02    0.128E-03
DAV:   3    -0.339536728408E+02   -0.80090E-07   -0.38532E-07    48   0.544E-03    0.516E-04
DAV:   4    -0.339536728576E+02   -0.16830E-07   -0.11566E-07    48   0.242E-03    0.193E-04
DAV:   5    -0.339536728601E+02   -0.24329E-08   -0.56562E-08    48   0.118E-03    0.963E-05
DAV:   6    -0.339536728620E+02   -0.19229E-08   -0.40327E-08    48   0.636E-04
 122 F= -.33953673E+02 E0= -.33953673E+02  d E =-.712568E-06
       N       E                     dE             d eps       ncg     rms          rms(c)
DAV:   1    -0.339536732813E+02   -0.42124E-06   -0.10353E-04    64   0.940E-02    0.272E-03
DAV:   2    -0.339536735839E+02   -0.30258E-06   -0.45788E-06    48   0.219E-02    0.155E-03
DAV:   3    -0.339536736962E+02   -0.11228E-06   -0.55236E-07    48   0.664E-03    0.598E-04
DAV:   4    -0.339536737196E+02   -0.23447E-07   -0.15390E-07    48   0.293E-03    0.215E-04
DAV:   5    -0.339536737249E+02   -0.52328E-08   -0.67602E-08    48   0.143E-03    0.111E-04
DAV:   6    -0.339536737281E+02   -0.32242E-08   -0.43546E-08    48   0.773E-04
 123 F= -.33953674E+02 E0= -.33953674E+02  d E =-.866084E-06
       N       E                     dE             d eps       ncg     rms          rms(c)
DAV:   1    -0.339536747078E+02   -0.98292E-06   -0.15854E-04    96   0.114E-01    0.333E-03
DAV:   2    -0.339536746151E+02    0.92669E-07   -0.13857E-06    48   0.104E-02    0.194E-03
DAV:   3    -0.339536747047E+02   -0.89628E-07   -0.24434E-07    48   0.432E-03    0.409E-04
DAV:   4    -0.339536747186E+02   -0.13900E-07   -0.85321E-08    48   0.189E-03    0.201E-04
DAV:   5    -0.339536747271E+02   -0.84615E-08   -0.47091E-08    48   0.935E-04    0.591E-05
DAV:   6    -0.339536747340E+02   -0.68715E-08   -0.37730E-08    48   0.489E-04
 124 F= -.33953675E+02 E0= -.33953675E+02  d E =-.100589E-05
       N       E                     dE             d eps       ncg     rms          rms(c)
DAV:   1    -0.339536758713E+02   -0.11442E-05   -0.23009E-04    96   0.137E-01    0.400E-03
DAV:   2    -0.339536757443E+02    0.12696E-06   -0.19271E-06    48   0.122E-02    0.234E-03
DAV:   3    -0.339536758768E+02   -0.13254E-06   -0.33851E-07    48   0.523E-03    0.496E-04
DAV:   4    -0.339536758943E+02   -0.17409E-07   -0.10777E-07    48   0.230E-03    0.257E-04
DAV:   5    -0.339536759041E+02   -0.98694E-08   -0.52480E-08    48   0.112E-03    0.800E-05
DAV:   6    -0.339536759134E+02   -0.92530E-08   -0.39373E-08    48   0.580E-04
 125 F= -.33953676E+02 E0= -.33953676E+02  d E =-.117940E-05
       N       E                     dE             d eps       ncg     rms          rms(c)
DAV:   1    -0.339536771736E+02   -0.12695E-05   -0.34296E-04    96   0.168E-01    0.498E-03
DAV:   2    -0.339536769811E+02    0.19252E-06   -0.30617E-06    48   0.157E-02    0.288E-03
DAV:   3    -0.339536771475E+02   -0.16643E-06   -0.52772E-07    48   0.670E-03    0.666E-04
DAV:   4    -0.339536771807E+02   -0.33163E-07   -0.14974E-07    48   0.291E-03    0.327E-04
DAV:   5    -0.339536771994E+02   -0.18705E-07   -0.61116E-08    48   0.144E-03    0.870E-05
DAV:   6    -0.339536772118E+02   -0.12388E-07   -0.41928E-08    48   0.738E-04
 126 F= -.33953677E+02 E0= -.33953677E+02  d E =-.129840E-05
       N       E                     dE             d eps       ncg     rms          rms(c)
DAV:   1    -0.339536781153E+02   -0.91592E-06   -0.49631E-04    96   0.201E-01    0.658E-03
DAV:   2    -0.339536777192E+02    0.39610E-06   -0.44725E-06    48   0.195E-02    0.378E-03
DAV:   3    -0.339536779336E+02   -0.21442E-06   -0.11920E-06    48   0.104E-02    0.107E-03
DAV:   4    -0.339536779784E+02   -0.44806E-07   -0.26454E-07    48   0.456E-03    0.546E-04
DAV:   5    -0.339536779982E+02   -0.19766E-07   -0.78480E-08    48   0.207E-03    0.147E-04
DAV:   6    -0.339536780148E+02   -0.16600E-07   -0.47325E-08    48   0.100E-03
 127 F= -.33953678E+02 E0= -.33953678E+02  d E =-.803022E-06
       N       E                     dE             d eps       ncg     rms          rms(c)
DAV:   1    -0.339536789464E+02   -0.94818E-06   -0.43018E-05    48   0.611E-02    0.265E-03
DAV:   2    -0.339536789778E+02   -0.31426E-07   -0.18379E-06    48   0.137E-02    0.154E-03
DAV:   3    -0.339536789707E+02    0.71135E-08   -0.25094E-07    48   0.516E-03    0.568E-04
DAV:   4    -0.339536789989E+02   -0.28243E-07   -0.98798E-08    48   0.237E-03    0.285E-04
DAV:   5    -0.339536790220E+02   -0.23021E-07   -0.43123E-08    48   0.110E-03    0.825E-05
DAV:   6    -0.339536790357E+02   -0.13752E-07   -0.35581E-08    48   0.437E-04
 128 F= -.33953679E+02 E0= -.33953679E+02  d E =-.102091E-05
       N       E                     dE             d eps       ncg     rms          rms(c)
DAV:   1    -0.339536783682E+02    0.65377E-06   -0.34771E-05    48   0.552E-02    0.232E-03
DAV:   2    -0.339536783884E+02   -0.20175E-07   -0.15474E-06    48   0.126E-02    0.136E-03
DAV:   3    -0.339536783715E+02    0.16839E-07   -0.20618E-07    48   0.457E-03    0.528E-04
DAV:   4    -0.339536783876E+02   -0.16106E-07   -0.87018E-08    48   0.213E-03    0.251E-04
DAV:   5    -0.339536784007E+02   -0.13116E-07   -0.41425E-08    48   0.100E-03    0.758E-05
DAV:   6    -0.339536784068E+02   -0.60677E-08   -0.34713E-08    48   0.404E-04
 129 F= -.33953678E+02 E0= -.33953678E+02  d E =0.628901E-06
       N       E                     dE             d eps       ncg     rms          rms(c)
DAV:   1    -0.339536787435E+02   -0.34273E-06   -0.21991E-06    48   0.137E-02    0.600E-04
DAV:   2    -0.339536787534E+02   -0.99694E-08   -0.12141E-07    48   0.305E-03    0.350E-04
DAV:   3    -0.339536787623E+02   -0.88979E-08   -0.43113E-08    48   0.115E-03    0.128E-04
DAV:   4    -0.339536787655E+02   -0.32014E-08   -0.35642E-08    48   0.521E-04    0.658E-05
DAV:   5    -0.339536787670E+02   -0.14683E-08   -0.33054E-08    48   0.240E-04    0.179E-05
DAV:   6    -0.339536787683E+02   -0.13038E-08   -0.32753E-08    48   0.945E-05
 130 F= -.33953679E+02 E0= -.33953679E+02  d E =-.361500E-06
       N       E                     dE             d eps       ncg     rms          rms(c)
DAV:   1    -0.339536791239E+02   -0.35687E-06   -0.66409E-06    48   0.239E-02    0.104E-03
DAV:   2    -0.339536791371E+02   -0.13213E-07   -0.31121E-07    48   0.538E-03    0.603E-04
DAV:   3    -0.339536791423E+02   -0.51984E-08   -0.66043E-08    48   0.201E-03    0.226E-04
DAV:   4    -0.339536791436E+02   -0.13516E-08   -0.43123E-08    48   0.929E-04    0.112E-04
DAV:   5    -0.339536791422E+02    0.14061E-08   -0.34647E-08    48   0.429E-04    0.325E-05
DAV:   6    -0.339536791423E+02   -0.70713E-10   -0.33508E-08    48   0.172E-04
 131 F= -.33953679E+02 E0= -.33953679E+02  d E =-.373995E-06
       N       E                     dE             d eps       ncg     rms          rms(c)
DAV:   1    -0.339536792037E+02   -0.61492E-07   -0.90592E-06    48   0.279E-02    0.121E-03
DAV:   2    -0.339536792198E+02   -0.16103E-07   -0.41812E-07    48   0.632E-03    0.704E-04
DAV:   3    -0.339536792238E+02   -0.39275E-08   -0.78799E-08    48   0.235E-03    0.267E-04
DAV:   4    -0.339536792254E+02   -0.16726E-08   -0.47409E-08    48   0.109E-03    0.130E-04
DAV:   5    -0.339536792242E+02    0.12769E-08   -0.35676E-08    48   0.504E-04    0.381E-05
DAV:   6    -0.339536792243E+02   -0.14552E-09   -0.34066E-08    48   0.203E-04
 132 F= -.33953679E+02 E0= -.33953679E+02  d E =-.819924E-07
       N       E                     dE             d eps       ncg     rms          rms(c)
DAV:   1    -0.339536792312E+02   -0.70726E-08   -0.40492E-08    48   0.795E-04    0.337E-05
DAV:   2    -0.339536792314E+02   -0.20327E-09   -0.33812E-08    48   0.187E-04    0.215E-05
DAV:   3    -0.339536792320E+02   -0.60800E-09   -0.33433E-08    48   0.745E-05    0.811E-06
DAV:   4    -0.339536792325E+02   -0.41769E-09   -0.33366E-08    48   0.322E-05    0.460E-06
DAV:   5    -0.339536792332E+02   -0.78103E-09   -0.33273E-08    48   0.168E-05    0.119E-06
DAV:   6    -0.339536792335E+02   -0.30423E-09   -0.33216E-08    48   0.917E-06
 133 F= -.33953679E+02 E0= -.33953679E+02  d E =-.924126E-08
       N       E                     dE             d eps       ncg     rms          rms(c)
DAV:   1    -0.339536792458E+02   -0.12604E-07   -0.59186E-08    48   0.152E-03    0.599E-05
DAV:   2    -0.339536792455E+02    0.36016E-09   -0.34206E-08    48   0.350E-04    0.360E-05
DAV:   3    -0.339536792453E+02    0.14768E-09   -0.33104E-08    48   0.123E-04    0.147E-05
DAV:   4    -0.339536792456E+02   -0.30127E-09   -0.33011E-08    48   0.574E-05    0.707E-06
DAV:   5    -0.339536792458E+02   -0.20282E-09   -0.32915E-08    48   0.273E-05    0.220E-06
DAV:   6    -0.339536792458E+02    0.17280E-10   -0.32877E-08    48   0.112E-05
 134 F= -.33953679E+02 E0= -.33953679E+02  d E =-.122787E-07
       N       E                     dE             d eps       ncg     rms          rms(c)
DAV:   1    -0.339536792614E+02   -0.15613E-07   -0.86042E-08    48   0.218E-03    0.846E-05
DAV:   2    -0.339536792608E+02    0.68894E-09   -0.35236E-08    48   0.501E-04    0.510E-05
DAV:   3    -0.339536792606E+02    0.19122E-09   -0.33109E-08    48   0.176E-04    0.211E-05
DAV:   4    -0.339536792606E+02   -0.14325E-10   -0.32918E-08    48   0.822E-05    0.101E-05
DAV:   5    -0.339536792608E+02   -0.22692E-09   -0.32839E-08    48   0.392E-05    0.318E-06
DAV:   6    -0.339536792608E+02   -0.32514E-10   -0.32810E-08    48   0.161E-05
 135 F= -.33953679E+02 E0= -.33953679E+02  d E =-.150238E-07
