 vasp.5.4.1 24Jun15 (build Jan 13 2020 12:58:22) complex                        
  
 executed on           IFC91_ompi date 2020.02.03  09:53:44
 running on   15 total cores
 each image running on    1 cores
 distrk:  each k-point on    1 cores,    1 groups
 distr:  one band on NCORES_PER_BAND=   1 cores,    1 groups


--------------------------------------------------------------------------------------------------------


 INCAR:
 POTCAR:    PAW_PBE H 15Jun2001                   
 POTCAR:    PAW_PBE C 08Apr2002                   
 POTCAR:    PAW_PBE N 08Apr2002                   
 POTCAR:    PAW_PBE H 15Jun2001                   
   VRHFIN =H: ultrasoft test                                                    
   LEXCH  = PE                                                                  
   EATOM  =    12.4884 eV,    0.9179 Ry                                         
                                                                                
   TITEL  = PAW_PBE H 15Jun2001                                                 
   LULTRA =        F    use ultrasoft PP ?                                      
   IUNSCR =        0    unscreen: 0-lin 1-nonlin 2-no                           
   RPACOR =    0.000    partial core radius                                     
   POMASS =    1.000; ZVAL   =    1.000    mass and valenz                      
   RCORE  =    1.100    outmost cutoff radius                                   
   RWIGS  =    0.700; RWIGS  =    0.370    wigner-seitz radius (au A)           
   ENMAX  =  250.000; ENMIN  =  200.000 eV                                      
   RCLOC  =    0.701    cutoff for local pot                                    
   LCOR   =        T    correct aug charges                                     
   LPAW   =        T    paw PP                                                  
   EAUG   =  400.000                                                            
   RMAX   =    1.123    core radius for proj-oper                               
   RAUG   =    1.200    factor for augmentation sphere                          
   RDEP   =    1.112    radius for radial grids                                 
   RDEPT  =    0.926    core radius for aug-charge                              
                                                                                
   Atomic configuration                                                         
    2 entries                                                                   
     n  l   j            E        occ.                                          
     1  0  0.50        -6.4927   1.0000                                         
     2  1  0.50        -3.4015   0.0000                                         
   Description                                                                  
     l       E           TYP  RCUT    TYP  RCUT                                 
     0     -6.4927494     23  1.100                                             
     0      6.8029130     23  1.100                                             
     1     -4.0817478     23  1.100                                             
  local pseudopotential read in
  atomic valenz-charges read in
  non local Contribution for L=           0  read in
    real space projection operators read in
  non local Contribution for L=           0  read in
    real space projection operators read in
  non local Contribution for L=           1  read in
    real space projection operators read in
    PAW grid and wavefunctions read in
 
   number of l-projection  operators is LMAX  =           3
   number of lm-projection operators is LMMAX =           5
 
 POTCAR:    PAW_PBE C 08Apr2002                   
   VRHFIN =C: s2p2                                                              
   LEXCH  = PE                                                                  
   EATOM  =   147.1560 eV,   10.8157 Ry                                         
                                                                                
   TITEL  = PAW_PBE C 08Apr2002                                                 
   LULTRA =        F    use ultrasoft PP ?                                      
   IUNSCR =        1    unscreen: 0-lin 1-nonlin 2-no                           
   RPACOR =    1.200    partial core radius                                     
   POMASS =   12.011; ZVAL   =    4.000    mass and valenz                      
   RCORE  =    1.500    outmost cutoff radius                                   
   RWIGS  =    1.630; RWIGS  =    0.863    wigner-seitz radius (au A)           
   ENMAX  =  400.000; ENMIN  =  300.000 eV                                      
   ICORE  =        2    local potential                                         
   LCOR   =        T    correct aug charges                                     
   LPAW   =        T    paw PP                                                  
   EAUG   =  644.873                                                            
   DEXC   =    0.000                                                            
   RMAX   =    1.529    core radius for proj-oper                               
   RAUG   =    1.300    factor for augmentation sphere                          
   RDEP   =    1.501    radius for radial grids                                 
   RDEPT  =    1.300    core radius for aug-charge                              
                                                                                
   Atomic configuration                                                         
    4 entries                                                                   
     n  l   j            E        occ.                                          
     1  0  0.50      -273.3789   2.0000                                         
     2  0  0.50       -13.7508   2.0000                                         
     2  1  0.50        -5.2854   2.0000                                         
     3  2  1.50        -5.4423   0.0000                                         
   Description                                                                  
     l       E           TYP  RCUT    TYP  RCUT                                 
     0    -13.7508458     23  1.200                                             
     0     -8.2022199     23  1.200                                             
     1     -5.2854383     23  1.500                                             
     1     34.0145650     23  1.500                                             
     2     -5.4423304      7  1.500                                             
  local pseudopotential read in
  partial core-charges read in
  partial kinetic energy density read in
  atomic valenz-charges read in
  non local Contribution for L=           0  read in
    real space projection operators read in
  non local Contribution for L=           0  read in
    real space projection operators read in
  non local Contribution for L=           1  read in
    real space projection operators read in
  non local Contribution for L=           1  read in
    real space projection operators read in
    PAW grid and wavefunctions read in
 
   number of l-projection  operators is LMAX  =           4
   number of lm-projection operators is LMMAX =           8
 
 POTCAR:    PAW_PBE N 08Apr2002                   
   VRHFIN =N: s2p3                                                              
   LEXCH  = PE                                                                  
   EATOM  =   264.5486 eV,   19.4438 Ry                                         
                                                                                
   TITEL  = PAW_PBE N 08Apr2002                                                 
   LULTRA =        F    use ultrasoft PP ?                                      
   IUNSCR =        1    unscreen: 0-lin 1-nonlin 2-no                           
   RPACOR =    1.200    partial core radius                                     
   POMASS =   14.001; ZVAL   =    5.000    mass and valenz                      
   RCORE  =    1.500    outmost cutoff radius                                   
   RWIGS  =    1.400; RWIGS  =    0.741    wigner-seitz radius (au A)           
   ENMAX  =  400.000; ENMIN  =  300.000 eV                                      
   ICORE  =        2    local potential                                         
   LCOR   =        T    correct aug charges                                     
   LPAW   =        T    paw PP                                                  
   EAUG   =  627.112                                                            
   DEXC   =    0.000                                                            
   RMAX   =    1.529    core radius for proj-oper                               
   RAUG   =    1.300    factor for augmentation sphere                          
   RDEP   =    1.514    radius for radial grids                                 
   RDEPT  =    1.338    core radius for aug-charge                              
                                                                                
   Atomic configuration                                                         
    4 entries                                                                   
     n  l   j            E        occ.                                          
     1  0  0.50      -384.7179   2.0000                                         
     2  0  0.50       -18.5828   2.0000                                         
     2  1  0.50        -7.0898   3.0000                                         
     3  2  1.50        -6.8029   0.0000                                         
   Description                                                                  
     l       E           TYP  RCUT    TYP  RCUT                                 
     0    -18.5828119     23  1.200                                             
     0    -13.5018863     23  1.200                                             
     1     -7.0897853     23  1.500                                             
     1      9.5240782     23  1.500                                             
     2     -6.8029130      7  1.500                                             
  local pseudopotential read in
  partial core-charges read in
  partial kinetic energy density read in
  atomic valenz-charges read in
  non local Contribution for L=           0  read in
    real space projection operators read in
  non local Contribution for L=           0  read in
    real space projection operators read in
  non local Contribution for L=           1  read in
    real space projection operators read in
  non local Contribution for L=           1  read in
    real space projection operators read in
    PAW grid and wavefunctions read in
 
   number of l-projection  operators is LMAX  =           4
   number of lm-projection operators is LMMAX =           8
 

 ----------------------------------------------------------------------------- 
|                                                                             |
|  ADVICE TO THIS USER RUNNING 'VASP/VAMP'   (HEAR YOUR MASTER'S VOICE ...):  |
|                                                                             |
|      You have a (more or less) 'small supercell' and for smaller cells      |
|      it is recommended  to use the reciprocal-space projection scheme!      |
|      The real space optimization is not  efficient for small cells and it   |
|      is also less accurate ...                                              |
|      Therefore set LREAL=.FALSE. in the  INCAR file                         |
|                                                                             |
 ----------------------------------------------------------------------------- 

 Optimization of the real space projectors (new method)

 maximal supplied QI-value         = 34.20
 optimisation between [QCUT,QGAM] = [  9.92, 20.18] = [ 27.55,114.04] Ry 
 Optimized for a Real-space Cutoff    1.26 Angstroem

   l    n(q)    QCUT    max X(q) W(low)/X(q) W(high)/X(q)  e(spline) 
   0      8     9.919    19.460    0.50E-03    0.23E-03    0.29E-06
   0      8     9.919    12.209    0.48E-03    0.23E-03    0.28E-06
   1      7     9.919     4.655    0.17E-03    0.75E-03    0.30E-06
 Optimization of the real space projectors (new method)

 maximal supplied QI-value         = 25.13
 optimisation between [QCUT,QGAM] = [ 10.05, 20.36] = [ 28.30,116.06] Ry 
 Optimized for a Real-space Cutoff    1.30 Angstroem

   l    n(q)    QCUT    max X(q) W(low)/X(q) W(high)/X(q)  e(spline) 
   0      8    10.053   115.676    0.49E-03    0.72E-03    0.18E-06
   0      8    10.053    87.132    0.49E-03    0.71E-03    0.18E-06
   1      7    10.053     4.429    0.32E-03    0.31E-03    0.18E-06
   1      7    10.053     2.733    0.23E-03    0.19E-03    0.20E-06
 Optimization of the real space projectors (new method)

 maximal supplied QI-value         = 25.13
 optimisation between [QCUT,QGAM] = [ 10.05, 20.36] = [ 28.30,116.06] Ry 
 Optimized for a Real-space Cutoff    1.65 Angstroem

   l    n(q)    QCUT    max X(q) W(low)/X(q) W(high)/X(q)  e(spline) 
   0     10    10.053    79.467    0.76E-04    0.72E-04    0.56E-06
   0     10    10.053    66.151    0.76E-04    0.72E-04    0.55E-06
   1     10    10.053     8.350    0.25E-03    0.92E-03    0.41E-05
   1     10    10.053     5.531    0.27E-03    0.10E-02    0.45E-05
  PAW_PBE H 15Jun2001                   :
 energy of atom  1       EATOM=  -12.4884
 kinetic energy error for atom=    0.0098 (will be added to EATOM!!)
  PAW_PBE C 08Apr2002                   :
 energy of atom  2       EATOM= -147.1560
 kinetic energy error for atom=    0.0288 (will be added to EATOM!!)
  PAW_PBE N 08Apr2002                   :
 energy of atom  3       EATOM= -264.5486
 kinetic energy error for atom=    0.0736 (will be added to EATOM!!)
 
 
 POSCAR: H3 C2 N1                                
  positions in direct lattice
  velocities in cartesian coordinates
 exchange correlation table for  LEXCH =        8
   RHO(1)=    0.500       N(1)  =     2000
   RHO(2)=  100.500       N(2)  =     4000

 VTST: version 3.2, (02/03/18)

 CHAIN: initializing optimizer
 
 OPT: Using FIRE optimizer
 OPT: FIRE, Init
 OPT: FIRE, MAXMOVE       0.20000
 OPT: FIRE, TIMESTEP      0.10000
 OPT: FIRE, FTIMEMAX      1.00000
 OPT: FIRE, FTIMEINC      1.10000
 OPT: FIRE, FTIMEDEC      0.50000
 OPT: FIRE, FALPHADEC     0.99000
 OPT: FIRE, FALPHA        0.10000
 OPT: FIRE, FNMIN         5
 
 CHAIN: Read ICHAIN            0
 CHAIN: Running the NEB
 NEB:          SPRING     -5.000000
 NEB:          LCLIMB      T
 NEB:     LTANGENTOLD      F
 NEB:           LDNEB      F
 NEB:        LDNEBORG      F
 NEB:        LNEBCELL      F
 NEB:          EFIRST      0.000000
 NEB:           ELAST      0.000000
 
 POSCAR: H3 C2 N1                                
  positions in direct lattice
  No initial velocities read in
 
 POSCAR: H3 C2 N1                                
  positions in direct lattice
  No initial velocities read in
 


--------------------------------------------------------------------------------------------------------


 ion  position               nearest neighbor table
   1  0.480  0.463  0.500-   4 1.09
   2  0.470  0.519  0.477-   4 1.09
   3  0.478  0.511  0.535-   4 1.09
   4  0.487  0.499  0.502-   3 1.09   2 1.09   1 1.09   6 1.74   5 1.86
   5  0.542  0.496  0.474-   6 1.21   4 1.86
   6  0.542  0.512  0.512-   5 1.21   4 1.74
 
  LATTYP: Found a simple cubic cell.
 ALAT       =    30.0000000000
  
  Lattice vectors:
  
 A1 = (  30.0000000000,   0.0000000000,   0.0000000000)
 A2 = (   0.0000000000,  30.0000000000,   0.0000000000)
 A3 = (   0.0000000000,   0.0000000000,  30.0000000000)


Analysis of symmetry for initial positions (statically):
=====================================================================
 Subroutine PRICEL returns:
 Original cell was already a primitive cell.
 

 Routine SETGRP: Setting up the symmetry group for a 
 simple cubic supercell.


 Subroutine GETGRP returns: Found  1 space group operations
 (whereof  1 operations were pure point group operations)
 out of a pool of 48 trial point group operations.


The static configuration has the point symmetry C_1 .


Analysis of symmetry for dynamics (positions and initial velocities):
=====================================================================
 Subroutine PRICEL returns:
 Original cell was already a primitive cell.
 

 Routine SETGRP: Setting up the symmetry group for a 
 simple cubic supercell.


 Subroutine GETGRP returns: Found  1 space group operations
 (whereof  1 operations were pure point group operations)
 out of a pool of 48 trial point group operations.


The dynamic configuration has the point symmetry C_1 .
 
 
 KPOINTS: Mo2C                                    

Automatic generation of k-mesh.
Space group operators:
 irot       det(A)        alpha          n_x          n_y          n_z        tau_x        tau_y        tau_z
    1     1.000000     0.000000     1.000000     0.000000     0.000000     0.000000     0.000000     0.000000
 
 Subroutine IBZKPT returns following result:
 ===========================================
 
 Found      4 irreducible k-points:
 
 Following reciprocal coordinates:
            Coordinates               Weight
  0.250000  0.250000  0.250000      2.000000
 -0.250000  0.250000  0.250000      2.000000
  0.250000 -0.250000  0.250000      2.000000
 -0.250000 -0.250000  0.250000      2.000000
 
 Following cartesian coordinates:
            Coordinates               Weight
  0.008333  0.008333  0.008333      2.000000
 -0.008333  0.008333  0.008333      2.000000
  0.008333 -0.008333  0.008333      2.000000
 -0.008333 -0.008333  0.008333      2.000000
 


--------------------------------------------------------------------------------------------------------




 Dimension of arrays:
   k-points           NKPTS =      4   k-points in BZ     NKDIM =      4   number of bands    NBANDS=     12
   number of dos      NEDOS =    301   number of ions     NIONS =      6
   non local maximal  LDIM  =      4   non local SUM 2l+1 LMDIM =      8
   total plane-waves  NPLWV = ******
   max r-space proj   IRMAX =   2395   max aug-charges    IRDMAX=   1738
   dimension x,y,z NGX =   150 NGY =  150 NGZ =  150
   dimension x,y,z NGXF=   300 NGYF=  300 NGZF=  300
   support grid    NGXF=   300 NGYF=  300 NGZF=  300
   ions per type =               3   2   1
 NGX,Y,Z   is equivalent  to a cutoff of   8.31,  8.31,  8.31 a.u.
 NGXF,Y,Z  is equivalent  to a cutoff of  16.62, 16.62, 16.62 a.u.


 I would recommend the setting:
   dimension x,y,z NGX =   147 NGY =  147 NGZ =  147
 SYSTEM =  unknown system                          
 POSCAR =  H3 C2 N1                                

 Startparameter for this run:
   NWRITE =      2    write-flag & timer
   PREC   = normal    normal or accurate (medium, high low for compatibility)
   ISTART =      0    job   : 0-new  1-cont  2-samecut
   ICHARG =      2    charge: 1-file 2-atom 10-const
   ISPIN  =      1    spin polarized calculation?
   LNONCOLLINEAR =      F non collinear calculations
   LSORBIT =      F    spin-orbit coupling
   INIWAV =      1    electr: 0-lowe 1-rand  2-diag
   LASPH  =      F    aspherical Exc in radial PAW
   METAGGA=      F    non-selfconsistent MetaGGA calc.

 Electronic Relaxation 1
   ENCUT  =  400.0 eV  29.40 Ry    5.42 a.u.  48.92 48.92 48.92*2*pi/ulx,y,z
   ENINI  =  400.0     initial cutoff
   ENAUG  =  644.9 eV  augmentation charge cutoff
   NELM   =    500;   NELMIN=  6; NELMDL= -5     # of ELM steps 
   EDIFF  = 0.1E-03   stopping-criterion for ELM
   LREAL  =      T    real-space projection
   NLSPLINE    = F    spline interpolate recip. space projectors
   LCOMPAT=      F    compatible to vasp.4.4
   GGA_COMPAT  = T    GGA compatible to vasp.4.4-vasp.4.6
   LMAXPAW     = -100 max onsite density
   LMAXMIX     =    2 max onsite mixed and CHGCAR
   VOSKOWN=      0    Vosko Wilk Nusair interpolation
   ROPT   =   -0.00050  -0.00050  -0.00050
 Ionic relaxation
   EDIFFG = -.1E+00   stopping-criterion for IOM
   NSW    =    300    number of steps for IOM
   NBLOCK =      1;   KBLOCK =    300    inner block; outer block 
   IBRION =      3    ionic relax: 0-MD 1-quasi-New 2-CG
   NFREE  =      0    steps in history (QN), initial steepest desc. (CG)
   ISIF   =      2    stress and relaxation
   IWAVPR =     11    prediction:  0-non 1-charg 2-wave 3-comb
   ISYM   =      2    0-nonsym 1-usesym 2-fastsym
   LCORR  =      T    Harris-Foulkes like correction to forces

   POTIM  = 0.0000    time-step for ionic-motion
   TEIN   =    0.0    initial temperature
   TEBEG  =    0.0;   TEEND  =   0.0 temperature during run
   SMASS  =   2.00    Nose mass-parameter (am)
   estimated Nose-frequenzy (Omega)   =  0.12E+10 period in steps =  0.00 mass=   0.137E-25a.u.
   SCALEE = 1.0000    scale energy and forces
   NPACO  =    256;   APACO  = 16.0  distance and # of slots for P.C.
   PSTRESS=    0.0 pullay stress

  Mass of Ions in am
   POMASS =   1.00 12.01 14.00
  Ionic Valenz
   ZVAL   =   1.00  4.00  5.00
  Atomic Wigner-Seitz radii
   RWIGS  =  -1.00 -1.00 -1.00
  virtual crystal weights 
   VCA    =   1.00  1.00  1.00
   NELECT =      16.0000    total number of electrons
   NUPDOWN=      -1.0000    fix difference up-down

 DOS related values:
   EMIN   =  10.00;   EMAX   =-10.00  energy-range for DOS
   EFERMI =   0.00
   ISMEAR =     0;   SIGMA  =   0.20  broadening in eV -4-tet -1-fermi 0-gaus

 Electronic relaxation 2 (details)
   IALGO  =     38    algorithm
   LDIAG  =      T    sub-space diagonalisation (order eigenvalues)
   LSUBROT=      F    optimize rotation matrix (better conditioning)
   TURBO    =      0    0=normal 1=particle mesh
   IRESTART =      0    0=no restart 2=restart with 2 vectors
   NREBOOT  =      0    no. of reboots
   NMIN     =      0    reboot dimension
   EREF     =   0.00    reference energy to select bands
   IMIX   =      4    mixing-type and parameters
     AMIX     =   0.40;   BMIX     =  1.00
     AMIX_MAG =   1.60;   BMIX_MAG =  1.00
     AMIN     =   0.10
     WC   =   100.;   INIMIX=   1;  MIXPRE=   1;  MAXMIX= -45

 Intra band minimization:
   WEIMIN = 0.0010     energy-eigenvalue tresh-hold
   EBREAK =  0.21E-05  absolut break condition
   DEPER  =   0.30     relativ break condition  

   TIME   =   0.40     timestep for ELM

  volume/ion in A,a.u.               =    4500.00     30367.50
  Fermi-wavevector in a.u.,A,eV,Ry     =   0.137508  0.259852  0.257264  0.018908
  Thomas-Fermi vector in A             =   0.790710
 
 Write flags
   LWAVE  =      F    write WAVECAR
   LCHARG =      F    write CHGCAR
   LVTOT  =      F    write LOCPOT, total local potential
   LVHAR  =      F    write LOCPOT, Hartree potential only
   LELF   =      F    write electronic localiz. function (ELF)
   LORBIT =      0    0 simple, 1 ext, 2 COOP (PROOUT)


 Dipole corrections
   LMONO  =      F    monopole corrections only (constant potential shift)
   LDIPOL =      F    correct potential (dipole corrections)
   IDIPOL =      0    1-x, 2-y, 3-z, 4-all directions 
   EPSILON=  1.0000000 bulk dielectric constant

 Exchange correlation treatment:
   GGA     =    PE    GGA type
   LEXCH   =     8    internal setting for exchange type
   VOSKOWN=      0    Vosko Wilk Nusair interpolation
   LHFCALC =     F    Hartree Fock is set to
   LHFONE  =     F    Hartree Fock one center treatment
   AEXX    =    0.0000 exact exchange contribution

 Linear response parameters
   LEPSILON=     F    determine dielectric tensor
   LRPA    =     F    only Hartree local field effects (RPA)
   LNABLA  =     F    use nabla operator in PAW spheres
   LVEL    =     F    velocity operator in full k-point grid
   LINTERFAST=   F  fast interpolation
   KINTER  =     0    interpolate to denser k-point grid
   CSHIFT  =0.1000    complex shift for real part using Kramers Kronig
   OMEGAMAX=  -1.0    maximum frequency
   DEG_THRESHOLD= 0.2000000E-02 threshold for treating states as degnerate
   RTIME   =    0.100 relaxation time in fs

 Orbital magnetization related:
   ORBITALMAG=     F  switch on orbital magnetization
   LCHIMAG   =     F  perturbation theory with respect to B field
   DQ        =  0.001000  dq finite difference perturbation B field



--------------------------------------------------------------------------------------------------------


 quickmin algorithm: (dynamic with friction)
 charge density and potential will be updated during run
 non-spin polarized calculation
 Variant of blocked Davidson
 Davidson routine will perform the subspace rotation
 perform sub-space diagonalisation
    after iterative eigenvector-optimisation
 modified Broyden-mixing scheme, WC =      100.0
 initial mixing is a Kerker type mixing with AMIX =  0.4000 and BMIX =      1.0000
 Hartree-type preconditioning will be used
 using additional bands            4
 real space projection scheme for non local part
 use partial core corrections
 calculate Harris-corrections to forces 
   (improved forces if not selfconsistent)
 use gradient corrections 
 use of overlap-Matrix (Vanderbilt PP)
 Gauss-broadening in eV      SIGMA  =   0.20


--------------------------------------------------------------------------------------------------------


  energy-cutoff  :      400.00
  volume of cell :    27000.00
      direct lattice vectors                 reciprocal lattice vectors
    30.000000000  0.000000000  0.000000000     0.033333333  0.000000000  0.000000000
     0.000000000 30.000000000  0.000000000     0.000000000  0.033333333  0.000000000
     0.000000000  0.000000000 30.000000000     0.000000000  0.000000000  0.033333333

  length of vectors
    30.000000000 30.000000000 30.000000000     0.033333333  0.033333333  0.033333333


 
 k-points in units of 2pi/SCALE and weight: Mo2C                                    
   0.00833333  0.00833333  0.00833333       0.250
  -0.00833333  0.00833333  0.00833333       0.250
   0.00833333 -0.00833333  0.00833333       0.250
  -0.00833333 -0.00833333  0.00833333       0.250
 
 k-points in reciprocal lattice and weights: Mo2C                                    
   0.25000000  0.25000000  0.25000000       0.250
  -0.25000000  0.25000000  0.25000000       0.250
   0.25000000 -0.25000000  0.25000000       0.250
  -0.25000000 -0.25000000  0.25000000       0.250
 
 position of ions in fractional coordinates (direct lattice) 
   0.47969034  0.46309492  0.49964187
   0.47026978  0.51856453  0.47660372
   0.47841626  0.51105234  0.53546757
   0.48692878  0.49873489  0.50226847
   0.54225854  0.49645725  0.47443763
   0.54244635  0.51211503  0.51158070
 
 position of ions in cartesian coordinates  (Angst):
  14.39071027 13.89284760 14.98925599
  14.10809347 15.55693578 14.29811157
  14.35248777 15.33157006 16.06402709
  14.60786350 14.96204655 15.06805415
  16.26775614 14.89371749 14.23312905
  16.27339059 15.36345096 15.34742102
 


--------------------------------------------------------------------------------------------------------


 k-point  1 :   0.2500 0.2500 0.2500  plane waves:  490454
 k-point  2 :  -0.2500 0.2500 0.2500  plane waves:  490454
 k-point  3 :   0.2500-0.2500 0.2500  plane waves:  490454
 k-point  4 :  -0.2500-0.2500 0.2500  plane waves:  490454

 maximum and minimum number of plane-waves per node :    490454   490454

 maximum number of plane-waves:    490454
 maximum index in each direction: 
   IXMAX=   49   IYMAX=   49   IZMAX=   48
   IXMIN=  -49   IYMIN=  -49   IZMIN=  -49

 WARNING: aliasing errors must be expected set NGX to 198 to avoid them
 WARNING: aliasing errors must be expected set NGY to 198 to avoid them
 WARNING: aliasing errors must be expected set NGZ to 196 to avoid them
 aliasing errors are usually negligible using standard VASP settings
 and one can safely disregard these warnings

 serial   3D FFT for wavefunctions
 parallel 3D FFT for charge:
    minimum data exchange during FFTs selected (reduces bandwidth)


 total amount of memory used by VASP on root node  3203888. kBytes
========================================================================

   base      :      30000. kBytes
   nonlr-proj:        692. kBytes
   fftplans  :     924480. kBytes
   grid      :    1872000. kBytes
   one-center:         18. kBytes
   wavefun   :     376698. kBytes
 
     INWAV:  cpu time    0.0000: real time    0.0004
 Broyden mixing: mesh for mixing (old mesh)
   NGX = 97   NGY = 97   NGZ = 97
  (NGX  =300   NGY  =300   NGZ  =300)
  gives a total of 912673 points

 initial charge density was supplied:
 charge density of overlapping atoms calculated
 number of electron      16.0000000 magnetization 
 keeping initial charge density in first step


--------------------------------------------------------------------------------------------------------


 Maximum index for non-local projection operator         2273
 Maximum index for augmentation-charges         1497 (set IRDMAX)


--------------------------------------------------------------------------------------------------------


 First call to EWALD:  gamma=   0.059
 Maximum number of real-space cells 3x 3x 3
 Maximum number of reciprocal cells 3x 3x 3

 FEWALD executed in parallel
    FEWALD:  cpu time    0.0020: real time    0.0020


----------------------------------------- Iteration    1(   1)  ---------------------------------------


    POTLOK:  cpu time   18.1402: real time   18.1270
    SETDIJ:  cpu time    0.0080: real time    0.0080
     EDDAV:  cpu time   88.7855: real time   88.7160
       DOS:  cpu time    0.0000: real time    0.0003
    --------------------------------------------
      LOOP:  cpu time  106.9367: real time  106.8557

 eigenvalue-minimisations  :   160
 total energy-change (2. order) : 0.1070787E+03  (-0.2130224E+03)
 number of electron      16.0000000 magnetization 
 augmentation part       16.0000000 magnetization 

 Free energy of the ion-electron system (eV)
  ---------------------------------------------------
  alpha Z        PSCENC =         0.04144063
  Ewald energy   TEWEN  =       703.16732403
  -Hartree energ DENC   =     -1124.67851550
  -exchange      EXHF   =         0.00000000
  -V(xc)+E(xc)   XCENC  =        51.11410648
  PAW double counting   =       428.37890668     -430.73533574
  entropy T*S    EENTRO =        -0.23954956
  eigenvalues    EBANDS =      -116.13500897
  atomic energy  EATOM  =       596.16534815
  Solvation  Ediel_sol  =         0.00000000
  ---------------------------------------------------
  free energy    TOTEN  =       107.07871621 eV

  energy without entropy =      107.31826576  energy(sigma->0) =      107.19849099


--------------------------------------------------------------------------------------------------------




----------------------------------------- Iteration    1(   2)  ---------------------------------------


     EDDAV:  cpu time  105.9109: real time  105.8289
       DOS:  cpu time    0.0000: real time    0.0002
    --------------------------------------------
      LOOP:  cpu time  105.9129: real time  105.8318

 eigenvalue-minimisations  :   192
 total energy-change (2. order) :-0.1064559E+03  (-0.1028079E+03)
 number of electron      16.0000000 magnetization 
 augmentation part       16.0000000 magnetization 

 Free energy of the ion-electron system (eV)
  ---------------------------------------------------
  alpha Z        PSCENC =         0.04144063
  Ewald energy   TEWEN  =       703.16732403
  -Hartree energ DENC   =     -1124.67851550
  -exchange      EXHF   =         0.00000000
  -V(xc)+E(xc)   XCENC  =        51.11410648
  PAW double counting   =       428.37890668     -430.73533574
  entropy T*S    EENTRO =         0.00000000
  eigenvalues    EBANDS =      -222.83050813
  atomic energy  EATOM  =       596.16534815
  Solvation  Ediel_sol  =         0.00000000
  ---------------------------------------------------
  free energy    TOTEN  =         0.62276661 eV

  energy without entropy =        0.62276661  energy(sigma->0) =        0.62276661


--------------------------------------------------------------------------------------------------------




----------------------------------------- Iteration    1(   3)  ---------------------------------------


     EDDAV:  cpu time   76.6753: real time   76.6129
       DOS:  cpu time    0.0000: real time    0.0002
    --------------------------------------------
      LOOP:  cpu time   76.6763: real time   76.6160

 eigenvalue-minimisations  :   124
 total energy-change (2. order) :-0.3389698E+02  (-0.3380502E+02)
 number of electron      16.0000000 magnetization 
 augmentation part       16.0000000 magnetization 

 Free energy of the ion-electron system (eV)
  ---------------------------------------------------
  alpha Z        PSCENC =         0.04144063
  Ewald energy   TEWEN  =       703.16732403
  -Hartree energ DENC   =     -1124.67851550
  -exchange      EXHF   =         0.00000000
  -V(xc)+E(xc)   XCENC  =        51.11410648
  PAW double counting   =       428.37890668     -430.73533574
  entropy T*S    EENTRO =         0.00000000
  eigenvalues    EBANDS =      -256.72749042
  atomic energy  EATOM  =       596.16534815
  Solvation  Ediel_sol  =         0.00000000
  ---------------------------------------------------
  free energy    TOTEN  =       -33.27421568 eV

  energy without entropy =      -33.27421568  energy(sigma->0) =      -33.27421568


--------------------------------------------------------------------------------------------------------




----------------------------------------- Iteration    1(   4)  ---------------------------------------


     EDDAV:  cpu time   79.4759: real time   79.4122
       DOS:  cpu time    0.0000: real time    0.0002
    --------------------------------------------
      LOOP:  cpu time   79.4779: real time   79.4163

 eigenvalue-minimisations  :   128
 total energy-change (2. order) :-0.3474582E+01  (-0.3442098E+01)
 number of electron      16.0000000 magnetization 
 augmentation part       16.0000000 magnetization 

 Free energy of the ion-electron system (eV)
  ---------------------------------------------------
  alpha Z        PSCENC =         0.04144063
  Ewald energy   TEWEN  =       703.16732403
  -Hartree energ DENC   =     -1124.67851550
  -exchange      EXHF   =         0.00000000
  -V(xc)+E(xc)   XCENC  =        51.11410648
  PAW double counting   =       428.37890668     -430.73533574
  entropy T*S    EENTRO =         0.00000000
  eigenvalues    EBANDS =      -260.20207228
  atomic energy  EATOM  =       596.16534815
  Solvation  Ediel_sol  =         0.00000000
  ---------------------------------------------------
  free energy    TOTEN  =       -36.74879754 eV

  energy without entropy =      -36.74879754  energy(sigma->0) =      -36.74879754


--------------------------------------------------------------------------------------------------------




----------------------------------------- Iteration    1(   5)  ---------------------------------------


     EDDAV:  cpu time   81.5906: real time   81.5243
       DOS:  cpu time    0.0000: real time    0.0002
    CHARGE:  cpu time    5.7691: real time    5.7642
    MIXING:  cpu time    0.5949: real time    0.5945
    --------------------------------------------
      LOOP:  cpu time   87.9556: real time   87.8863

 eigenvalue-minimisations  :   132
 total energy-change (2. order) :-0.1119329E+00  (-0.1100256E+00)
 number of electron      15.9999998 magnetization 
 augmentation part        0.4295104 magnetization 

 Broyden mixing:
  rms(total) = 0.10349E+01    rms(broyden)= 0.10327E+01
  rms(prec ) = 0.10652E+01
  weight for this iteration     100.00

 Free energy of the ion-electron system (eV)
  ---------------------------------------------------
  alpha Z        PSCENC =         0.04144063
  Ewald energy   TEWEN  =       703.16732403
  -Hartree energ DENC   =     -1124.67851550
  -exchange      EXHF   =         0.00000000
  -V(xc)+E(xc)   XCENC  =        51.11410648
  PAW double counting   =       428.37890668     -430.73533574
  entropy T*S    EENTRO =         0.00000000
  eigenvalues    EBANDS =      -260.31400514
  atomic energy  EATOM  =       596.16534815
  Solvation  Ediel_sol  =         0.00000000
  ---------------------------------------------------
  free energy    TOTEN  =       -36.86073041 eV

  energy without entropy =      -36.86073041  energy(sigma->0) =      -36.86073041


--------------------------------------------------------------------------------------------------------




----------------------------------------- Iteration    1(   6)  ---------------------------------------


    POTLOK:  cpu time   18.9721: real time   18.9575
    SETDIJ:  cpu time    0.0090: real time    0.0083
     EDDAV:  cpu time   69.2345: real time   69.1778
       DOS:  cpu time    0.0000: real time    0.0002
    CHARGE:  cpu time    5.8441: real time    5.8395
    MIXING:  cpu time    0.6379: real time    0.6375
    --------------------------------------------
      LOOP:  cpu time   94.6986: real time   94.6242

 eigenvalue-minimisations  :   108
 total energy-change (2. order) : 0.2232354E+01  (-0.3512601E+00)
 number of electron      16.0000000 magnetization 
 augmentation part        0.3906436 magnetization 

 Broyden mixing:
  rms(total) = 0.55832E+00    rms(broyden)= 0.55817E+00
  rms(prec ) = 0.57243E+00
  weight for this iteration     100.00

 eigenvalues of (default mixing * dielectric matrix)
  average eigenvalue GAMMA=   1.6690
  1.6690

 Free energy of the ion-electron system (eV)
  ---------------------------------------------------
  alpha Z        PSCENC =         0.04144063
  Ewald energy   TEWEN  =       703.16732403
  -Hartree energ DENC   =     -1150.42462200
  -exchange      EXHF   =         0.00000000
  -V(xc)+E(xc)   XCENC  =        52.59428930
  PAW double counting   =       673.02729414     -675.62828997
  entropy T*S    EENTRO =         0.00000000
  eigenvalues    EBANDS =      -233.57116036
  atomic energy  EATOM  =       596.16534815
  Solvation  Ediel_sol  =         0.00000000
  ---------------------------------------------------
  free energy    TOTEN  =       -34.62837607 eV

  energy without entropy =      -34.62837607  energy(sigma->0) =      -34.62837607


--------------------------------------------------------------------------------------------------------




----------------------------------------- Iteration    1(   7)  ---------------------------------------


    POTLOK:  cpu time   19.0621: real time   19.0471
    SETDIJ:  cpu time    0.0080: real time    0.0083
     EDDAV:  cpu time   72.7719: real time   72.7118
       DOS:  cpu time    0.0000: real time    0.0002
    CHARGE:  cpu time    5.7201: real time    5.7165
    MIXING:  cpu time    0.7379: real time    0.7366
    --------------------------------------------
      LOOP:  cpu time   98.3021: real time   98.2238

 eigenvalue-minimisations  :   116
 total energy-change (2. order) : 0.5978661E+00  (-0.1479346E+00)
 number of electron      15.9999999 magnetization 
 augmentation part        0.3821900 magnetization 

 Broyden mixing:
  rms(total) = 0.20343E+00    rms(broyden)= 0.20337E+00
  rms(prec ) = 0.20839E+00
  weight for this iteration     100.00

 eigenvalues of (default mixing * dielectric matrix)
  average eigenvalue GAMMA=   1.5860
  1.0489  2.1230

 Free energy of the ion-electron system (eV)
  ---------------------------------------------------
  alpha Z        PSCENC =         0.04144063
  Ewald energy   TEWEN  =       703.16732403
  -Hartree energ DENC   =     -1169.45592005
  -exchange      EXHF   =         0.00000000
  -V(xc)+E(xc)   XCENC  =        53.78351343
  PAW double counting   =       986.95284378     -989.68575553
  entropy T*S    EENTRO =         0.00000000
  eigenvalues    EBANDS =      -214.99930446
  atomic energy  EATOM  =       596.16534815
  Solvation  Ediel_sol  =         0.00000000
  ---------------------------------------------------
  free energy    TOTEN  =       -34.03051002 eV

  energy without entropy =      -34.03051002  energy(sigma->0) =      -34.03051002


--------------------------------------------------------------------------------------------------------




----------------------------------------- Iteration    1(   8)  ---------------------------------------


    POTLOK:  cpu time   19.4031: real time   19.3876
    SETDIJ:  cpu time    0.0080: real time    0.0081
     EDDAV:  cpu time   78.8680: real time   78.8026
       DOS:  cpu time    0.0000: real time    0.0002
    CHARGE:  cpu time    5.7111: real time    5.7069
    MIXING:  cpu time    0.7539: real time    0.7525
    --------------------------------------------
      LOOP:  cpu time  104.7451: real time  104.6618

 eigenvalue-minimisations  :   128
 total energy-change (2. order) : 0.5861296E-01  (-0.1078739E-01)
 number of electron      16.0000000 magnetization 
 augmentation part        0.3749882 magnetization 

 Broyden mixing:
  rms(total) = 0.76181E-01    rms(broyden)= 0.76162E-01
  rms(prec ) = 0.79830E-01
  weight for this iteration     100.00

 eigenvalues of (default mixing * dielectric matrix)
  average eigenvalue GAMMA=   1.5920
  2.3405  0.8405  1.5948

 Free energy of the ion-electron system (eV)
  ---------------------------------------------------
  alpha Z        PSCENC =         0.04144063
  Ewald energy   TEWEN  =       703.16732403
  -Hartree energ DENC   =     -1175.25299260
  -exchange      EXHF   =         0.00000000
  -V(xc)+E(xc)   XCENC  =        54.16533153
  PAW double counting   =      1126.09922828    -1128.83932880
  entropy T*S    EENTRO =         0.00000000
  eigenvalues    EBANDS =      -209.51824828
  atomic energy  EATOM  =       596.16534815
  Solvation  Ediel_sol  =         0.00000000
  ---------------------------------------------------
  free energy    TOTEN  =       -33.97189706 eV

  energy without entropy =      -33.97189706  energy(sigma->0) =      -33.97189706


--------------------------------------------------------------------------------------------------------




----------------------------------------- Iteration    1(   9)  ---------------------------------------


    POTLOK:  cpu time   19.5160: real time   19.5013
    SETDIJ:  cpu time    0.0080: real time    0.0081
     EDDAV:  cpu time   78.8030: real time   78.7371
       DOS:  cpu time    0.0000: real time    0.0002
    CHARGE:  cpu time    5.8251: real time    5.8209
    MIXING:  cpu time    0.7469: real time    0.7461
    --------------------------------------------
      LOOP:  cpu time  104.9001: real time  104.8172

 eigenvalue-minimisations  :   128
 total energy-change (2. order) : 0.1406233E-01  (-0.1963495E-02)
 number of electron      16.0000000 magnetization 
 augmentation part        0.3755113 magnetization 

 Broyden mixing:
  rms(total) = 0.21233E-01    rms(broyden)= 0.21224E-01
  rms(prec ) = 0.25988E-01
  weight for this iteration     100.00

 eigenvalues of (default mixing * dielectric matrix)
  average eigenvalue GAMMA=   1.5017
  2.2430  1.8007  0.9211  1.0420

 Free energy of the ion-electron system (eV)
  ---------------------------------------------------
  alpha Z        PSCENC =         0.04144063
  Ewald energy   TEWEN  =       703.16732403
  -Hartree energ DENC   =     -1176.56852657
  -exchange      EXHF   =         0.00000000
  -V(xc)+E(xc)   XCENC  =        54.23411068
  PAW double counting   =      1171.52210202    -1174.23492620
  entropy T*S    EENTRO =         0.00000000
  eigenvalues    EBANDS =      -208.28470748
  atomic energy  EATOM  =       596.16534815
  Solvation  Ediel_sol  =         0.00000000
  ---------------------------------------------------
  free energy    TOTEN  =       -33.95783473 eV

  energy without entropy =      -33.95783473  energy(sigma->0) =      -33.95783473


--------------------------------------------------------------------------------------------------------




----------------------------------------- Iteration    1(  10)  ---------------------------------------


    POTLOK:  cpu time   19.4510: real time   19.4355
    SETDIJ:  cpu time    0.0080: real time    0.0085
     EDDAV:  cpu time   78.7810: real time   78.7161
       DOS:  cpu time    0.0000: real time    0.0002
    CHARGE:  cpu time    5.7151: real time    5.7111
    MIXING:  cpu time    0.8469: real time    0.8460
    --------------------------------------------
      LOOP:  cpu time  104.8041: real time  104.7211

 eigenvalue-minimisations  :   128
 total energy-change (2. order) : 0.4202992E-03  (-0.2855354E-03)
 number of electron      15.9999999 magnetization 
 augmentation part        0.3763582 magnetization 

 Broyden mixing:
  rms(total) = 0.11553E-01    rms(broyden)= 0.11549E-01
  rms(prec ) = 0.16518E-01
  weight for this iteration     100.00

 eigenvalues of (default mixing * dielectric matrix)
  average eigenvalue GAMMA=   1.4981
  2.1434  2.1434  1.4069  0.8985  0.8985

 Free energy of the ion-electron system (eV)
  ---------------------------------------------------
  alpha Z        PSCENC =         0.04144063
  Ewald energy   TEWEN  =       703.16732403
  -Hartree energ DENC   =     -1177.37648056
  -exchange      EXHF   =         0.00000000
  -V(xc)+E(xc)   XCENC  =        54.24757708
  PAW double counting   =      1168.95402723    -1171.66227737
  entropy T*S    EENTRO =         0.00000000
  eigenvalues    EBANDS =      -207.49437362
  atomic energy  EATOM  =       596.16534815
  Solvation  Ediel_sol  =         0.00000000
  ---------------------------------------------------
  free energy    TOTEN  =       -33.95741444 eV

  energy without entropy =      -33.95741444  energy(sigma->0) =      -33.95741444


--------------------------------------------------------------------------------------------------------




----------------------------------------- Iteration    1(  11)  ---------------------------------------


    POTLOK:  cpu time   19.5410: real time   19.5256
    SETDIJ:  cpu time    0.0080: real time    0.0082
     EDDAV:  cpu time   78.7760: real time   78.7118
       DOS:  cpu time    0.0000: real time    0.0002
    CHARGE:  cpu time    5.5542: real time    5.5507
    MIXING:  cpu time    0.8689: real time    0.8672
    --------------------------------------------
      LOOP:  cpu time  104.7501: real time  104.6674

 eigenvalue-minimisations  :   128
 total energy-change (2. order) :-0.1329269E-02  (-0.1205041E-03)
 number of electron      15.9999999 magnetization 
 augmentation part        0.3758553 magnetization 

 Broyden mixing:
  rms(total) = 0.74084E-02    rms(broyden)= 0.74072E-02
  rms(prec ) = 0.11485E-01
  weight for this iteration     100.00

 eigenvalues of (default mixing * dielectric matrix)
  average eigenvalue GAMMA=   1.6886
  3.1191  2.4773  1.3239  1.3239  0.9436  0.9436

 Free energy of the ion-electron system (eV)
  ---------------------------------------------------
  alpha Z        PSCENC =         0.04144063
  Ewald energy   TEWEN  =       703.16732403
  -Hartree energ DENC   =     -1178.45624644
  -exchange      EXHF   =         0.00000000
  -V(xc)+E(xc)   XCENC  =        54.27660432
  PAW double counting   =      1166.16330909    -1168.87072894
  entropy T*S    EENTRO =         0.00000000
  eigenvalues    EBANDS =      -206.44579454
  atomic energy  EATOM  =       596.16534815
  Solvation  Ediel_sol  =         0.00000000
  ---------------------------------------------------
  free energy    TOTEN  =       -33.95874370 eV

  energy without entropy =      -33.95874370  energy(sigma->0) =      -33.95874370


--------------------------------------------------------------------------------------------------------




----------------------------------------- Iteration    1(  12)  ---------------------------------------


    POTLOK:  cpu time   19.4690: real time   19.4540
    SETDIJ:  cpu time    0.0090: real time    0.0084
     EDDAV:  cpu time   79.1150: real time   79.0504
       DOS:  cpu time    0.0000: real time    0.0002
    CHARGE:  cpu time    5.8251: real time    5.8210
    MIXING:  cpu time    0.9599: real time    0.9593
    --------------------------------------------
      LOOP:  cpu time  105.3800: real time  105.2967

 eigenvalue-minimisations  :   128
 total energy-change (2. order) :-0.4365733E-02  (-0.2182815E-03)
 number of electron      15.9999999 magnetization 
 augmentation part        0.3755762 magnetization 

 Broyden mixing:
  rms(total) = 0.38710E-02    rms(broyden)= 0.38683E-02
  rms(prec ) = 0.60398E-02
  weight for this iteration     100.00

 eigenvalues of (default mixing * dielectric matrix)
  average eigenvalue GAMMA=   1.8204
  3.8851  2.2065  2.2065  0.9305  0.9305  1.4224  1.1613

 Free energy of the ion-electron system (eV)
  ---------------------------------------------------
  alpha Z        PSCENC =         0.04144063
  Ewald energy   TEWEN  =       703.16732403
  -Hartree energ DENC   =     -1179.89465396
  -exchange      EXHF   =         0.00000000
  -V(xc)+E(xc)   XCENC  =        54.30842233
  PAW double counting   =      1162.57490930    -1165.27894226
  entropy T*S    EENTRO =         0.00000000
  eigenvalues    EBANDS =      -205.04695766
  atomic energy  EATOM  =       596.16534815
  Solvation  Ediel_sol  =         0.00000000
  ---------------------------------------------------
  free energy    TOTEN  =       -33.96310944 eV

  energy without entropy =      -33.96310944  energy(sigma->0) =      -33.96310944


--------------------------------------------------------------------------------------------------------




----------------------------------------- Iteration    1(  13)  ---------------------------------------


    POTLOK:  cpu time   18.8251: real time   18.8092
    SETDIJ:  cpu time    0.0080: real time    0.0083
     EDDAV:  cpu time   95.3745: real time   95.2972
       DOS:  cpu time    0.0000: real time    0.0002
    CHARGE:  cpu time    5.6941: real time    5.6898
    MIXING:  cpu time    0.9898: real time    0.9894
    --------------------------------------------
      LOOP:  cpu time  120.8936: real time  120.7979

 eigenvalue-minimisations  :   160
 total energy-change (2. order) :-0.5742696E-02  (-0.1271320E-03)
 number of electron      15.9999999 magnetization 
 augmentation part        0.3753727 magnetization 

 Broyden mixing:
  rms(total) = 0.25458E-02    rms(broyden)= 0.25439E-02
  rms(prec ) = 0.36574E-02
  weight for this iteration     100.00

 eigenvalues of (default mixing * dielectric matrix)
  average eigenvalue GAMMA=   1.8913
  4.8330  2.6141  2.2110  1.4988  1.2622  0.9429  0.9429  0.8256

 Free energy of the ion-electron system (eV)
  ---------------------------------------------------
  alpha Z        PSCENC =         0.04144063
  Ewald energy   TEWEN  =       703.16732403
  -Hartree energ DENC   =     -1180.55285279
  -exchange      EXHF   =         0.00000000
  -V(xc)+E(xc)   XCENC  =        54.31690904
  PAW double counting   =      1162.10204627    -1164.80679215
  entropy T*S    EENTRO =         0.00000000
  eigenvalues    EBANDS =      -204.40227532
  atomic energy  EATOM  =       596.16534815
  Solvation  Ediel_sol  =         0.00000000
  ---------------------------------------------------
  free energy    TOTEN  =       -33.96885213 eV

  energy without entropy =      -33.96885213  energy(sigma->0) =      -33.96885213


--------------------------------------------------------------------------------------------------------




----------------------------------------- Iteration    1(  14)  ---------------------------------------


    POTLOK:  cpu time   19.0021: real time   18.9864
    SETDIJ:  cpu time    0.0080: real time    0.0085
     EDDAV:  cpu time   79.5189: real time   79.4533
       DOS:  cpu time    0.0000: real time    0.0002
    CHARGE:  cpu time    5.7881: real time    5.7842
    MIXING:  cpu time    1.0778: real time    1.0768
    --------------------------------------------
      LOOP:  cpu time  105.3970: real time  105.3128

 eigenvalue-minimisations  :   128
 total energy-change (2. order) :-0.2967710E-02  (-0.2843155E-04)
 number of electron      15.9999999 magnetization 
 augmentation part        0.3753661 magnetization 

 Broyden mixing:
  rms(total) = 0.14538E-02    rms(broyden)= 0.14536E-02
  rms(prec ) = 0.21693E-02
  weight for this iteration     100.00

 eigenvalues of (default mixing * dielectric matrix)
  average eigenvalue GAMMA=   1.9157
  5.1143  2.8260  2.2795  1.7664  1.2795  1.2795  0.9290  0.9290  0.8386

 Free energy of the ion-electron system (eV)
  ---------------------------------------------------
  alpha Z        PSCENC =         0.04144063
  Ewald energy   TEWEN  =       703.16732403
  -Hartree energ DENC   =     -1180.73373686
  -exchange      EXHF   =         0.00000000
  -V(xc)+E(xc)   XCENC  =        54.31195326
  PAW double counting   =      1160.71208393    -1163.41642510
  entropy T*S    EENTRO =         0.00000000
  eigenvalues    EBANDS =      -204.21980788
  atomic energy  EATOM  =       596.16534815
  Solvation  Ediel_sol  =         0.00000000
  ---------------------------------------------------
  free energy    TOTEN  =       -33.97181984 eV

  energy without entropy =      -33.97181984  energy(sigma->0) =      -33.97181984


--------------------------------------------------------------------------------------------------------




----------------------------------------- Iteration    1(  15)  ---------------------------------------


    POTLOK:  cpu time   19.2981: real time   19.2833
    SETDIJ:  cpu time    0.0090: real time    0.0087
     EDDAV:  cpu time   71.5201: real time   71.4612
       DOS:  cpu time    0.0000: real time    0.0002
    CHARGE:  cpu time    5.8371: real time    5.8328
    MIXING:  cpu time    1.1518: real time    1.1516
    --------------------------------------------
      LOOP:  cpu time   97.8181: real time   97.7412

 eigenvalue-minimisations  :   112
 total energy-change (2. order) :-0.2126152E-02  (-0.1536217E-04)
 number of electron      15.9999999 magnetization 
 augmentation part        0.3753439 magnetization 

 Broyden mixing:
  rms(total) = 0.86986E-03    rms(broyden)= 0.86971E-03
  rms(prec ) = 0.13688E-02
  weight for this iteration     100.00

 eigenvalues of (default mixing * dielectric matrix)
  average eigenvalue GAMMA=   2.0850
  6.6482  3.3680  2.3487  1.9730  1.5309  1.2918  0.9631  0.9631  0.8816  0.8816

 Free energy of the ion-electron system (eV)
  ---------------------------------------------------
  alpha Z        PSCENC =         0.04144063
  Ewald energy   TEWEN  =       703.16732403
  -Hartree energ DENC   =     -1180.78287555
  -exchange      EXHF   =         0.00000000
  -V(xc)+E(xc)   XCENC  =        54.30861352
  PAW double counting   =      1161.22200959    -1163.92623395
  entropy T*S    EENTRO =         0.00000000
  eigenvalues    EBANDS =      -204.16957242
  atomic energy  EATOM  =       596.16534815
  Solvation  Ediel_sol  =         0.00000000
  ---------------------------------------------------
  free energy    TOTEN  =       -33.97394600 eV

  energy without entropy =      -33.97394600  energy(sigma->0) =      -33.97394600


--------------------------------------------------------------------------------------------------------




----------------------------------------- Iteration    1(  16)  ---------------------------------------


    POTLOK:  cpu time   19.4490: real time   19.4336
    SETDIJ:  cpu time    0.0080: real time    0.0083
     EDDAV:  cpu time   79.6819: real time   79.6162
       DOS:  cpu time    0.0000: real time    0.0002
    CHARGE:  cpu time    5.7741: real time    5.7698
    MIXING:  cpu time    1.2568: real time    1.2551
    --------------------------------------------
      LOOP:  cpu time  106.1719: real time  106.0870

 eigenvalue-minimisations  :   128
 total energy-change (2. order) :-0.1629083E-02  (-0.1501072E-04)
 number of electron      15.9999999 magnetization 
 augmentation part        0.3753360 magnetization 

 Broyden mixing:
  rms(total) = 0.49521E-03    rms(broyden)= 0.49499E-03
  rms(prec ) = 0.72595E-03
  weight for this iteration     100.00

 eigenvalues of (default mixing * dielectric matrix)
  average eigenvalue GAMMA=   2.2238
  7.4106  3.8865  2.6441  2.4580  1.5350  1.4227  1.4227  0.9590  0.9590  0.9231
  0.8409

 Free energy of the ion-electron system (eV)
  ---------------------------------------------------
  alpha Z        PSCENC =         0.04144063
  Ewald energy   TEWEN  =       703.16732403
  -Hartree energ DENC   =     -1180.85501993
  -exchange      EXHF   =         0.00000000
  -V(xc)+E(xc)   XCENC  =        54.30645720
  PAW double counting   =      1161.27147178    -1163.97574842
  entropy T*S    EENTRO =         0.00000000
  eigenvalues    EBANDS =      -204.09684852
  atomic energy  EATOM  =       596.16534815
  Solvation  Ediel_sol  =         0.00000000
  ---------------------------------------------------
  free energy    TOTEN  =       -33.97557508 eV

  energy without entropy =      -33.97557508  energy(sigma->0) =      -33.97557508


--------------------------------------------------------------------------------------------------------




----------------------------------------- Iteration    1(  17)  ---------------------------------------


    POTLOK:  cpu time   19.6070: real time   19.5911
    SETDIJ:  cpu time    0.0080: real time    0.0084
     EDDAV:  cpu time   64.3922: real time   64.3400
       DOS:  cpu time    0.0000: real time    0.0002
    CHARGE:  cpu time    5.8331: real time    5.8276
    MIXING:  cpu time    1.2468: real time    1.2466
    --------------------------------------------
      LOOP:  cpu time   91.0892: real time   92.1310

 eigenvalue-minimisations  :    96
 total energy-change (2. order) :-0.8730424E-03  (-0.4527255E-05)
 number of electron      15.9999999 magnetization 
 augmentation part        0.3753357 magnetization 

 Broyden mixing:
  rms(total) = 0.28986E-03    rms(broyden)= 0.28975E-03
  rms(prec ) = 0.38001E-03
  weight for this iteration     100.00

 eigenvalues of (default mixing * dielectric matrix)
  average eigenvalue GAMMA=   2.2448
  7.8753  4.3766  2.8015  2.3357  1.8724  1.6462  1.2638  1.0038  1.0038  0.9634
  0.9634  0.8311

 Free energy of the ion-electron system (eV)
  ---------------------------------------------------
  alpha Z        PSCENC =         0.04144063
  Ewald energy   TEWEN  =       703.16732403
  -Hartree energ DENC   =     -1180.85842919
  -exchange      EXHF   =         0.00000000
  -V(xc)+E(xc)   XCENC  =        54.30482156
  PAW double counting   =      1161.29354325    -1163.99774634
  entropy T*S    EENTRO =         0.00000000
  eigenvalues    EBANDS =      -204.09275022
  atomic energy  EATOM  =       596.16534815
  Solvation  Ediel_sol  =         0.00000000
  ---------------------------------------------------
  free energy    TOTEN  =       -33.97644812 eV

  energy without entropy =      -33.97644812  energy(sigma->0) =      -33.97644812


--------------------------------------------------------------------------------------------------------




----------------------------------------- Iteration    1(  18)  ---------------------------------------


    POTLOK:  cpu time   19.6560: real time   19.6396
    SETDIJ:  cpu time    0.0080: real time    0.0085
     EDDAV:  cpu time   64.5132: real time   64.4605
       DOS:  cpu time    0.0000: real time    0.0002
    CHARGE:  cpu time    5.7461: real time    5.7415
    MIXING:  cpu time    1.4118: real time    1.4108
    --------------------------------------------
      LOOP:  cpu time   91.3371: real time   91.2645

 eigenvalue-minimisations  :    96
 total energy-change (2. order) :-0.2130058E-03  (-0.1696866E-05)
 number of electron      15.9999999 magnetization 
 augmentation part        0.3753353 magnetization 

 Broyden mixing:
  rms(total) = 0.17679E-03    rms(broyden)= 0.17677E-03
  rms(prec ) = 0.23697E-03
  weight for this iteration     100.00

 eigenvalues of (default mixing * dielectric matrix)
  average eigenvalue GAMMA=   2.2988
  8.1885  5.1079  2.6719  2.6719  2.1930  1.5412  1.3790  1.3790  1.0915  0.9523
  0.9523  0.9138  0.8415

 Free energy of the ion-electron system (eV)
  ---------------------------------------------------
  alpha Z        PSCENC =         0.04144063
  Ewald energy   TEWEN  =       703.16732403
  -Hartree energ DENC   =     -1180.85781543
  -exchange      EXHF   =         0.00000000
  -V(xc)+E(xc)   XCENC  =        54.30445778
  PAW double counting   =      1161.35461719    -1164.05880406
  entropy T*S    EENTRO =         0.00000000
  eigenvalues    EBANDS =      -204.09322941
  atomic energy  EATOM  =       596.16534815
  Solvation  Ediel_sol  =         0.00000000
  ---------------------------------------------------
  free energy    TOTEN  =       -33.97666113 eV

  energy without entropy =      -33.97666113  energy(sigma->0) =      -33.97666113


--------------------------------------------------------------------------------------------------------




----------------------------------------- Iteration    1(  19)  ---------------------------------------


    POTLOK:  cpu time   19.6370: real time   19.6218
    SETDIJ:  cpu time    0.0090: real time    0.0083
     EDDAV:  cpu time   64.7842: real time   64.7324
       DOS:  cpu time    0.0000: real time    0.0002
    CHARGE:  cpu time    5.7251: real time    5.7204
    MIXING:  cpu time    1.4218: real time    1.4212
    --------------------------------------------
      LOOP:  cpu time   91.5801: real time   91.9730

 eigenvalue-minimisations  :    96
 total energy-change (2. order) :-0.1469355E-03  (-0.8356152E-06)
 number of electron      15.9999999 magnetization 
 augmentation part        0.3753252 magnetization 

 Broyden mixing:
  rms(total) = 0.87809E-04    rms(broyden)= 0.87768E-04
  rms(prec ) = 0.12462E-03
  weight for this iteration     100.00

 eigenvalues of (default mixing * dielectric matrix)
  average eigenvalue GAMMA=   2.3513
  8.7573  5.2235  3.5691  2.5492  2.0197  2.0197  1.5880  1.2575  1.2575  0.9510
  0.9510  1.0347  0.9066  0.8339

 Free energy of the ion-electron system (eV)
  ---------------------------------------------------
  alpha Z        PSCENC =         0.04144063
  Ewald energy   TEWEN  =       703.16732403
  -Hartree energ DENC   =     -1180.85332257
  -exchange      EXHF   =         0.00000000
  -V(xc)+E(xc)   XCENC  =        54.30404465
  PAW double counting   =      1161.28346494    -1163.98767576
  entropy T*S    EENTRO =         0.00000000
  eigenvalues    EBANDS =      -204.09743213
  atomic energy  EATOM  =       596.16534815
  Solvation  Ediel_sol  =         0.00000000
  ---------------------------------------------------
  free energy    TOTEN  =       -33.97680806 eV

  energy without entropy =      -33.97680806  energy(sigma->0) =      -33.97680806


--------------------------------------------------------------------------------------------------------




----------------------------------------- Iteration    1(  20)  ---------------------------------------


    POTLOK:  cpu time   19.6860: real time   19.6706
    SETDIJ:  cpu time    0.0080: real time    0.0084
     EDDAV:  cpu time   63.3674: real time   63.3142
       DOS:  cpu time    0.0000: real time    0.0002
    --------------------------------------------
      LOOP:  cpu time   83.0624: real time   82.9975

 eigenvalue-minimisations  :    96
 total energy-change (2. order) :-0.7537986E-04  (-0.3191785E-06)
 number of electron      15.9999999 magnetization 
 augmentation part        0.3753252 magnetization 

 Free energy of the ion-electron system (eV)
  ---------------------------------------------------
  alpha Z        PSCENC =         0.04144063
  Ewald energy   TEWEN  =       703.16732403
  -Hartree energ DENC   =     -1180.85765078
  -exchange      EXHF   =         0.00000000
  -V(xc)+E(xc)   XCENC  =        54.30399369
  PAW double counting   =      1161.22572719    -1163.92991660
  entropy T*S    EENTRO =         0.00000000
  eigenvalues    EBANDS =      -204.09314976
  atomic energy  EATOM  =       596.16534815
  Solvation  Ediel_sol  =         0.00000000
  ---------------------------------------------------
  free energy    TOTEN  =       -33.97688344 eV

  energy without entropy =      -33.97688344  energy(sigma->0) =      -33.97688344


--------------------------------------------------------------------------------------------------------




 average (electrostatic) potential at core
  the test charge radii are     0.5201  0.6991  0.7089
  (the norm of the test charge is              1.0000)
       1 -43.1352       2 -43.1313       3 -43.2693       4 -60.7360       5 -59.9106
       6 -74.3204
 
 
 
 E-fermi :  -6.3506     XC(G=0):  -0.0890     alpha+bet : -0.0137


 k-point     1 :       0.2500    0.2500    0.2500
  band No.  band energies     occupation 
      1     -24.1477      2.00000
      2     -17.8196      2.00000
      3     -12.5659      2.00000
      4     -11.6311      2.00000
      5     -10.8822      2.00000
      6      -9.4187      2.00000
      7      -8.3119      2.00000
      8      -7.2695      2.00000
      9      -1.2666      0.00000
     10      -1.0283      0.00000
     11      -0.9763      0.00000
     12      -0.2654      0.00000

 k-point     2 :      -0.2500    0.2500    0.2500
  band No.  band energies     occupation 
      1     -24.1477      2.00000
      2     -17.8196      2.00000
      3     -12.5659      2.00000
      4     -11.6311      2.00000
      5     -10.8822      2.00000
      6      -9.4187      2.00000
      7      -8.3119      2.00000
      8      -7.2695      2.00000
      9      -1.2666      0.00000
     10      -1.0283      0.00000
     11      -0.9763      0.00000
     12      -0.2655      0.00000

 k-point     3 :       0.2500   -0.2500    0.2500
  band No.  band energies     occupation 
      1     -24.1477      2.00000
      2     -17.8196      2.00000
      3     -12.5659      2.00000
      4     -11.6311      2.00000
      5     -10.8822      2.00000
      6      -9.4187      2.00000
      7      -8.3119      2.00000
      8      -7.2695      2.00000
      9      -1.2666      0.00000
     10      -1.0283      0.00000
     11      -0.9763      0.00000
     12      -0.2654      0.00000

 k-point     4 :      -0.2500   -0.2500    0.2500
  band No.  band energies     occupation 
      1     -24.1477      2.00000
      2     -17.8196      2.00000
      3     -12.5659      2.00000
      4     -11.6311      2.00000
      5     -10.8822      2.00000
      6      -9.4187      2.00000
      7      -8.3119      2.00000
      8      -7.2695      2.00000
      9      -1.2666      0.00000
     10      -1.0283      0.00000
     11      -0.9763      0.00000
     12      -0.2654      0.00000


--------------------------------------------------------------------------------------------------------


 soft charge-density along one line, spin component           1
         0         1         2         3         4         5         6         7         8         9
 total charge-density along one line
 
 pseudopotential strength for first ion, spin component:           1
 -2.363  -4.076  -0.002   0.000   0.000
 -4.076  -6.945  -0.006   0.000  -0.001
 -0.002  -0.006  -0.329   0.000   0.001
  0.000   0.000   0.000  -0.334   0.000
  0.000  -0.001   0.001   0.000  -0.333
 total augmentation occupancy for first ion, spin component:           1
  3.550  -0.644   0.446   0.034   0.093
 -0.644   0.133  -0.082  -0.006  -0.018
  0.446  -0.082   0.057   0.004   0.010
  0.034  -0.006   0.004   0.009   0.000
  0.093  -0.018   0.010   0.000   0.009


------------------------ aborting loop because EDIFF is reached ----------------------------------------


    CHARGE:  cpu time    5.7251: real time    5.7209
    FORLOC:  cpu time    2.7976: real time    2.7958
    FORNL :  cpu time   18.9921: real time   18.9762
    STRESS:  cpu time   58.2721: real time   58.2259
    FORCOR:  cpu time   21.0758: real time   21.0579
    FORHAR:  cpu time    7.3399: real time    7.3334
    MIXING:  cpu time    1.4388: real time    1.4373
    OFIELD:  cpu time    0.0000: real time    0.0000

  FORCE on cell =-STRESS in cart. coord.  units (eV):
  Direction    XX          YY          ZZ          XY          YZ          ZX
  --------------------------------------------------------------------------------------
  Alpha Z     0.04144     0.04144     0.04144
  Ewald     334.83091    89.56992   278.76639    36.95534    93.61120   -29.72021
  Hartree   484.32247   309.81464   386.71946    24.82491    37.30121   -19.39690
  E(xc)     -59.15787   -59.45100   -58.79424     0.05171     0.32814    -0.05632
  Local    -978.69129  -571.03267  -824.92172   -59.89213  -124.83999    47.53142
  n-local   -15.19703   -21.76605   -27.42905     0.67484    -2.95615    -0.59644
  augment     0.31047     0.77671     0.87961    -0.06169     0.05398     0.03685
  Kinetic   232.55183   251.01080   243.91181    -2.75491    -3.50933     1.71616
  Fock        0.00000     0.00000     0.00000     0.00000     0.00000     0.00000
  -------------------------------------------------------------------------------------
  Total      -0.98908    -1.03621    -0.82630    -0.20193    -0.01094    -0.48544
  in kB      -0.05869    -0.06149    -0.04903    -0.01198    -0.00065    -0.02881
  external pressure =       -0.06 kB  Pullay stress =        0.00 kB


 VOLUME and BASIS-vectors are now :
 -----------------------------------------------------------------------------
  energy-cutoff  :      400.00
  volume of cell :    27000.00
      direct lattice vectors                 reciprocal lattice vectors
    30.000000000  0.000000000  0.000000000     0.033333333  0.000000000  0.000000000
     0.000000000 30.000000000  0.000000000     0.000000000  0.033333333  0.000000000
     0.000000000  0.000000000 30.000000000     0.000000000  0.000000000  0.033333333

  length of vectors
    30.000000000 30.000000000 30.000000000     0.033333333  0.033333333  0.033333333


 FORCES acting on ions
    electron-ion (+dipol)            ewald-force                    non-local-force                 convergence-correction
 -----------------------------------------------------------------------------------------------
   0.266E+02 0.614E+02 0.213E+01   -.278E+02 -.671E+02 -.254E+01   0.119E+01 0.571E+01 0.445E+00   -.325E-04 -.119E-03 0.214E-04
   0.425E+02 -.318E+02 0.408E+02   -.451E+02 0.350E+02 -.449E+02   0.269E+01 -.315E+01 0.413E+01   -.676E-04 0.842E-04 -.642E-04
   0.310E+02 -.184E+02 -.570E+02   -.325E+02 0.204E+02 0.624E+02   0.131E+01 -.198E+01 -.532E+01   0.172E-04 0.554E-04 0.129E-03
   0.101E+03 0.140E+02 -.731E+01   -.108E+03 -.151E+02 0.790E+01   0.762E+01 0.109E+01 -.477E+00   0.211E-03 0.147E-03 0.267E-03
   -.791E+02 0.707E+02 0.200E+03   0.843E+02 -.785E+02 -.221E+03   -.501E+01 0.782E+01 0.206E+02   0.387E-03 0.430E-03 0.861E-03
   -.118E+03 -.906E+02 -.168E+03   0.129E+03 0.105E+03 0.198E+03   -.118E+02 -.149E+02 -.305E+02   0.635E-03 0.335E-03 0.528E-03
 -----------------------------------------------------------------------------------------------
   0.402E+01 0.539E+01 0.111E+02   -.284E-13 0.142E-13 0.284E-13   -.402E+01 -.538E+01 -.111E+02   0.115E-02 0.932E-03 0.174E-02
 
 
 POSITION                                       TOTAL-FORCE (eV/Angst)
 -----------------------------------------------------------------------------------
     14.39071     13.89285     14.98926         0.063764      0.036912      0.029135
     14.10809     15.55694     14.29811         0.064855      0.013340      0.039888
     14.35249     15.33157     16.06403        -0.114517      0.009511      0.071279
     14.60786     14.96205     15.06805         0.021477      0.049304      0.109224
     16.26776     14.89372     14.23313         0.256013     -0.021076     -0.163418
     16.27339     15.36345     15.34742        -0.291592     -0.087991     -0.086110
 -----------------------------------------------------------------------------------
    total drift:                               -0.005156      0.009980      0.006774


--------------------------------------------------------------------------------------------------------



  FREE ENERGIE OF THE ION-ELECTRON SYSTEM (eV)
  ---------------------------------------------------
  free  energy   TOTEN  =       -33.97688344 eV

  energy  without entropy=      -33.97688344  energy(sigma->0) =      -33.97688344
 


--------------------------------------------------------------------------------------------------------


    POTLOK:  cpu time   18.3382: real time   18.3240


--------------------------------------------------------------------------------------------------------


 NEB: the previous image is higher in energy: F
 NEB: the next image is higher in energy    : F
 NEB: image is at an extrema
 NEB: diff energy (min, max):     0.227621    0.535918

 NEB: Tangent
 ----------------------------------------------
     -0.12762     -0.07364     -0.06248
     -0.13166     -0.03238     -0.08062
      0.20877     -0.02475     -0.14488
     -0.04397     -0.09988     -0.21789
     -0.52055      0.05456      0.33591
      0.61502      0.17609      0.16995

 NEB: forces: par spring, perp REAL, dneb     0.161802    0.017582    0.000000
 NEB: distance to prev, next image, angle between     0.390060    0.357699  149.623324
 NEB: projections on to tangent (spring, REAL)    -0.161802   -0.487777

 stress matrix after NEB project (eV)
     -0.98908     -0.20193     -0.48544
     -0.20193     -1.03621     -0.01094
     -0.48544     -0.01094     -0.82630
  FORCES: max atom, RMS     0.329360    0.199263
  FORCE total and by dimension    0.488093    0.308395
  Stress total and by dimension    1.813251    1.036207
 
 OPT: Flag T
 OPT: FIRE Step
 OPT: FIRE, TIMESTEP      0.10000
 OPT: FIRE, alpha         0.10000


--------------------------------------------------------------------------------------------------------


    WAVPRE:  cpu time    9.3066: real time    9.2996
 FEWALD executed in parallel
    FEWALD:  cpu time    0.0000: real time    0.0004
    ORTHCH:  cpu time    6.9239: real time    6.9181
     LOOP+:  cpu time 2409.3237: real time 2408.9990


----------------------------------------- Iteration    2(   1)  ---------------------------------------


    POTLOK:  cpu time   19.8820: real time   19.8655
    SETDIJ:  cpu time    0.0090: real time    0.0082
     EDDAV:  cpu time   66.3579: real time   66.3045
       DOS:  cpu time    0.0000: real time    0.0002
    CHARGE:  cpu time    6.2780: real time    6.2735
    MIXING:  cpu time    0.6449: real time    0.6446
    --------------------------------------------
      LOOP:  cpu time   93.1738: real time   93.0989

 eigenvalue-minimisations  :    96
 total energy-change (2. order) : 0.2262620E-02  (-0.5169124E-02)
 number of electron      15.9999999 magnetization 
 augmentation part        0.3752230 magnetization 

 Broyden mixing:
  rms(total) = 0.66447E-02    rms(broyden)= 0.65090E-02
  rms(prec ) = 0.66484E-02
  weight for this iteration     100.00

 Free energy of the ion-electron system (eV)
  ---------------------------------------------------
  alpha Z        PSCENC =         0.04144063
  Ewald energy   TEWEN  =       703.09442774
  -Hartree energ DENC   =     -1180.76410479
  -exchange      EXHF   =         0.00000000
  -V(xc)+E(xc)   XCENC  =        54.30423147
  PAW double counting   =      1161.25936982    -1163.96357043
  entropy T*S    EENTRO =         0.00000000
  eigenvalues    EBANDS =      -204.11168803
  atomic energy  EATOM  =       596.16534815
  Solvation  Ediel_sol  =         0.00000000
  ---------------------------------------------------
  free energy    TOTEN  =       -33.97454544 eV

  energy without entropy =      -33.97454544  energy(sigma->0) =      -33.97454544


--------------------------------------------------------------------------------------------------------




----------------------------------------- Iteration    2(   2)  ---------------------------------------


    POTLOK:  cpu time   19.5280: real time   19.5123
    SETDIJ:  cpu time    0.0080: real time    0.0083
     EDDAV:  cpu time   80.8867: real time   80.8199
       DOS:  cpu time    0.0000: real time    0.0002
    CHARGE:  cpu time    5.8701: real time    5.8654
    MIXING:  cpu time    0.6409: real time    0.6406
    --------------------------------------------
      LOOP:  cpu time  106.9347: real time  106.8502

 eigenvalue-minimisations  :   128
 total energy-change (2. order) : 0.1516972E-04  (-0.8236451E-04)
 number of electron      15.9999999 magnetization 
 augmentation part        0.3754578 magnetization 

 Broyden mixing:
  rms(total) = 0.43629E-02    rms(broyden)= 0.43489E-02
  rms(prec ) = 0.44160E-02
  weight for this iteration     100.00

 eigenvalues of (default mixing * dielectric matrix)
  average eigenvalue GAMMA=   1.1557
  1.1557

 Free energy of the ion-electron system (eV)
  ---------------------------------------------------
  alpha Z        PSCENC =         0.04144063
  Ewald energy   TEWEN  =       703.09442774
  -Hartree energ DENC   =     -1180.74797674
  -exchange      EXHF   =         0.00000000
  -V(xc)+E(xc)   XCENC  =        54.30323770
  PAW double counting   =      1161.25508197    -1163.95926125
  entropy T*S    EENTRO =         0.00000000
  eigenvalues    EBANDS =      -204.12682848
  atomic energy  EATOM  =       596.16534815
  Solvation  Ediel_sol  =         0.00000000
  ---------------------------------------------------
  free energy    TOTEN  =       -33.97453027 eV

  energy without entropy =      -33.97453027  energy(sigma->0) =      -33.97453027


--------------------------------------------------------------------------------------------------------




----------------------------------------- Iteration    2(   3)  ---------------------------------------


    POTLOK:  cpu time   19.2251: real time   19.2095
    SETDIJ:  cpu time    0.0080: real time    0.0083
     EDDAV:  cpu time   64.3882: real time   64.3356
       DOS:  cpu time    0.0000: real time    0.0002
    CHARGE:  cpu time    5.7671: real time    5.7630
    MIXING:  cpu time    0.6789: real time    0.6780
    --------------------------------------------
      LOOP:  cpu time   90.0693: real time   89.9984

 eigenvalue-minimisations  :    96
 total energy-change (2. order) :-0.2075405E-04  (-0.2898639E-05)
 number of electron      15.9999999 magnetization 
 augmentation part        0.3753443 magnetization 

 Broyden mixing:
  rms(total) = 0.22226E-02    rms(broyden)= 0.22214E-02
  rms(prec ) = 0.22481E-02
  weight for this iteration     100.00

 eigenvalues of (default mixing * dielectric matrix)
  average eigenvalue GAMMA=   1.5959
  0.8498  2.3420

 Free energy of the ion-electron system (eV)
  ---------------------------------------------------
  alpha Z        PSCENC =         0.04144063
  Ewald energy   TEWEN  =       703.09442774
  -Hartree energ DENC   =     -1180.76876907
  -exchange      EXHF   =         0.00000000
  -V(xc)+E(xc)   XCENC  =        54.30420120
  PAW double counting   =      1161.41047908    -1164.11479138
  entropy T*S    EENTRO =         0.00000000
  eigenvalues    EBANDS =      -204.10688738
  atomic energy  EATOM  =       596.16534815
  Solvation  Ediel_sol  =         0.00000000
  ---------------------------------------------------
  free energy    TOTEN  =       -33.97455103 eV

  energy without entropy =      -33.97455103  energy(sigma->0) =      -33.97455103


--------------------------------------------------------------------------------------------------------




----------------------------------------- Iteration    2(   4)  ---------------------------------------


    POTLOK:  cpu time   19.2721: real time   19.2573
    SETDIJ:  cpu time    0.0090: real time    0.0085
[...]
  ---------------------------------------------------
  free energy    TOTEN  =       -33.95367926 eV

  energy without entropy =      -33.95367926  energy(sigma->0) =      -33.95367926


--------------------------------------------------------------------------------------------------------




----------------------------------------- Iteration  135(   2)  ---------------------------------------


    POTLOK:  cpu time   24.0963: real time   24.0777
    SETDIJ:  cpu time    0.0090: real time    0.0082
     EDDAV:  cpu time   44.1593: real time   44.1233
       DOS:  cpu time    0.0010: real time    0.0002
    CHARGE:  cpu time    6.8660: real time    6.8612
    MIXING:  cpu time    0.7629: real time    0.7619
    --------------------------------------------
      LOOP:  cpu time   75.8955: real time   75.8361

 eigenvalue-minimisations  :    48
 total energy-change (2. order) : 0.6889422E-09  (-0.3523602E-08)
 number of electron      16.0000003 magnetization 
 augmentation part        0.3745339 magnetization 

 Broyden mixing:
  rms(total) = 0.50993E-05    rms(broyden)= 0.50929E-05
  rms(prec ) = 0.51995E-05
  weight for this iteration     100.00

 eigenvalues of (default mixing * dielectric matrix)
  average eigenvalue GAMMA=   1.5926
  1.5926

 Free energy of the ion-electron system (eV)
  ---------------------------------------------------
  alpha Z        PSCENC =         0.04144063
  Ewald energy   TEWEN  =       702.07997227
  -Hartree energ DENC   =     -1179.81266983
  -exchange      EXHF   =         0.00000000
  -V(xc)+E(xc)   XCENC  =        54.29543214
  PAW double counting   =      1162.20886131    -1164.90638612
  entropy T*S    EENTRO =         0.00000000
  eigenvalues    EBANDS =      -204.02567780
  atomic energy  EATOM  =       596.16534815
  Solvation  Ediel_sol  =         0.00000000
  ---------------------------------------------------
  free energy    TOTEN  =       -33.95367926 eV

  energy without entropy =      -33.95367926  energy(sigma->0) =      -33.95367926


--------------------------------------------------------------------------------------------------------




----------------------------------------- Iteration  135(   3)  ---------------------------------------


    POTLOK:  cpu time   24.5203: real time   24.5009
    SETDIJ:  cpu time    0.0090: real time    0.0090
     EDDAV:  cpu time   43.7713: real time   43.7351
       DOS:  cpu time    0.0000: real time    0.0002
    CHARGE:  cpu time    6.7120: real time    6.7066
    MIXING:  cpu time    0.7539: real time    0.7534
    --------------------------------------------
      LOOP:  cpu time   75.7675: real time   75.7085

 eigenvalue-minimisations  :    48
 total energy-change (2. order) : 0.1912213E-09  (-0.3310924E-08)
 number of electron      16.0000003 magnetization 
 augmentation part        0.3745340 magnetization 

 Broyden mixing:
  rms(total) = 0.21069E-05    rms(broyden)= 0.21052E-05
  rms(prec ) = 0.21273E-05
  weight for this iteration     100.00

 eigenvalues of (default mixing * dielectric matrix)
  average eigenvalue GAMMA=   1.6064
  1.0231  2.1897

 Free energy of the ion-electron system (eV)
  ---------------------------------------------------
  alpha Z        PSCENC =         0.04144063
  Ewald energy   TEWEN  =       702.07997227
  -Hartree energ DENC   =     -1179.81256215
  -exchange      EXHF   =         0.00000000
  -V(xc)+E(xc)   XCENC  =        54.29542635
  PAW double counting   =      1162.20631581    -1164.90383824
  entropy T*S    EENTRO =         0.00000000
  eigenvalues    EBANDS =      -204.02578208
  atomic energy  EATOM  =       596.16534815
  Solvation  Ediel_sol  =         0.00000000
  ---------------------------------------------------
  free energy    TOTEN  =       -33.95367926 eV

  energy without entropy =      -33.95367926  energy(sigma->0) =      -33.95367926


--------------------------------------------------------------------------------------------------------




----------------------------------------- Iteration  135(   4)  ---------------------------------------


    POTLOK:  cpu time   24.4833: real time   24.4631
    SETDIJ:  cpu time    0.0080: real time    0.0085
     EDDAV:  cpu time   42.4086: real time   42.3731
       DOS:  cpu time    0.0000: real time    0.0002
    CHARGE:  cpu time    6.2101: real time    6.2050
    MIXING:  cpu time    0.8379: real time    0.8379
    --------------------------------------------
      LOOP:  cpu time   73.9488: real time   73.8918

 eigenvalue-minimisations  :    48
 total energy-change (2. order) :-0.1432454E-10  (-0.3291791E-08)
 number of electron      16.0000003 magnetization 
 augmentation part        0.3745340 magnetization 

 Broyden mixing:
  rms(total) = 0.10118E-05    rms(broyden)= 0.10112E-05
  rms(prec ) = 0.10277E-05
  weight for this iteration     100.00

 eigenvalues of (default mixing * dielectric matrix)
  average eigenvalue GAMMA=   1.6720
  1.0772  1.9693  1.9693

 Free energy of the ion-electron system (eV)
  ---------------------------------------------------
  alpha Z        PSCENC =         0.04144063
  Ewald energy   TEWEN  =       702.07997227
  -Hartree energ DENC   =     -1179.81252373
  -exchange      EXHF   =         0.00000000
  -V(xc)+E(xc)   XCENC  =        54.29542453
  PAW double counting   =      1162.20499327    -1164.90251489
  entropy T*S    EENTRO =         0.00000000
  eigenvalues    EBANDS =      -204.02581949
  atomic energy  EATOM  =       596.16534815
  Solvation  Ediel_sol  =         0.00000000
  ---------------------------------------------------
  free energy    TOTEN  =       -33.95367926 eV

  energy without entropy =      -33.95367926  energy(sigma->0) =      -33.95367926


--------------------------------------------------------------------------------------------------------




----------------------------------------- Iteration  135(   5)  ---------------------------------------


    POTLOK:  cpu time   25.4921: real time   25.4720
    SETDIJ:  cpu time    0.0090: real time    0.0086
     EDDAV:  cpu time   41.5777: real time   41.5444
       DOS:  cpu time    0.0000: real time    0.0002
    CHARGE:  cpu time    6.2201: real time    6.2152
    MIXING:  cpu time    0.9809: real time    0.9793
    --------------------------------------------
      LOOP:  cpu time   74.2827: real time   74.2234

 eigenvalue-minimisations  :    48
 total energy-change (2. order) :-0.2269189E-09  (-0.3283853E-08)
 number of electron      16.0000003 magnetization 
 augmentation part        0.3745340 magnetization 

 Broyden mixing:
  rms(total) = 0.31813E-06    rms(broyden)= 0.31760E-06
  rms(prec ) = 0.32138E-06
  weight for this iteration     100.00

 eigenvalues of (default mixing * dielectric matrix)
  average eigenvalue GAMMA=   1.6365
  2.6708  0.9390  1.4681  1.4681

 Free energy of the ion-electron system (eV)
  ---------------------------------------------------
  alpha Z        PSCENC =         0.04144063
  Ewald energy   TEWEN  =       702.07997227
  -Hartree energ DENC   =     -1179.81253196
  -exchange      EXHF   =         0.00000000
  -V(xc)+E(xc)   XCENC  =        54.29542500
  PAW double counting   =      1162.20455059    -1164.90207239
  entropy T*S    EENTRO =         0.00000000
  eigenvalues    EBANDS =      -204.02581155
  atomic energy  EATOM  =       596.16534815
  Solvation  Ediel_sol  =         0.00000000
  ---------------------------------------------------
  free energy    TOTEN  =       -33.95367926 eV

  energy without entropy =      -33.95367926  energy(sigma->0) =      -33.95367926


--------------------------------------------------------------------------------------------------------




----------------------------------------- Iteration  135(   6)  ---------------------------------------


    POTLOK:  cpu time   24.3703: real time   24.3511
    SETDIJ:  cpu time    0.0090: real time    0.0084
     EDDAV:  cpu time   42.3486: real time   42.3143
       DOS:  cpu time    0.0000: real time    0.0002
    --------------------------------------------
      LOOP:  cpu time   66.7289: real time   66.6779

 eigenvalue-minimisations  :    48
 total energy-change (2. order) :-0.3251444E-10  (-0.3280962E-08)
 number of electron      16.0000003 magnetization 
 augmentation part        0.3745340 magnetization 

 Free energy of the ion-electron system (eV)
  ---------------------------------------------------
  alpha Z        PSCENC =         0.04144063
  Ewald energy   TEWEN  =       702.07997227
  -Hartree energ DENC   =     -1179.81252695
  -exchange      EXHF   =         0.00000000
  -V(xc)+E(xc)   XCENC  =        54.29542475
  PAW double counting   =      1162.20428750    -1164.90180924
  entropy T*S    EENTRO =         0.00000000
  eigenvalues    EBANDS =      -204.02581638
  atomic energy  EATOM  =       596.16534815
  Solvation  Ediel_sol  =         0.00000000
  ---------------------------------------------------
  free energy    TOTEN  =       -33.95367926 eV

  energy without entropy =      -33.95367926  energy(sigma->0) =      -33.95367926


--------------------------------------------------------------------------------------------------------




 average (electrostatic) potential at core
  the test charge radii are     0.5201  0.6991  0.7089
  (the norm of the test charge is              1.0000)
       1 -43.1690       2 -43.1711       3 -43.2375       4 -60.7412       5 -59.8188
       6 -74.3737
 
 
 
 E-fermi :  -6.2943     XC(G=0):  -0.0615     alpha+bet : -0.0137


 k-point     1 :       0.2500    0.2500    0.2500
  band No.  band energies     occupation 
      1     -24.0860      2.00000
      2     -17.8593      2.00000
      3     -12.4981      2.00000
      4     -11.6606      2.00000
      5     -10.8794      2.00000
      6      -9.4400      2.00000
      7      -8.3401      2.00000
      8      -7.2494      2.00000
      9      -1.7490      0.00000
     10      -0.8935      0.00000
     11      -0.6892      0.00000
     12      -0.2109      0.00000

 k-point     2 :      -0.2500    0.2500    0.2500
  band No.  band energies     occupation 
      1     -24.0860      2.00000
      2     -17.8593      2.00000
      3     -12.4981      2.00000
      4     -11.6606      2.00000
      5     -10.8794      2.00000
      6      -9.4400      2.00000
      7      -8.3401      2.00000
      8      -7.2494      2.00000
      9      -1.7490      0.00000
     10      -0.8935      0.00000
     11      -0.6892      0.00000
     12      -0.2109      0.00000

 k-point     3 :       0.2500   -0.2500    0.2500
  band No.  band energies     occupation 
      1     -24.0860      2.00000
      2     -17.8593      2.00000
      3     -12.4981      2.00000
      4     -11.6606      2.00000
      5     -10.8794      2.00000
      6      -9.4400      2.00000
      7      -8.3401      2.00000
      8      -7.2493      2.00000
      9      -1.7490      0.00000
     10      -0.8935      0.00000
     11      -0.6892      0.00000
     12      -0.2109      0.00000

 k-point     4 :      -0.2500   -0.2500    0.2500
  band No.  band energies     occupation 
      1     -24.0860      2.00000
      2     -17.8593      2.00000
      3     -12.4981      2.00000
      4     -11.6606      2.00000
      5     -10.8794      2.00000
      6      -9.4400      2.00000
      7      -8.3401      2.00000
      8      -7.2493      2.00000
      9      -1.7490      0.00000
     10      -0.8935      0.00000
     11      -0.6892      0.00000
     12      -0.2109      0.00000


--------------------------------------------------------------------------------------------------------


 soft charge-density along one line, spin component           1
         0         1         2         3         4         5         6         7         8         9
 total charge-density along one line
 
 pseudopotential strength for first ion, spin component:           1
 -2.364  -4.077  -0.002   0.000   0.000
 -4.077  -6.947  -0.006   0.000  -0.001
 -0.002  -0.006  -0.329   0.000   0.001
  0.000   0.000   0.000  -0.333   0.000
  0.000  -0.001   0.001   0.000  -0.333
 total augmentation occupancy for first ion, spin component:           1
  3.548  -0.643   0.448   0.028   0.096
 -0.643   0.133  -0.082  -0.005  -0.018
  0.448  -0.082   0.057   0.003   0.010
  0.028  -0.005   0.003   0.009   0.000
  0.096  -0.018   0.010   0.000   0.009


------------------------ aborting loop because EDIFF is reached ----------------------------------------


    CHARGE:  cpu time    6.2151: real time    6.2098
    FORLOC:  cpu time    2.8706: real time    2.8674
    FORNL :  cpu time   20.6709: real time   20.6547
    STRESS:  cpu time   61.2357: real time   61.1867
    FORCOR:  cpu time   22.5996: real time   22.5793
    FORHAR:  cpu time    7.6708: real time    7.6655
    MIXING:  cpu time    0.8479: real time    0.8465
    OFIELD:  cpu time    0.0000: real time    0.0000

  FORCE on cell =-STRESS in cart. coord.  units (eV):
  Direction    XX          YY          ZZ          XY          YZ          ZX
  --------------------------------------------------------------------------------------
  Alpha Z     0.04144     0.04144     0.04144
  Ewald     334.91391    90.17503   276.99105    46.56841    92.55861    -8.33072
  Hartree   484.70269   309.69318   385.41666    29.71961    37.10906    -9.40911
  E(xc)     -59.15088   -59.44139   -58.78625     0.07399     0.32299    -0.00169
  Local    -979.37052  -571.29283  -821.69939   -74.03118  -123.73823    17.13047
  n-local   -15.32370   -21.87122   -27.50285     0.47211    -2.92600    -1.16725
  augment     0.24344     0.74720     0.84614    -0.05906     0.05591     0.06781
  Kinetic   233.03635   250.98339   243.72500    -2.73990    -3.38341     1.69130
  Fock        0.00000     0.00000     0.00000     0.00000     0.00000     0.00000
  -------------------------------------------------------------------------------------
  Total      -0.90728    -0.96521    -0.96818     0.00399    -0.00107    -0.01919
  in kB      -0.05384    -0.05728    -0.05745     0.00024    -0.00006    -0.00114
  external pressure =       -0.06 kB  Pullay stress =        0.00 kB


 VOLUME and BASIS-vectors are now :
 -----------------------------------------------------------------------------
  energy-cutoff  :      400.00
  volume of cell :    27000.00
      direct lattice vectors                 reciprocal lattice vectors
    30.000000000  0.000000000  0.000000000     0.033333333  0.000000000  0.000000000
     0.000000000 30.000000000  0.000000000     0.000000000  0.033333333  0.000000000
     0.000000000  0.000000000 30.000000000     0.000000000  0.000000000  0.033333333

  length of vectors
    30.000000000 30.000000000 30.000000000     0.033333333  0.033333333  0.033333333


 FORCES acting on ions
    electron-ion (+dipol)            ewald-force                    non-local-force                 convergence-correction
 -----------------------------------------------------------------------------------------------
   0.267E+02 0.614E+02 0.154E+01   -.279E+02 -.671E+02 -.190E+01   0.120E+01 0.573E+01 0.360E+00   0.108E-06 -.460E-06 -.140E-06
   0.429E+02 -.321E+02 0.401E+02   -.457E+02 0.353E+02 -.441E+02   0.276E+01 -.322E+01 0.405E+01   -.906E-07 0.104E-06 -.410E-06
   0.299E+02 -.184E+02 -.571E+02   -.311E+02 0.204E+02 0.624E+02   0.115E+01 -.198E+01 -.529E+01   -.124E-07 0.557E-07 0.332E-06
   0.993E+02 0.146E+02 -.642E+01   -.107E+03 -.157E+02 0.697E+01   0.761E+01 0.111E+01 -.551E+00   0.652E-06 -.829E-06 -.752E-06
   -.698E+02 0.696E+02 0.202E+03   0.745E+02 -.772E+02 -.222E+03   -.474E+01 0.758E+01 0.207E+02   0.116E-05 -.717E-06 -.588E-06
   -.125E+03 -.900E+02 -.169E+03   0.137E+03 0.104E+03 0.199E+03   -.117E+02 -.143E+02 -.303E+02   0.184E-05 -.464E-06 -.405E-06
 -----------------------------------------------------------------------------------------------
   0.367E+01 0.509E+01 0.110E+02   0.000E+00 -.142E-13 0.000E+00   -.368E+01 -.508E+01 -.110E+02   0.366E-05 -.231E-05 -.196E-05
 
 
 POSITION                                       TOTAL-FORCE (eV/Angst)
 -----------------------------------------------------------------------------------
     14.38172     13.88179     14.98082         0.000799     -0.000396     -0.000780
     14.09138     15.55312     14.29182        -0.000443      0.000012      0.000731
     14.38261     15.32551     16.04919         0.000091     -0.001260      0.000452
     14.60460     14.94916     15.04340         0.000000     -0.000324      0.000085
     16.21916     14.91223     14.26304        -0.000530      0.001060     -0.001916
     16.32084     15.37876     15.37173         0.000084      0.000908      0.001427
 -----------------------------------------------------------------------------------
    total drift:                               -0.000564      0.008337     -0.001675


--------------------------------------------------------------------------------------------------------



  FREE ENERGIE OF THE ION-ELECTRON SYSTEM (eV)
  ---------------------------------------------------
  free  energy   TOTEN  =       -33.95367926 eV

  energy  without entropy=      -33.95367926  energy(sigma->0) =      -33.95367926
 
 d Force = 0.1574007E-07[ 0.148E-07, 0.167E-07]  d Energy = 0.1502383E-07 0.716E-09
 d Force = 0.1045145E-02[ 0.105E-02, 0.105E-02]  d Ewald  = 0.1045145E-02 0.324E-10


--------------------------------------------------------------------------------------------------------


    POTLOK:  cpu time   21.3957: real time   21.3799


--------------------------------------------------------------------------------------------------------


 NEB: the previous image is higher in energy: F
 NEB: the next image is higher in energy    : F
 NEB: image is at an extrema
 NEB: diff energy (min, max):     0.436823    0.648787

 NEB: Tangent
 ----------------------------------------------
     -0.10351     -0.06905     -0.06711
     -0.11274     -0.02865     -0.08421
      0.20122     -0.02334     -0.14451
     -0.03330     -0.09095     -0.21160
     -0.55480      0.03296      0.32394
      0.60313      0.17904      0.18349

 NEB: forces: par spring, perp REAL, dneb     0.865314    0.003459    0.000000
 NEB: distance to prev, next image, angle between     0.519735    0.346672  144.793118
 NEB: projections on to tangent (spring, REAL)    -0.865314    0.000162

 stress matrix after NEB project (eV)
     -0.90728      0.00399     -0.01919
      0.00399     -0.96521     -0.00107
     -0.01919     -0.00107     -0.96818
  FORCES: max atom, RMS     0.002304    0.001414
  FORCE total and by dimension    0.003463    0.002021
  Stress total and by dimension    1.641013    0.968180
 OPT: skip step - force has converged


--------------------------------------------------------------------------------------------------------


  
 reached required accuracy - stopping structural energy minimisation
     LOOP+:  cpu time  681.7954: real time  681.2681
    4ORBIT:  cpu time    0.0000: real time    0.0000

 total amount of memory used by VASP on root node  3203888. kBytes
========================================================================

   base      :      30000. kBytes
   nonlr-proj:        692. kBytes
   fftplans  :     924480. kBytes
   grid      :    1872000. kBytes
   one-center:         18. kBytes
   wavefun   :     376698. kBytes
 
  
  
 General timing and accounting informations for this job:
 ========================================================
  
                  Total CPU time used (sec):    97137.156
                            User time (sec):    95643.545
                          System time (sec):     1493.613
                         Elapsed time (sec):    97129.262
  
                   Maximum memory used (kb):     4750200.
                   Average memory used (kb):           0.
  
                          Minor page faults:    114046535
                          Major page faults:            9
                 Voluntary context switches:        15788
