unknown system                          
           1
    30.000000    0.000000    0.000000
     0.000000   30.000000    0.000000
     0.000000    0.000000   30.000000
   H    C    N 
   3   2   1
Direct configuration=     1
   0.47967010  0.46308328  0.49963126
   0.47024859  0.51855844  0.47659080
   0.47844598  0.51104746  0.53544422
   0.48692165  0.49871884  0.50223402
   0.54217460  0.49646797  0.47449240
   0.54254915  0.51214296  0.51160726
Direct configuration=     2
   0.47963048  0.46305988  0.49961025
   0.47020695  0.51854678  0.47656493
   0.47850725  0.51103842  0.53539840
   0.48690856  0.49868686  0.50216447
   0.54200755  0.49648306  0.47458649
   0.54274926  0.51220395  0.51167541
Direct configuration=     3
   0.47957423  0.46302495  0.49957986
   0.47014729  0.51853081  0.47652670
   0.47860251  0.51102656  0.53533251
   0.48689288  0.49863953  0.50206019
   0.54176211  0.49650362  0.47471912
   0.54303103  0.51229348  0.51178158
Direct configuration=     4
   0.47950532  0.46297932  0.49954209
   0.47007314  0.51851258  0.47647759
   0.47873426  0.51101358  0.53524946
   0.48687857  0.49857876  0.50192358
   0.54144904  0.49653879  0.47490942
   0.54336973  0.51239591  0.51189781
Direct configuration=     5
   0.47942756  0.46292460  0.49949951
   0.46998796  0.51849428  0.47641994
   0.47890627  0.51100076  0.53515047
   0.48686600  0.49850595  0.50175945
   0.54108281  0.49658563  0.47514514
   0.54373946  0.51250772  0.51202544
Direct configuration=     6
   0.47934474  0.46286240  0.49945555
   0.46989535  0.51847756  0.47635752
   0.47912370  0.51098855  0.53503504
   0.48684939  0.49842508  0.50157615
   0.54068620  0.49663454  0.47539164
   0.54411068  0.51263081  0.51218406
Direct configuration=     7
   0.47925010  0.46278962  0.49941318
   0.46978663  0.51846437  0.47629122
   0.47940956  0.51097782  0.53489630
   0.48681666  0.49833186  0.50136895
   0.54028120  0.49672006  0.47571959
   0.54446592  0.51273522  0.51231072
Direct configuration=     8
   0.47924955  0.46278960  0.49941424
   0.46978572  0.51846499  0.47629202
   0.47941201  0.51097843  0.53489677
   0.48681414  0.49833161  0.50136996
   0.54028872  0.49671514  0.47570385
   0.54445991  0.51273918  0.51232312
Direct configuration=     9
   0.47924818  0.46278939  0.49941634
   0.46978365  0.51846620  0.47629357
   0.47941704  0.51097965  0.53489768
   0.48680944  0.49833110  0.50137171
   0.54030442  0.49670857  0.47567982
   0.54444733  0.51274404  0.51234083
Direct configuration=    10
   0.47924565  0.46278865  0.49941938
   0.46978001  0.51846801  0.47629565
   0.47942483  0.51098144  0.53489887
   0.48680335  0.49833044  0.50137386
   0.54032864  0.49670573  0.47566038
   0.54442758  0.51274467  0.51235182
Direct configuration=    11
   0.47924208  0.46278722  0.49942303
   0.46977504  0.51847028  0.47629798
   0.47943481  0.51098365  0.53490022
   0.48679705  0.49832985  0.50137617
   0.54035925  0.49670912  0.47565238
   0.54440182  0.51273881  0.51235019
Direct configuration=    12
   0.47923769  0.46278513  0.49942717
   0.46976899  0.51847290  0.47630051
   0.47944641  0.51098622  0.53490185
   0.48679120  0.49832959  0.50137873
   0.54039500  0.49671758  0.47565349
   0.54437078  0.51272753  0.51233820
Direct configuration=    13
   0.47923270  0.46278249  0.49943188
   0.46976210  0.51847580  0.47630345
   0.47945923  0.51098920  0.53490416
   0.48678620  0.49832998  0.50138203
   0.54043594  0.49672699  0.47565342
   0.54433390  0.51271449  0.51232503
Direct configuration=    14
   0.47922726  0.46277961  0.49943747
   0.46975447  0.51847905  0.47630723
   0.47947340  0.51099281  0.53490763
   0.48678193  0.49833119  0.50138673
   0.54048387  0.49673223  0.47563864
   0.54428914  0.51270406  0.51232226
Direct configuration=    15
   0.47922189  0.46277707  0.49944382
   0.46974667  0.51848236  0.47631204
   0.47948810  0.51099697  0.53491243
   0.48677915  0.49833321  0.50139312
   0.54053771  0.49673121  0.47560406
   0.54423653  0.51269812  0.51233449
Direct configuration=    16
   0.47921724  0.46277589  0.49945082
   0.46973931  0.51848517  0.47631841
   0.47950267  0.51100160  0.53491885
   0.48678080  0.49833654  0.50140166
   0.54059882  0.49672950  0.47556118
   0.54417122  0.51269025  0.51234904
Direct configuration=    17
   0.47921741  0.46277615  0.49945083
   0.46973947  0.51848502  0.47631860
   0.47950251  0.51100157  0.53491892
   0.48678146  0.49833667  0.50140184
   0.54059934  0.49673103  0.47556413
   0.54416987  0.51268850  0.51234565
Direct configuration=    18
   0.47921776  0.46277668  0.49945084
   0.46973979  0.51848471  0.47631898
   0.47950218  0.51100152  0.53491908
   0.48678274  0.49833692  0.50140222
   0.54060038  0.49673374  0.47556918
   0.54416719  0.51268536  0.51233966
Direct configuration=    19
   0.47921836  0.46277753  0.49945088
   0.46974036  0.51848422  0.47631961
   0.47950161  0.51100144  0.53491936
   0.48678466  0.49833734  0.50140288
   0.54060196  0.49673702  0.47557470
   0.54416310  0.51268139  0.51233254
Direct configuration=    20
   0.47921841  0.46277760  0.49945089
   0.46974041  0.51848418  0.47631966
   0.47950156  0.51100144  0.53491939
   0.48678477  0.49833738  0.50140294
   0.54060206  0.49673699  0.47557444
   0.54416284  0.51268136  0.51233264
Direct configuration=    21
   0.47921853  0.46277774  0.49945090
   0.46974053  0.51848411  0.47631977
   0.47950145  0.51100142  0.53491945
   0.48678499  0.49833745  0.50140307
   0.54060226  0.49673692  0.47557393
   0.54416231  0.51268130  0.51233284
Direct configuration=    22
   0.47921870  0.46277794  0.49945092
   0.46974069  0.51848400  0.47631994
   0.47950128  0.51100141  0.53491953
   0.48678532  0.49833756  0.50140327
   0.54060257  0.49673684  0.47557320
   0.54416151  0.51268120  0.51233310
Direct configuration=    23
   0.47921892  0.46277821  0.49945094
   0.46974091  0.51848385  0.47632015
   0.47950106  0.51100138  0.53491965
   0.48678575  0.49833770  0.50140353
   0.54060298  0.49673674  0.47557226
   0.54416044  0.51268106  0.51233342
Direct configuration=    24
   0.47921921  0.46277854  0.49945097
   0.46974119  0.51848366  0.47632043
   0.47950079  0.51100135  0.53491980
   0.48678629  0.49833788  0.50140386
   0.54060349  0.49673666  0.47557115
   0.54415909  0.51268085  0.51233376
Direct configuration=    25
   0.47921955  0.46277894  0.49945101
   0.46974152  0.51848344  0.47632075
   0.47950046  0.51100132  0.53491997
   0.48678694  0.49833810  0.50140425
   0.54060412  0.49673660  0.47556992
   0.54415747  0.51268055  0.51233406
Direct configuration=    26
   0.47921998  0.46277944  0.49945106
   0.46974194  0.51848316  0.47632117
   0.47950005  0.51100127  0.53492020
   0.48678778  0.49833838  0.50140475
   0.54060495  0.49673658  0.47556846
   0.54415535  0.51268011  0.51233433
Direct configuration=    27
   0.47922055  0.46278008  0.49945112
   0.46974248  0.51848280  0.47632169
   0.47949952  0.51100121  0.53492048
   0.48678885  0.49833874  0.50140540
   0.54060603  0.49673666  0.47556680
   0.54415263  0.51267945  0.51233447
Direct configuration=    28
   0.47922127  0.46278087  0.49945119
   0.46974317  0.51848236  0.47632236
   0.47949885  0.51100114  0.53492084
   0.48679019  0.49833920  0.50140622
   0.54060740  0.49673687  0.47556495
   0.54414918  0.51267852  0.51233441
Direct configuration=    29
   0.47922217  0.46278182  0.49945129
   0.46974402  0.51848181  0.47632317
   0.47949802  0.51100103  0.53492128
   0.48679183  0.49833978  0.50140725
   0.54060915  0.49673727  0.47556293
   0.54414487  0.51267723  0.51233404
Direct configuration=    30
   0.47922331  0.46278297  0.49945141
   0.46974508  0.51848116  0.47632416
   0.47949698  0.51100090  0.53492184
   0.48679382  0.49834050  0.50140854
   0.54061134  0.49673792  0.47556071
   0.54413953  0.51267550  0.51233330
Direct configuration=    31
   0.47922474  0.46278433  0.49945155
   0.46974639  0.51848038  0.47632537
   0.47949568  0.51100074  0.53492252
   0.48679619  0.49834140  0.50141017
   0.54061408  0.49673882  0.47555816
   0.54413297  0.51267328  0.51233219
Direct configuration=    32
   0.47922655  0.46278592  0.49945173
   0.46974801  0.51847947  0.47632680
   0.47949406  0.51100053  0.53492338
   0.48679896  0.49834250  0.50141220
   0.54061748  0.49673996  0.47555498
   0.54412501  0.51267056  0.51233086
Direct configuration=    33
   0.47922883  0.46278776  0.49945197
   0.46975001  0.51847844  0.47632850
   0.47949203  0.51100027  0.53492447
   0.48680208  0.49834385  0.50141473
   0.54062164  0.49674122  0.47555071
   0.54411547  0.51266741  0.51232959
Direct configuration=    34
   0.47923168  0.46278983  0.49945225
   0.46975242  0.51847733  0.47633047
   0.47948950  0.51099997  0.53492585
   0.48680549  0.49834544  0.50141786
   0.54062669  0.49674249  0.47554487
   0.54410429  0.51266389  0.51232866
Direct configuration=    35
   0.47923525  0.46279208  0.49945261
   0.46975534  0.51847618  0.47633270
   0.47948632  0.51099962  0.53492762
   0.48680906  0.49834729  0.50142168
   0.54063278  0.49674387  0.47553730
   0.54409131  0.51265991  0.51232805
Direct configuration=    36
   0.47923977  0.46279437  0.49945301
   0.46975882  0.51847507  0.47633511
   0.47948229  0.51099920  0.53492993
   0.48681268  0.49834942  0.50142638
   0.54064007  0.49674583  0.47552848
   0.54407643  0.51265505  0.51232705
Direct configuration=    37
   0.47924542  0.46279652  0.49945344
   0.46976290  0.51847415  0.47633758
   0.47947718  0.51099871  0.53493293
   0.48681607  0.49835174  0.50143196
   0.54064860  0.49674899  0.47551940
   0.54405988  0.51264885  0.51232465
Direct configuration=    38
   0.47925250  0.46279815  0.49945388
   0.46976761  0.51847357  0.47633995
   0.47947063  0.51099811  0.53493694
   0.48681868  0.49835407  0.50143842
   0.54065827  0.49675363  0.47550952
   0.54404237  0.51264142  0.51232127
Direct configuration=    39
   0.47926106  0.46279901  0.49945424
   0.46977287  0.51847344  0.47634206
   0.47946243  0.51099735  0.53494201
   0.48682007  0.49835625  0.50144554
   0.54066842  0.49675899  0.47549686
   0.54402520  0.51263391  0.51231926
Direct configuration=    40
   0.47927111  0.46279860  0.49945435
   0.46977845  0.51847374  0.47634366
   0.47945256  0.51099617  0.53494789
   0.48681981  0.49835839  0.50145327
   0.54067784  0.49676591  0.47548296
   0.54401028  0.51262614  0.51231783
Direct configuration=    41
   0.47927120  0.46279850  0.49945432
   0.46977843  0.51847376  0.47634360
   0.47945245  0.51099612  0.53494791
   0.48681970  0.49835834  0.50145326
   0.54067764  0.49676617  0.47548324
   0.54401063  0.51262605  0.51231763
Direct configuration=    42
   0.47927137  0.46279829  0.49945424
   0.46977839  0.51847381  0.47634350
   0.47945224  0.51099602  0.53494796
   0.48681949  0.49835826  0.50145324
   0.54067724  0.49676668  0.47548373
   0.54401134  0.51262588  0.51231730
Direct configuration=    43
   0.47927163  0.46279798  0.49945413
   0.46977833  0.51847388  0.47634334
   0.47945191  0.51099587  0.53494802
   0.48681917  0.49835813  0.50145321
   0.54067664  0.49676740  0.47548432
   0.54401238  0.51262569  0.51231695
Direct configuration=    44
   0.47927197  0.46279758  0.49945397
   0.46977825  0.51847396  0.47634313
   0.47945148  0.51099566  0.53494811
   0.48681873  0.49835795  0.50145316
   0.54067585  0.49676826  0.47548485
   0.54401378  0.51262554  0.51231674
Direct configuration=    45
   0.47927241  0.46279709  0.49945378
   0.46977815  0.51847405  0.47634290
   0.47945095  0.51099540  0.53494822
   0.48681820  0.49835773  0.50145310
   0.54067486  0.49676920  0.47548517
   0.54401549  0.51262549  0.51231680
Direct configuration=    46
   0.47927291  0.46279653  0.49945356
   0.46977803  0.51847413  0.47634264
   0.47945034  0.51099509  0.53494834
   0.48681759  0.49835746  0.50145300
   0.54067369  0.49677020  0.47548525
   0.54401749  0.51262554  0.51231718
Direct configuration=    47
   0.47927353  0.46279584  0.49945327
   0.46977787  0.51847421  0.47634233
   0.47944960  0.51099470  0.53494849
   0.48681684  0.49835710  0.50145285
   0.54067219  0.49677141  0.47548514
   0.54402002  0.51262569  0.51231789
Direct configuration=    48
   0.47927429  0.46279500  0.49945289
   0.46977762  0.51847427  0.47634198
   0.47944873  0.51099418  0.53494865
   0.48681595  0.49835664  0.50145261
   0.54067030  0.49677299  0.47548501
   0.54402317  0.51262587  0.51231883
Direct configuration=    49
   0.47927520  0.46279398  0.49945241
   0.46977727  0.51847428  0.47634159
   0.47944772  0.51099351  0.53494879
   0.48681495  0.49835605  0.50145225
   0.54066795  0.49677519  0.47548525
   0.54402697  0.51262592  0.51231967
Direct configuration=    50
   0.47927625  0.46279281  0.49945179
   0.46977675  0.51847421  0.47634119
   0.47944663  0.51099266  0.53494888
   0.48681390  0.49835533  0.50145175
   0.54066511  0.49677821  0.47548611
   0.54403142  0.51262573  0.51232025
Direct configuration=    51
   0.47927746  0.46279146  0.49945101
   0.46977602  0.51847397  0.47634081
   0.47944547  0.51099156  0.53494885
   0.48681286  0.49835443  0.50145108
   0.54066168  0.49678216  0.47548737
   0.54403657  0.51262538  0.51232085
Direct configuration=    52
   0.47927881  0.46278996  0.49945001
   0.46977500  0.51847346  0.47634052
   0.47944432  0.51099011  0.53494865
   0.48681193  0.49835333  0.50145023
   0.54065768  0.49678697  0.47548819
   0.54404232  0.51262513  0.51232237
Direct configuration=    53
   0.47928029  0.46278834  0.49944876
   0.46977361  0.51847258  0.47634040
   0.47944329  0.51098826  0.53494820
   0.48681123  0.49835201  0.50144919
   0.54065321  0.49679272  0.47548825
   0.54404842  0.51262504  0.51232517
Direct configuration=    54
   0.47928186  0.46278660  0.49944721
   0.46977172  0.51847123  0.47634055
   0.47944258  0.51098595  0.53494745
   0.48681097  0.49835044  0.50144787
   0.54064850  0.49680025  0.47548885
   0.54405443  0.51262447  0.51232802
Direct configuration=    55
   0.47928351  0.46278474  0.49944535
   0.46976923  0.51846936  0.47634104
   0.47944238  0.51098316  0.53494645
   0.48681121  0.49834860  0.50144625
   0.54064390  0.49680984  0.47549011
   0.54405982  0.51262325  0.51233077
Direct configuration=    56
   0.47928533  0.46278275  0.49944319
   0.46976616  0.51846699  0.47634192
   0.47944279  0.51097990  0.53494532
   0.48681181  0.49834650  0.50144443
   0.54063979  0.49682060  0.47548953
   0.54406418  0.51262221  0.51233557
Direct configuration=    57
   0.47928744  0.46278046  0.49944066
   0.46976238  0.51846420  0.47634322
   0.47944399  0.51097611  0.53494415
   0.48681271  0.49834411  0.50144255
   0.54063687  0.49683360  0.47548866
   0.54406666  0.51262047  0.51234072
Direct configuration=    58
   0.47929008  0.46277778  0.49943785
   0.46975797  0.51846126  0.47634495
   0.47944577  0.51097186  0.53494329
   0.48681392  0.49834114  0.50144061
   0.54063580  0.49684922  0.47548790
   0.54406652  0.51261767  0.51234537
Direct configuration=    59
   0.47929363  0.46277439  0.49943472
   0.46975330  0.51845828  0.47634715
   0.47944772  0.51096697  0.53494275
   0.48681480  0.49833826  0.50143931
   0.54063679  0.49686555  0.47548267
   0.54406381  0.51261549  0.51235335
Direct configuration=    60
   0.47929858  0.46277002  0.49943112
   0.46974873  0.51845525  0.47634969
   0.47944933  0.51096115  0.53494266
   0.48681546  0.49833552  0.50143893
   0.54064017  0.49688715  0.47548241
   0.54405779  0.51260987  0.51235516
Direct configuration=    61
   0.47929902  0.46277004  0.49943103
   0.46974890  0.51845527  0.47634978
   0.47944899  0.51096100  0.53494294
   0.48681525  0.49833537  0.50143919
   0.54064044  0.49688631  0.47547904
   0.54405746  0.51261095  0.51235798
Direct configuration=    62
   0.47929997  0.46276996  0.49943080
   0.46974923  0.51845531  0.47634997
   0.47944828  0.51096063  0.53494349
   0.48681493  0.49833509  0.50143971
   0.54064115  0.49688608  0.47547526
   0.54405651  0.51261188  0.51236073
Direct configuration=    63
   0.47930005  0.46276992  0.49943076
   0.46974924  0.51845531  0.47634998
   0.47944822  0.51096058  0.53494352
   0.48681494  0.49833509  0.50143975
   0.54064124  0.49688646  0.47547584
   0.54405637  0.51261159  0.51236011
Direct configuration=    64
   0.47930022  0.46276983  0.49943070
   0.46974928  0.51845531  0.47635001
   0.47944812  0.51096049  0.53494359
   0.48681495  0.49833509  0.50143982
   0.54064141  0.49688715  0.47547683
   0.54405608  0.51261108  0.51235902
Direct configuration=    65
   0.47930049  0.46276971  0.49943060
   0.46974934  0.51845530  0.47635006
   0.47944793  0.51096033  0.53494371
   0.48681496  0.49833508  0.50143994
   0.54064168  0.49688807  0.47547793
   0.54405566  0.51261046  0.51235773
Direct configuration=    66
   0.47930051  0.46276970  0.49943059
   0.46974935  0.51845530  0.47635006
   0.47944791  0.51096032  0.53494372
   0.48681496  0.49833508  0.50143995
   0.54064169  0.49688808  0.47547789
   0.54405563  0.51261046  0.51235775
Direct configuration=    67
   0.47930056  0.46276969  0.49943058
   0.46974936  0.51845530  0.47635007
   0.47944788  0.51096030  0.53494374
   0.48681495  0.49833508  0.50143997
   0.54064172  0.49688812  0.47547781
   0.54405558  0.51261047  0.51235780
Direct configuration=    68
   0.47930062  0.46276967  0.49943055
   0.46974938  0.51845530  0.47635009
   0.47944783  0.51096026  0.53494377
   0.48681494  0.49833508  0.50144001
   0.54064177  0.49688817  0.47547768
   0.54405550  0.51261047  0.51235786
Direct configuration=    69
   0.47930071  0.46276964  0.49943052
   0.46974941  0.51845530  0.47635011
   0.47944776  0.51096021  0.53494382
   0.48681493  0.49833507  0.50144006
   0.54064184  0.49688824  0.47547753
   0.54405540  0.51261048  0.51235793
Direct configuration=    70
   0.47930083  0.46276961  0.49943049
   0.46974944  0.51845529  0.47635013
   0.47944768  0.51096015  0.53494387
   0.48681492  0.49833507  0.50144011
   0.54064192  0.49688834  0.47547734
   0.54405527  0.51261049  0.51235801
Direct configuration=    71
   0.47930096  0.46276957  0.49943044
   0.46974948  0.51845529  0.47635016
   0.47944758  0.51096008  0.53494393
   0.48681490  0.49833506  0.50144018
   0.54064202  0.49688847  0.47547714
   0.54405512  0.51261049  0.51235810
Direct configuration=    72
   0.47930114  0.46276951  0.49943039
   0.46974953  0.51845528  0.47635020
   0.47944745  0.51095999  0.53494402
   0.48681488  0.49833505  0.50144027
   0.54064215  0.49688864  0.47547690
   0.54405491  0.51261047  0.51235818
Direct configuration=    73
   0.47930137  0.46276944  0.49943031
   0.46974959  0.51845527  0.47635025
   0.47944728  0.51095987  0.53494413
   0.48681485  0.49833504  0.50144039
   0.54064231  0.49688889  0.47547663
   0.54405465  0.51261045  0.51235825
Direct configuration=    74
   0.47930166  0.46276935  0.49943022
   0.46974967  0.51845526  0.47635032
   0.47944707  0.51095971  0.53494426
   0.48681483  0.49833502  0.50144053
   0.54064252  0.49688921  0.47547633
   0.54405431  0.51261039  0.51235830
Direct configuration=    75
   0.47930202  0.46276924  0.49943009
   0.46974977  0.51845524  0.47635040
   0.47944680  0.51095951  0.53494443
   0.48681480  0.49833500  0.50144071
   0.54064278  0.49688965  0.47547601
   0.54405389  0.51261030  0.51235832
Direct configuration=    76
   0.47930247  0.46276910  0.49942994
   0.46974988  0.51845522  0.47635050
   0.47944647  0.51095926  0.53494464
   0.48681477  0.49833497  0.50144093
   0.54064311  0.49689022  0.47547567
   0.54405336  0.51261017  0.51235828
Direct configuration=    77
   0.47930303  0.46276892  0.49942974
   0.46975002  0.51845519  0.47635063
   0.47944606  0.51095895  0.53494489
   0.48681474  0.49833494  0.50144120
   0.54064350  0.49689095  0.47547529
   0.54405271  0.51260999  0.51235821
Direct configuration=    78
   0.47930372  0.46276871  0.49942950
   0.46975019  0.51845515  0.47635078
   0.47944555  0.51095855  0.53494520
   0.48681471  0.49833488  0.50144153
   0.54064397  0.49689187  0.47547483
   0.54405191  0.51260977  0.51235812
Direct configuration=    79
   0.47930458  0.46276846  0.49942919
   0.46975039  0.51845510  0.47635098
   0.47944491  0.51095806  0.53494558
   0.48681470  0.49833482  0.50144193
   0.54064454  0.49689298  0.47547422
   0.54405094  0.51260953  0.51235807
Direct configuration=    80
   0.47930563  0.46276816  0.49942880
   0.46975062  0.51845502  0.47635123
   0.47944413  0.51095743  0.53494604
   0.48681469  0.49833473  0.50144240
   0.54064519  0.49689432  0.47547337
   0.54404979  0.51260929  0.51235813
Direct configuration=    81
   0.47930691  0.46276779  0.49942832
   0.46975089  0.51845490  0.47635154
   0.47944318  0.51095665  0.53494658
   0.48681470  0.49833463  0.50144296
   0.54064594  0.49689592  0.47547225
   0.54404844  0.51260905  0.51235832
Direct configuration=    82
   0.47930846  0.46276736  0.49942770
   0.46975118  0.51845474  0.47635192
   0.47944203  0.51095566  0.53494721
   0.48681475  0.49833449  0.50144361
   0.54064679  0.49689791  0.47547091
   0.54404685  0.51260880  0.51235861
Direct configuration=    83
   0.47931032  0.46276683  0.49942692
   0.46975144  0.51845451  0.47635241
   0.47944064  0.51095440  0.53494792
   0.48681485  0.49833431  0.50144432
   0.54064772  0.49690041  0.47546949
   0.54404509  0.51260849  0.51235891
Direct configuration=    84
   0.47931252  0.46276620  0.49942593
   0.46975165  0.51845419  0.47635300
   0.47943901  0.51095281  0.53494871
   0.48681501  0.49833406  0.50144508
   0.54064869  0.49690358  0.47546811
   0.54404318  0.51260811  0.51235915
Direct configuration=    85
   0.47931510  0.46276544  0.49942466
   0.46975176  0.51845375  0.47635373
   0.47943712  0.51095080  0.53494955
   0.48681524  0.49833373  0.50144586
   0.54064965  0.49690748  0.47546663
   0.54404119  0.51260775  0.51235954
Direct configuration=    86
   0.47931810  0.46276454  0.49942307
   0.46975171  0.51845317  0.47635460
   0.47943496  0.51094830  0.53495042
   0.48681554  0.49833327  0.50144662
   0.54065050  0.49691210  0.47546482
   0.54403923  0.51260758  0.51236043
Direct configuration=    87
   0.47932156  0.46276344  0.49942107
   0.46975142  0.51845242  0.47635563
   0.47943258  0.51094519  0.53495129
   0.48681593  0.49833263  0.50144728
   0.54065114  0.49691769  0.47546301
   0.54403744  0.51260757  0.51236168
Direct configuration=    88
   0.47932551  0.46276208  0.49941863
   0.46975085  0.51845146  0.47635684
   0.47943005  0.51094137  0.53495218
   0.48681644  0.49833176  0.50144783
   0.54065141  0.49692473  0.47546152
   0.54403579  0.51260754  0.51236295
Direct configuration=    89
   0.47933001  0.46276034  0.49941566
   0.46974991  0.51845027  0.47635825
   0.47942747  0.51093674  0.53495308
   0.48681699  0.49833057  0.50144816
   0.54065116  0.49693319  0.47545982
   0.54403453  0.51260784  0.51236499
Direct configuration=    90
   0.47933505  0.46275804  0.49941205
   0.46974844  0.51844880  0.47635985
   0.47942502  0.51093111  0.53495404
   0.48681750  0.49832892  0.50144818
   0.54065027  0.49694361  0.47545802
   0.54403379  0.51260847  0.51236781
Direct configuration=    91
   0.47934070  0.46275500  0.49940773
   0.46974630  0.51844702  0.47636172
   0.47942293  0.51092432  0.53495508
   0.48681791  0.49832668  0.50144792
   0.54064860  0.49695675  0.47545676
   0.54403363  0.51260916  0.51237075
Direct configuration=    92
   0.47934700  0.46275113  0.49940256
   0.46974324  0.51844493  0.47636399
   0.47942140  0.51091620  0.53495619
   0.48681800  0.49832377  0.50144734
   0.54064621  0.49697215  0.47545415
   0.54403421  0.51261077  0.51237573
Direct configuration=    93
   0.47935388  0.46274639  0.49939645
   0.46973903  0.51844255  0.47636672
   0.47942057  0.51090673  0.53495737
   0.48681797  0.49832017  0.50144628
   0.54064356  0.49699178  0.47545517
   0.54403505  0.51261134  0.51237796
Direct configuration=    94
   0.47935401  0.46274631  0.49939630
   0.46973887  0.51844250  0.47636686
   0.47942063  0.51090652  0.53495744
   0.48681787  0.49832008  0.50144627
   0.54064353  0.49699133  0.47545309
   0.54403516  0.51261221  0.51238000
Direct configuration=    95
   0.47935429  0.46274609  0.49939592
   0.46973841  0.51844238  0.47636715
   0.47942081  0.51090600  0.53495755
   0.48681776  0.49831986  0.50144619
   0.54064351  0.49699150  0.47545111
   0.54403526  0.51261311  0.51238204
Direct configuration=    96
   0.47935432  0.46274605  0.49939588
   0.46973836  0.51844237  0.47636717
   0.47942084  0.51090594  0.53495755
   0.48681778  0.49831984  0.50144617
   0.54064353  0.49699179  0.47545155
   0.54403524  0.51261295  0.51238164
Direct configuration=    97
   0.47935436  0.46274599  0.49939580
   0.46973825  0.51844235  0.47636722
   0.47942090  0.51090583  0.53495755
   0.48681780  0.49831980  0.50144614
   0.54064355  0.49699231  0.47545232
   0.54403520  0.51261267  0.51238093
Direct configuration=    98
   0.47935444  0.46274588  0.49939566
   0.46973808  0.51844232  0.47636729
   0.47942098  0.51090564  0.53495756
   0.48681783  0.49831973  0.50144609
   0.54064359  0.49699302  0.47545322
   0.54403514  0.51261235  0.51238013
Direct configuration=    99
   0.47935445  0.46274588  0.49939565
   0.46973806  0.51844232  0.47636730
   0.47942099  0.51090563  0.53495757
   0.48681783  0.49831972  0.50144609
   0.54064359  0.49699304  0.47545320
   0.54403514  0.51261236  0.51238016
Direct configuration=   100
   0.47935446  0.46274587  0.49939563
   0.46973804  0.51844231  0.47636732
   0.47942100  0.51090560  0.53495757
   0.48681783  0.49831971  0.50144608
   0.54064359  0.49699307  0.47545316
   0.54403514  0.51261239  0.51238021
Direct configuration=   101
   0.47935449  0.46274585  0.49939560
   0.46973801  0.51844230  0.47636734
   0.47942101  0.51090556  0.53495758
   0.48681782  0.49831970  0.50144608
   0.54064359  0.49699312  0.47545310
   0.54403514  0.51261242  0.51238027
Direct configuration=   102
   0.47935452  0.46274582  0.49939556
   0.46973796  0.51844229  0.47636737
   0.47942103  0.51090550  0.53495759
   0.48681782  0.49831967  0.50144607
   0.54064359  0.49699319  0.47545302
   0.54403514  0.51261246  0.51238036
Direct configuration=   103
   0.47935455  0.46274579  0.49939551
   0.46973791  0.51844228  0.47636740
   0.47942105  0.51090543  0.53495760
   0.48681781  0.49831965  0.50144606
   0.54064359  0.49699329  0.47545293
   0.54403514  0.51261251  0.51238046
Direct configuration=   104
   0.47935460  0.46274575  0.49939545
   0.46973784  0.51844226  0.47636745
   0.47942108  0.51090535  0.53495761
   0.48681781  0.49831962  0.50144605
   0.54064359  0.49699341  0.47545284
   0.54403514  0.51261256  0.51238056
Direct configuration=   105
   0.47935466  0.46274570  0.49939537
   0.46973774  0.51844224  0.47636750
   0.47942112  0.51090523  0.53495763
   0.48681780  0.49831957  0.50144603
   0.54064359  0.49699358  0.47545275
   0.54403514  0.51261262  0.51238068
Direct configuration=   106
   0.47935474  0.46274563  0.49939527
   0.46973763  0.51844221  0.47636757
   0.47942116  0.51090509  0.53495765
   0.48681780  0.49831952  0.50144601
   0.54064360  0.49699380  0.47545266
   0.54403514  0.51261269  0.51238080
Direct configuration=   107
   0.47935483  0.46274555  0.49939514
   0.46973748  0.51844218  0.47636767
   0.47942122  0.51090490  0.53495768
   0.48681779  0.49831945  0.50144598
   0.54064361  0.49699411  0.47545259
   0.54403513  0.51261275  0.51238091
Direct configuration=   108
   0.47935496  0.46274544  0.49939497
   0.46973729  0.51844213  0.47636778
   0.47942130  0.51090467  0.53495772
   0.48681779  0.49831937  0.50144594
   0.54064361  0.49699451  0.47545254
   0.54403512  0.51261282  0.51238101
Direct configuration=   109
   0.47935511  0.46274531  0.49939477
   0.46973706  0.51844208  0.47636792
   0.47942139  0.51090438  0.53495776
   0.48681778  0.49831927  0.50144590
   0.54064363  0.49699503  0.47545252
   0.54403510  0.51261288  0.51238109
Direct configuration=   110
   0.47935530  0.46274515  0.49939452
   0.46973677  0.51844201  0.47636810
   0.47942150  0.51090402  0.53495782
   0.48681778  0.49831914  0.50144584
   0.54064364  0.49699568  0.47545253
   0.54403507  0.51261295  0.51238115
Direct configuration=   111
   0.47935555  0.46274494  0.49939420
   0.46973642  0.51844193  0.47636832
   0.47942163  0.51090357  0.53495789
   0.48681778  0.49831898  0.50144578
   0.54064365  0.49699650  0.47545254
   0.54403503  0.51261303  0.51238124
Direct configuration=   112
   0.47935585  0.46274469  0.49939381
   0.46973599  0.51844183  0.47636859
   0.47942179  0.51090301  0.53495799
   0.48681778  0.49831878  0.50144570
   0.54064367  0.49699748  0.47545249
   0.54403499  0.51261316  0.51238139
Direct configuration=   113
   0.47935624  0.46274439  0.49939332
   0.46973547  0.51844171  0.47636894
   0.47942197  0.51090231  0.53495811
   0.48681777  0.49831854  0.50144561
   0.54064368  0.49699866  0.47545233
   0.54403493  0.51261334  0.51238165
Direct configuration=   114
   0.47935674  0.46274402  0.49939273
   0.46973484  0.51844156  0.47636936
   0.47942217  0.51090144  0.53495826
   0.48681777  0.49831825  0.50144552
   0.54064368  0.49700007  0.47545204
   0.54403485  0.51261361  0.51238205
Direct configuration=   115
   0.47935736  0.46274358  0.49939199
   0.46973409  0.51844138  0.47636989
   0.47942239  0.51090038  0.53495847
   0.48681778  0.49831790  0.50144541
   0.54064368  0.49700178  0.47545166
   0.54403475  0.51261393  0.51238254
Direct configuration=   116
   0.47935814  0.46274304  0.49939110
   0.46973320  0.51844116  0.47637053
   0.47942264  0.51089906  0.53495873
   0.48681780  0.49831748  0.50144529
   0.54064367  0.49700392  0.47545130
   0.54403461  0.51261428  0.51238301
Direct configuration=   117
   0.47935913  0.46274240  0.49939000
   0.46973215  0.51844091  0.47637133