   6   6   0   0
  0.4500000E+04  0.3000000E-08  0.3000000E-08  0.3000000E-08  0.0000000E+00
  1.000000000000000E-004
  CAR 
 unknown system                          
      2.02308869    -25.88948680  301     -6.16423667      1.00000000
    -25.889  0.0000E+00  0.0000E+00
    -25.796  0.0000E+00  0.0000E+00
    -25.703  0.0000E+00  0.0000E+00
    -25.610  0.0000E+00  0.0000E+00
    -25.517  0.0000E+00  0.0000E+00
    -25.424  0.0000E+00  0.0000E+00
    -25.331  0.0000E+00  0.0000E+00
    -25.238  0.0000E+00  0.0000E+00
    -25.145  0.0000E+00  0.0000E+00
    -25.052  0.7955E-17  0.7401E-18
    -24.959  0.1404E-14  0.1314E-15
    -24.866  0.1782E-12  0.1671E-13
    -24.773  0.1478E-10  0.1392E-11
    -24.680  0.8015E-09  0.7597E-10
    -24.587  0.2842E-07  0.2721E-08
    -24.494  0.6600E-06  0.6413E-07
    -24.401  0.1004E-04  0.9987E-06
    -24.308  0.1003E-03  0.1033E-04
    -24.215  0.6577E-03  0.7153E-04
    -24.122  0.2836E-02  0.3353E-03
    -24.029  0.8043E-02  0.1084E-02
    -23.936  0.1502E-01  0.2481E-02
    -23.843  0.1847E-01  0.4200E-02
    -23.750  0.1497E-01  0.5592E-02
    -23.656  0.7985E-02  0.6335E-02
    -23.563  0.2805E-02  0.6596E-02
    -23.470  0.6483E-03  0.6657E-02
    -23.377  0.9850E-04  0.6666E-02
    -23.284  0.9829E-05  0.6667E-02
    -23.191  0.6435E-06  0.6667E-02
    -23.098  0.2761E-07  0.6667E-02
    -23.005  0.7758E-09  0.6667E-02
    -22.912  0.1426E-10  0.6667E-02
    -22.819  0.1712E-12  0.6667E-02
    -22.726  0.1344E-14  0.6667E-02
    -22.633  0.7955E-17  0.6667E-02
    -22.540  0.0000E+00  0.6667E-02
    -22.447  0.0000E+00  0.6667E-02
    -22.354  0.0000E+00  0.6667E-02
    -22.261  0.0000E+00  0.6667E-02
    -22.168  0.0000E+00  0.6667E-02
    -22.075  0.0000E+00  0.6667E-02
    -21.982  0.0000E+00  0.6667E-02
    -21.889  0.0000E+00  0.6667E-02
    -21.796  0.0000E+00  0.6667E-02
    -21.703  0.0000E+00  0.6667E-02
    -21.610  0.0000E+00  0.6667E-02
    -21.517  0.0000E+00  0.6667E-02
    -21.423  0.0000E+00  0.6667E-02
    -21.330  0.0000E+00  0.6667E-02
    -21.237  0.0000E+00  0.6667E-02
    -21.144  0.0000E+00  0.6667E-02
    -21.051  0.0000E+00  0.6667E-02
    -20.958  0.0000E+00  0.6667E-02
    -20.865  0.0000E+00  0.6667E-02
    -20.772  0.0000E+00  0.6667E-02
    -20.679  0.0000E+00  0.6667E-02
    -20.586  0.0000E+00  0.6667E-02
    -20.493  0.0000E+00  0.6667E-02
    -20.400  0.2506E-15  0.6667E-02
    -20.307  0.3667E-13  0.6667E-02
    -20.214  0.3510E-11  0.6667E-02
    -20.121  0.2195E-09  0.6667E-02
    -20.028  0.8978E-08  0.6667E-02
    -19.935  0.2403E-06  0.6667E-02
    -19.842  0.4215E-05  0.6667E-02
    -19.749  0.4849E-04  0.6672E-02
    -19.656  0.3662E-03  0.6706E-02
    -19.563  0.1818E-02  0.6875E-02
    -19.470  0.5935E-02  0.7427E-02
    -19.377  0.1276E-01  0.8614E-02
    -19.284  0.1805E-01  0.1029E-01
    -19.190  0.1683E-01  0.1186E-01
    -19.097  0.1033E-01  0.1282E-01
    -19.004  0.4178E-02  0.1321E-01
    -18.911  0.1112E-02  0.1331E-01
    -18.818  0.1945E-03  0.1333E-01
    -18.725  0.2236E-04  0.1333E-01
    -18.632  0.1687E-05  0.1333E-01
    -18.539  0.8344E-07  0.1333E-01
    -18.446  0.2703E-08  0.1333E-01
    -18.353  0.5731E-10  0.1333E-01
    -18.260  0.7942E-12  0.1333E-01
    -18.167  0.7183E-14  0.1333E-01
    -18.074  0.4773E-16  0.1333E-01
    -17.981  0.0000E+00  0.1333E-01
    -17.888  0.0000E+00  0.1333E-01
    -17.795  0.0000E+00  0.1333E-01
    -17.702  0.0000E+00  0.1333E-01
    -17.609  0.0000E+00  0.1333E-01
    -17.516  0.0000E+00  0.1333E-01
    -17.423  0.0000E+00  0.1333E-01
    -17.330  0.0000E+00  0.1333E-01
    -17.237  0.0000E+00  0.1333E-01
    -17.144  0.0000E+00  0.1333E-01
    -17.051  0.0000E+00  0.1333E-01
    -16.957  0.0000E+00  0.1333E-01
    -16.864  0.0000E+00  0.1333E-01
    -16.771  0.0000E+00  0.1333E-01
    -16.678  0.0000E+00  0.1333E-01
    -16.585  0.0000E+00  0.1333E-01
    -16.492  0.0000E+00  0.1333E-01
    -16.399  0.0000E+00  0.1333E-01
    -16.306  0.0000E+00  0.1333E-01
    -16.213  0.0000E+00  0.1333E-01
    -16.120  0.0000E+00  0.1333E-01
    -16.027  0.0000E+00  0.1333E-01
    -15.934  0.0000E+00  0.1333E-01
    -15.841  0.0000E+00  0.1333E-01
    -15.748  0.0000E+00  0.1333E-01
    -15.655  0.0000E+00  0.1333E-01
    -15.562  0.0000E+00  0.1333E-01
    -15.469  0.0000E+00  0.1333E-01
    -15.376  0.0000E+00  0.1333E-01
    -15.283  0.0000E+00  0.1333E-01
    -15.190  0.0000E+00  0.1333E-01
    -15.097  0.0000E+00  0.1333E-01
    -15.004  0.9546E-16  0.1333E-01
    -14.911  0.1504E-13  0.1333E-01
    -14.817  0.1558E-11  0.1333E-01
    -14.724  0.1054E-09  0.1333E-01
    -14.631  0.4663E-08  0.1333E-01
    -14.538  0.1350E-06  0.1333E-01
    -14.445  0.2560E-05  0.1333E-01
    -14.352  0.3184E-04  0.1334E-01
    -14.259  0.2600E-03  0.1336E-01
    -14.166  0.1395E-02  0.1349E-01
    -14.073  0.4921E-02  0.1395E-01
    -13.980  0.1143E-01  0.1501E-01
    -13.887  0.1747E-01  0.1664E-01
    -13.794  0.1759E-01  0.1827E-01
    -13.701  0.1167E-01  0.1936E-01
    -13.608  0.5099E-02  0.1983E-01
    -13.515  0.1466E-02  0.1997E-01
    -13.422  0.2772E-03  0.2000E-01
    -13.329  0.3445E-04  0.2000E-01
    -13.236  0.2810E-05  0.2000E-01
    -13.143  0.1503E-06  0.2000E-01
    -13.050  0.5267E-08  0.2000E-01
    -12.957  0.1208E-09  0.2000E-01
    -12.864  0.1815E-11  0.2000E-01
    -12.771  0.4356E-12  0.2000E-01
    -12.678  0.3414E-10  0.2000E-01
    -12.584  0.1823E-08  0.2000E-01
    -12.491  0.6370E-07  0.2000E-01
    -12.398  0.1457E-05  0.2000E-01
    -12.305  0.2186E-04  0.2000E-01
    -12.212  0.2151E-03  0.2002E-01
    -12.119  0.1391E-02  0.2015E-01
    -12.026  0.5911E-02  0.2070E-01
    -11.933  0.1653E-01  0.2224E-01
    -11.840  0.3045E-01  0.2507E-01
    -11.747  0.3693E-01  0.2851E-01
    -11.654  0.2951E-01  0.3125E-01
    -11.561  0.1553E-01  0.3270E-01
    -11.468  0.5383E-02  0.3320E-01
    -11.375  0.1227E-02  0.3331E-01
    -11.282  0.1840E-03  0.3333E-01
    -11.189  0.1812E-04  0.3333E-01
    -11.096  0.1170E-05  0.3333E-01
    -11.003  0.4956E-07  0.3333E-01
    -10.910  0.1374E-08  0.3333E-01
    -10.817  0.2493E-10  0.3333E-01
    -10.724  0.2955E-12  0.3333E-01
    -10.631  0.2291E-14  0.3333E-01
    -10.538  0.7955E-17  0.3333E-01
    -10.445  0.0000E+00  0.3333E-01
    -10.351  0.0000E+00  0.3333E-01
    -10.258  0.0000E+00  0.3333E-01
    -10.165  0.0000E+00  0.3333E-01
    -10.072  0.0000E+00  0.3333E-01
     -9.979  0.0000E+00  0.3333E-01
     -9.886  0.0000E+00  0.3333E-01
     -9.793  0.0000E+00  0.3333E-01
     -9.700  0.0000E+00  0.3333E-01
     -9.607  0.0000E+00  0.3333E-01
     -9.514  0.0000E+00  0.3333E-01
     -9.421  0.1909E-15  0.3333E-01
     -9.328  0.3011E-13  0.3333E-01
     -9.235  0.3118E-11  0.3333E-01
     -9.142  0.2110E-09  0.3333E-01
     -9.049  0.9333E-08  0.3333E-01
     -8.956  0.2702E-06  0.3333E-01
     -8.863  0.5124E-05  0.3333E-01
     -8.770  0.6372E-04  0.3334E-01
     -8.677  0.5202E-03  0.3339E-01
     -8.584  0.2790E-02  0.3365E-01
     -8.491  0.9843E-02  0.3456E-01
     -8.398  0.2285E-01  0.3669E-01
     -8.305  0.3494E-01  0.3994E-01
     -8.212  0.3519E-01  0.4322E-01
     -8.118  0.2334E-01  0.4539E-01
     -8.025  0.1020E-01  0.4634E-01
     -7.932  0.2931E-02  0.4661E-01
     -7.839  0.5543E-03  0.4666E-01
     -7.746  0.6957E-04  0.4667E-01
     -7.653  0.1622E-04  0.4667E-01
     -7.560  0.1052E-03  0.4668E-01
     -7.467  0.6819E-03  0.4674E-01
     -7.374  0.2913E-02  0.4701E-01
     -7.281  0.8188E-02  0.4777E-01
     -7.188  0.1515E-01  0.4918E-01
     -7.095  0.1847E-01  0.5090E-01
     -7.002  0.1483E-01  0.5228E-01
     -6.909  0.7841E-02  0.5301E-01
     -6.816  0.2730E-02  0.5327E-01
     -6.723  0.6252E-03  0.5332E-01
     -6.630  0.9413E-04  0.5333E-01
     -6.537  0.9308E-05  0.5333E-01
     -6.444  0.6039E-06  0.5333E-01
     -6.351  0.2568E-07  0.5333E-01
     -6.258  0.7148E-09  0.5333E-01
     -6.165  0.1302E-10  0.5333E-01
     -6.072  0.1549E-12  0.5333E-01
     -5.979  0.1201E-14  0.5333E-01
     -5.885  0.7955E-17  0.5333E-01
     -5.792  0.0000E+00  0.5333E-01
     -5.699  0.0000E+00  0.5333E-01
     -5.606  0.0000E+00  0.5333E-01
     -5.513  0.0000E+00  0.5333E-01
     -5.420  0.0000E+00  0.5333E-01
     -5.327  0.0000E+00  0.5333E-01
     -5.234  0.0000E+00  0.5333E-01
     -5.141  0.0000E+00  0.5333E-01
     -5.048  0.0000E+00  0.5333E-01
     -4.955  0.0000E+00  0.5333E-01
     -4.862  0.0000E+00  0.5333E-01
     -4.769  0.0000E+00  0.5333E-01
     -4.676  0.0000E+00  0.5333E-01
     -4.583  0.0000E+00  0.5333E-01
     -4.490  0.0000E+00  0.5333E-01
     -4.397  0.0000E+00  0.5333E-01
     -4.304  0.0000E+00  0.5333E-01
     -4.211  0.0000E+00  0.5333E-01
     -4.118  0.0000E+00  0.5333E-01
     -4.025  0.0000E+00  0.5333E-01
     -3.932  0.0000E+00  0.5333E-01
     -3.839  0.0000E+00  0.5333E-01
     -3.746  0.0000E+00  0.5333E-01
     -3.652  0.0000E+00  0.5333E-01
     -3.559  0.0000E+00  0.5333E-01
     -3.466  0.0000E+00  0.5333E-01
     -3.373  0.0000E+00  0.5333E-01
     -3.280  0.0000E+00  0.5333E-01
     -3.187  0.0000E+00  0.5333E-01
     -3.094  0.0000E+00  0.5333E-01
     -3.001  0.0000E+00  0.5333E-01
     -2.908  0.0000E+00  0.5333E-01
     -2.815  0.0000E+00  0.5333E-01
     -2.722  0.0000E+00  0.5333E-01
     -2.629  0.0000E+00  0.5333E-01
     -2.536  0.0000E+00  0.5333E-01
     -2.443  0.0000E+00  0.5333E-01
     -2.350  0.0000E+00  0.5333E-01
     -2.257  0.0000E+00  0.5333E-01
     -2.164  0.0000E+00  0.5333E-01
     -2.071  0.0000E+00  0.5333E-01
     -1.978  0.0000E+00  0.5333E-01
     -1.885  0.7557E-16  0.5333E-01
     -1.792  0.1211E-13  0.5333E-01
     -1.699  0.1286E-11  0.5333E-01
     -1.606  0.8941E-10  0.5333E-01
     -1.513  0.4082E-08  0.5333E-01
     -1.419  0.1228E-06  0.5333E-01
     -1.326  0.2442E-05  0.5333E-01
     -1.233  0.3232E-04  0.5334E-01
     -1.140  0.2867E-03  0.5336E-01
     -1.047  0.1719E-02  0.5352E-01
     -0.954  0.7030E-02  0.5418E-01
     -0.861  0.1978E-01  0.5602E-01
     -0.768  0.3846E-01  0.5960E-01
     -0.675  0.5173E-01  0.6441E-01
     -0.582  0.4793E-01  0.6887E-01
     -0.489  0.3037E-01  0.7169E-01
     -0.396  0.1314E-01  0.7292E-01
     -0.303  0.4416E-02  0.7333E-01
     -0.210  0.3538E-02  0.7366E-01
     -0.117  0.8093E-02  0.7441E-01
     -0.024  0.1499E-01  0.7580E-01
      0.069  0.1847E-01  0.7752E-01
      0.162  0.1501E-01  0.7892E-01
      0.255  0.8028E-02  0.7967E-01
      0.348  0.2828E-02  0.7993E-01
      0.441  0.6553E-03  0.7999E-01
      0.534  0.9984E-04  0.8000E-01
      0.627  0.9990E-05  0.8000E-01
      0.721  0.6558E-06  0.8000E-01
      0.814  0.2822E-07  0.8000E-01
      0.907  0.7950E-09  0.8000E-01
      1.000  0.1465E-10  0.8000E-01
      1.093  0.1764E-12  0.8000E-01
      1.186  0.1388E-14  0.8000E-01
      1.279  0.7955E-17  0.8000E-01
      1.372  0.0000E+00  0.8000E-01
      1.465  0.0000E+00  0.8000E-01
      1.558  0.0000E+00  0.8000E-01
      1.651  0.0000E+00  0.8000E-01
      1.744  0.0000E+00  0.8000E-01
      1.837  0.0000E+00  0.8000E-01
      1.930  0.0000E+00  0.8000E-01
      2.023  0.0000E+00  0.8000E-01
