    6    6  300    1
  0.4500000E+04  0.3000000E-08  0.3000000E-08  0.3000000E-08  0.0000000E+00
  1.000000000000000E-004
  CAR 
 unknown system                          
     16      4     12
 
  0.2500000E+00  0.2500000E+00  0.2500000E+00  0.2500000E+00
    1      -23.889486   1.000000
    2      -19.299151   1.000000
    3      -13.885489   1.000000
    4      -11.799329   1.000000
    5      -11.794892   1.000000
    6       -8.303202   1.000000
    7       -8.302786   1.000000
    8       -7.143951   1.000000
    9       -0.762280   0.000000
   10       -0.662954   0.000000
   11       -0.662517   0.000000
   12        0.023089   0.000000
 
 -0.2500000E+00  0.2500000E+00  0.2500000E+00  0.2500000E+00
    1      -23.889487   1.000000
    2      -19.299152   1.000000
    3      -13.885490   1.000000
    4      -11.799331   1.000000
    5      -11.794895   1.000000
    6       -8.303199   1.000000
    7       -8.302785   1.000000
    8       -7.143956   1.000000
    9       -0.762279   0.000000
   10       -0.662949   0.000000
   11       -0.662517   0.000000
   12        0.022779   0.000000
 
  0.2500000E+00 -0.2500000E+00  0.2500000E+00  0.2500000E+00
    1      -23.889487   1.000000
    2      -19.299150   1.000000
    3      -13.885490   1.000000
    4      -11.799336   1.000000
    5      -11.794894   1.000000
    6       -8.303209   1.000000
    7       -8.302784   1.000000
    8       -7.143953   1.000000
    9       -0.762280   0.000000
   10       -0.662945   0.000000
   11       -0.662519   0.000000
   12        0.022955   0.000000
 
 -0.2500000E+00 -0.2500000E+00  0.2500000E+00  0.2500000E+00
    1      -23.889487   1.000000
    2      -19.299150   1.000000
    3      -13.885494   1.000000
    4      -11.799337   1.000000
    5      -11.794897   1.000000
    6       -8.303211   1.000000
    7       -8.302794   1.000000
    8       -7.143952   1.000000
    9       -0.762279   0.000000
   10       -0.662943   0.000000
   11       -0.662513   0.000000
   12        0.022722   0.000000
