       N       E                     dE             d eps       ncg     rms          rms(c)
DAV:   1     0.112776347420E+03    0.11278E+03   -0.21455E+03   160   0.366E+02
DAV:   2    -0.203900009255E+01   -0.11482E+03   -0.11285E+03   192   0.110E+02
DAV:   3    -0.342066880734E+02   -0.32168E+02   -0.32013E+02   136   0.847E+01
DAV:   4    -0.388965718352E+02   -0.46899E+01   -0.46299E+01   128   0.309E+01
DAV:   5    -0.390514357805E+02   -0.15486E+00   -0.15338E+00   112   0.602E+00    0.104E+01
DAV:   6    -0.363810464338E+02    0.26704E+01   -0.43912E+00   112   0.147E+01    0.561E+00
DAV:   7    -0.356854597229E+02    0.69559E+00   -0.18007E+00   124   0.923E+00    0.226E+00
DAV:   8    -0.356143541310E+02    0.71106E-01   -0.14853E-01   128   0.295E+00    0.903E-01
DAV:   9    -0.355952696224E+02    0.19085E-01   -0.24012E-02   128   0.128E+00    0.219E-01
DAV:  10    -0.355950837207E+02    0.18590E-03   -0.42854E-03   128   0.506E-01    0.132E-01
DAV:  11    -0.355966917746E+02   -0.16081E-02   -0.15694E-03   124   0.324E-01    0.816E-02
DAV:  12    -0.356023735740E+02   -0.56818E-02   -0.32207E-03   112   0.433E-01    0.462E-02
DAV:  13    -0.356085126269E+02   -0.61391E-02   -0.16601E-03   124   0.252E-01    0.288E-02
DAV:  14    -0.356121552787E+02   -0.36427E-02   -0.43113E-04   128   0.113E-01    0.189E-02
DAV:  15    -0.356154749290E+02   -0.33197E-02   -0.34326E-04   128   0.878E-02    0.123E-02
DAV:  16    -0.356168073617E+02   -0.13324E-02   -0.12624E-04   128   0.557E-02    0.686E-03
DAV:  17    -0.356175289490E+02   -0.72159E-03   -0.22081E-05    84   0.356E-02    0.402E-03
DAV:  18    -0.356179973010E+02   -0.46835E-03   -0.31147E-05    96   0.259E-02    0.263E-03
DAV:  19    -0.356182059688E+02   -0.20867E-03   -0.10023E-05    72   0.197E-02    0.186E-03
DAV:  20    -0.356182776918E+02   -0.71723E-04   -0.31156E-06    80   0.114E-02
   1 F= -.35618278E+02 E0= -.35618278E+02  d E =-.356183E+02
       N       E                     dE             d eps       ncg     rms          rms(c)
DAV:   1    -0.356193545389E+02   -0.11486E-02   -0.15995E-01    96   0.382E+00    0.191E-01
DAV:   2    -0.356190245750E+02    0.32996E-03   -0.43314E-03   128   0.596E-01    0.909E-02
DAV:   3    -0.356188966146E+02    0.12796E-03   -0.65605E-04   128   0.243E-01    0.445E-02
DAV:   4    -0.356189028443E+02   -0.62297E-05   -0.15478E-04    96   0.132E-01    0.150E-02
DAV:   5    -0.356189058350E+02   -0.29907E-05   -0.24539E-05    96   0.504E-02    0.592E-03
DAV:   6    -0.356189075843E+02   -0.17494E-05   -0.47174E-06    64   0.219E-02
   2 F= -.35618908E+02 E0= -.35618908E+02  d E =-.629893E-03
       N       E                     dE             d eps       ncg     rms          rms(c)
DAV:   1    -0.356201303342E+02   -0.12245E-02   -0.15813E-02    96   0.120E+00    0.606E-02
DAV:   2    -0.356201008231E+02    0.29511E-04   -0.43180E-04   128   0.187E-01    0.293E-02
DAV:   3    -0.356200900324E+02    0.10791E-04   -0.55501E-05    96   0.767E-02    0.144E-02
DAV:   4    -0.356200966604E+02   -0.66280E-05   -0.40235E-05    88   0.623E-02    0.521E-03
DAV:   5    -0.356200989786E+02   -0.23182E-05   -0.68966E-06    64   0.275E-02    0.263E-03
DAV:   6    -0.356201008284E+02   -0.18498E-05   -0.16158E-06    56   0.123E-02
   3 F= -.35620101E+02 E0= -.35620101E+02  d E =-.119324E-02
       N       E                     dE             d eps       ncg     rms          rms(c)
DAV:   1    -0.356207034006E+02   -0.60442E-03   -0.32180E-02    96   0.172E+00    0.834E-02
DAV:   2    -0.356206406306E+02    0.62770E-04   -0.88887E-04   128   0.264E-01    0.413E-02
DAV:   3    -0.356206127588E+02    0.27872E-04   -0.10366E-04    96   0.105E-01    0.208E-02
DAV:   4    -0.356206154304E+02   -0.26716E-05   -0.81839E-05    96   0.885E-02    0.745E-03
DAV:   5    -0.356206159549E+02   -0.52445E-06   -0.14338E-05    96   0.400E-02    0.383E-03
DAV:   6    -0.356206167984E+02   -0.84358E-06   -0.32933E-06    64   0.170E-02
   4 F= -.35620617E+02 E0= -.35620617E+02  d E =-.515970E-03
       N       E                     dE             d eps       ncg     rms          rms(c)
DAV:   1    -0.356207177206E+02   -0.10177E-03   -0.17822E-04    80   0.133E-01    0.474E-03
DAV:   2    -0.356207190914E+02   -0.13708E-05   -0.10693E-05    64   0.332E-02    0.308E-03
DAV:   3    -0.356207196250E+02   -0.53356E-06   -0.11703E-06    48   0.108E-02    0.206E-03
DAV:   4    -0.356207207763E+02   -0.11513E-05   -0.87180E-07    64   0.975E-03    0.620E-04
DAV:   5    -0.356207211435E+02   -0.36717E-06   -0.22384E-07    48   0.448E-03    0.507E-04
DAV:   6    -0.356207215528E+02   -0.40931E-06   -0.68062E-08    80   0.221E-03
   5 F= -.35620722E+02 E0= -.35620722E+02  d E =-.104754E-03
       N       E                     dE             d eps       ncg     rms          rms(c)
DAV:   1    -0.356208996743E+02   -0.17853E-03   -0.66467E-04    96   0.249E-01    0.104E-02
DAV:   2    -0.356208990916E+02    0.58271E-06   -0.14804E-05    96   0.360E-02    0.541E-03
DAV:   3    -0.356208991158E+02   -0.24181E-07   -0.32497E-06    64   0.179E-02    0.271E-03
DAV:   4    -0.356208996152E+02   -0.49943E-06   -0.16826E-06    96   0.121E-02    0.104E-03
DAV:   5    -0.356208998324E+02   -0.21716E-06   -0.31879E-07    64   0.565E-03    0.546E-04
DAV:   6    -0.356208999960E+02   -0.16358E-06   -0.97477E-08    48   0.258E-03
   6 F= -.35620900E+02 E0= -.35620900E+02  d E =-.178443E-03
       N       E                     dE             d eps       ncg     rms          rms(c)
DAV:   1    -0.356211188669E+02   -0.21903E-03   -0.12567E-03    96   0.343E-01    0.134E-02
DAV:   2    -0.356211172348E+02    0.16321E-05   -0.26586E-05    64   0.477E-02    0.712E-03
DAV:   3    -0.356211167264E+02    0.50842E-06   -0.54058E-06    96   0.230E-02    0.368E-03
DAV:   4    -0.356211169043E+02   -0.17786E-06   -0.28706E-06    64   0.159E-02    0.139E-03
DAV:   5    -0.356211169285E+02   -0.24216E-07   -0.52729E-07    96   0.741E-03    0.744E-04
DAV:   6    -0.356211169579E+02   -0.29428E-07   -0.15493E-07    64   0.341E-03
   7 F= -.35621117E+02 E0= -.35621117E+02  d E =-.216962E-03
       N       E                     dE             d eps       ncg     rms          rms(c)
DAV:   1    -0.356213515779E+02   -0.23465E-03   -0.17692E-03    96   0.407E-01    0.143E-02
DAV:   2    -0.356213498365E+02    0.17414E-05   -0.33853E-05    64   0.531E-02    0.794E-03
DAV:   3    -0.356213491956E+02    0.64093E-06   -0.63855E-06    48   0.249E-02    0.416E-03
DAV:   4    -0.356213493714E+02   -0.17576E-06   -0.33580E-06    64   0.172E-02    0.154E-03
DAV:   5    -0.356213493919E+02   -0.20516E-07   -0.62363E-07    48   0.802E-03    0.817E-04
DAV:   6    -0.356213494529E+02   -0.61059E-07   -0.18145E-07    48   0.371E-03
   8 F= -.35621349E+02 E0= -.35621349E+02  d E =-.232495E-03
       N       E                     dE             d eps       ncg     rms          rms(c)
DAV:   1    -0.356216010300E+02   -0.25164E-03   -0.21429E-03    96   0.445E-01    0.132E-02
DAV:   2    -0.356216001028E+02    0.92717E-06   -0.33610E-05    64   0.524E-02    0.787E-03
DAV:   3    -0.356215997028E+02    0.39999E-06   -0.58439E-06    48   0.236E-02    0.399E-03
DAV:   4    -0.356215999850E+02   -0.28214E-06   -0.27514E-06    48   0.155E-02    0.143E-03
DAV:   5    -0.356216000561E+02   -0.71153E-07   -0.53771E-07    48   0.723E-03    0.693E-04
DAV:   6    -0.356216001703E+02   -0.11412E-06   -0.15967E-07    48   0.333E-03
   9 F= -.35621600E+02 E0= -.35621600E+02  d E =-.250717E-03
       N       E                     dE             d eps       ncg     rms          rms(c)
DAV:   1    -0.356218924572E+02   -0.29240E-03   -0.25227E-03    96   0.476E-01    0.118E-02
DAV:   2    -0.356218925348E+02   -0.77551E-07   -0.30244E-05    64   0.492E-02    0.748E-03
DAV:   3    -0.356218926402E+02   -0.10550E-06   -0.49472E-06    48   0.214E-02    0.303E-03
DAV:   4    -0.356218929810E+02   -0.34075E-06   -0.16395E-06    48   0.115E-02    0.117E-03
DAV:   5    -0.356218931111E+02   -0.13014E-06   -0.36758E-07    48   0.544E-03    0.427E-04
DAV:   6    -0.356218932557E+02   -0.14451E-06   -0.12890E-07    48   0.268E-03
  10 F= -.35621893E+02 E0= -.35621893E+02  d E =-.293085E-03
       N       E                     dE             d eps       ncg     rms          rms(c)
DAV:   1    -0.356222945983E+02   -0.40149E-03   -0.38707E-03    96   0.585E-01    0.134E-02
DAV:   2    -0.356222955535E+02   -0.95516E-06   -0.39891E-05    64   0.558E-02    0.862E-03
DAV:   3    -0.356222963765E+02   -0.82308E-06   -0.59256E-06    64   0.225E-02    0.194E-03
DAV:   4    -0.356222966516E+02   -0.27509E-06   -0.13781E-06    48   0.970E-03    0.901E-04
DAV:   5    -0.356222968172E+02   -0.16554E-06   -0.41420E-07    48   0.487E-03    0.337E-04
DAV:   6    -0.356222969716E+02   -0.15441E-06   -0.16878E-07    48   0.275E-03
  11 F= -.35622297E+02 E0= -.35622297E+02  d E =-.403716E-03
       N       E                     dE             d eps       ncg     rms          rms(c)
DAV:   1    -0.356228382982E+02   -0.54148E-03   -0.62815E-03    96   0.749E-01    0.176E-02
DAV:   2    -0.356228397949E+02   -0.14967E-05   -0.69235E-05    80   0.732E-02    0.114E-02
DAV:   3    -0.356228408423E+02   -0.10474E-05   -0.10291E-05    76   0.299E-02    0.321E-03
DAV:   4    -0.356228413860E+02   -0.54369E-06   -0.25192E-06    56   0.134E-02    0.127E-03
DAV:   5    -0.356228416081E+02   -0.22209E-06   -0.70029E-07    52   0.654E-03    0.489E-04
DAV:   6    -0.356228417904E+02   -0.18232E-06   -0.26329E-07    48   0.362E-03
  12 F= -.35622842E+02 E0= -.35622842E+02  d E =-.544819E-03
       N       E                     dE             d eps       ncg     rms          rms(c)
DAV:   1    -0.356235101368E+02   -0.66853E-03   -0.98292E-03    96   0.946E-01    0.233E-02
DAV:   2    -0.356235118420E+02   -0.17052E-05   -0.12030E-04    80   0.967E-02    0.151E-02
DAV:   3    -0.356235124455E+02   -0.60347E-06   -0.18519E-05    96   0.410E-02    0.573E-03
DAV:   4    -0.356235135924E+02   -0.11469E-05   -0.55959E-06    64   0.211E-02    0.201E-03
DAV:   5    -0.356235138930E+02   -0.30055E-06   -0.13123E-06    48   0.985E-03    0.836E-04
DAV:   6    -0.356235141517E+02   -0.25870E-06   -0.43686E-07    48   0.513E-03
  13 F= -.35623514E+02 E0= -.35623514E+02  d E =-.672361E-03
       N       E                     dE             d eps       ncg     rms          rms(c)
DAV:   1    -0.356242896762E+02   -0.77578E-03   -0.14543E-02    96   0.115E+00    0.281E-02
DAV:   2    -0.356242948395E+02   -0.51634E-05   -0.19608E-04   104   0.115E-01    0.193E-02
DAV:   3    -0.356242935843E+02    0.12553E-05   -0.99535E-06    72   0.339E-02    0.774E-03
DAV:   4    -0.356242952656E+02   -0.16813E-05   -0.48644E-06    64   0.207E-02    0.233E-03
DAV:   5    -0.356242955719E+02   -0.30627E-06   -0.10058E-06    48   0.969E-03    0.108E-03
DAV:   6    -0.356242959430E+02   -0.37112E-06   -0.30036E-07    64   0.463E-03
  14 F= -.35624296E+02 E0= -.35624296E+02  d E =-.781791E-03
       N       E                     dE             d eps       ncg     rms          rms(c)
DAV:   1    -0.356252335055E+02   -0.93793E-03   -0.20287E-02    96   0.136E+00    0.310E-02
DAV:   2    -0.356252408091E+02   -0.73036E-05   -0.22992E-04   116   0.123E-01    0.212E-02
DAV:   3    -0.356252421980E+02   -0.13889E-05   -0.95412E-06    64   0.321E-02    0.540E-03
DAV:   4    -0.356252434750E+02   -0.12770E-05   -0.31406E-06    48   0.151E-02    0.203E-03
DAV:   5    -0.356252439257E+02   -0.45075E-06   -0.63681E-07    48   0.684E-03    0.872E-04
DAV:   6    -0.356252444178E+02   -0.49207E-06   -0.21011E-07    52   0.350E-03
  15 F= -.35625244E+02 E0= -.35625244E+02  d E =-.948475E-03
       N       E                     dE             d eps       ncg     rms          rms(c)
DAV:   1    -0.356264289366E+02   -0.11850E-02   -0.29645E-02    96   0.164E+00    0.371E-02
DAV:   2    -0.356264377609E+02   -0.88243E-05   -0.31845E-04    96   0.145E-01    0.252E-02
DAV:   3    -0.356264399357E+02   -0.21748E-05   -0.14613E-05    96   0.396E-02    0.560E-03
DAV:   4    -0.356264414706E+02   -0.15350E-05   -0.46554E-06    64   0.185E-02    0.247E-03
DAV:   5    -0.356264421245E+02   -0.65384E-06   -0.82888E-07    64   0.839E-03    0.804E-04
DAV:   6    -0.356264425963E+02   -0.47178E-06   -0.25903E-07    48   0.392E-03
  16 F= -.35626443E+02 E0= -.35626443E+02  d E =-.119818E-02
       N       E                     dE             d eps       ncg     rms          rms(c)
DAV:   1    -0.356278277127E+02   -0.13856E-02   -0.45214E-02    96   0.203E+00    0.470E-02
DAV:   2    -0.356278379758E+02   -0.10263E-04   -0.50767E-04   112   0.184E-01    0.319E-02
DAV:   3    -0.356278374341E+02    0.54179E-06   -0.28358E-05    96   0.560E-02    0.102E-02
DAV:   4    -0.356278411670E+02   -0.37329E-05   -0.10706E-05    64   0.300E-02    0.371E-03
DAV:   5    -0.356278420106E+02   -0.84362E-06   -0.19504E-06    64   0.142E-02    0.128E-03
DAV:   6    -0.356278428405E+02   -0.82989E-06   -0.59026E-07    48   0.624E-03
  17 F= -.35627843E+02 E0= -.35627843E+02  d E =-.140024E-02
       N       E                     dE             d eps       ncg     rms          rms(c)
DAV:   1    -0.356293968545E+02   -0.15548E-02   -0.64795E-02    96   0.243E+00    0.542E-02
DAV:   2    -0.356294135416E+02   -0.16687E-04   -0.66504E-04   124   0.206E-01    0.371E-02
DAV:   3    -0.356294193647E+02   -0.58231E-05   -0.32130E-05    80   0.575E-02    0.749E-03
DAV:   4    -0.356294221315E+02   -0.27668E-05   -0.94814E-06    48   0.264E-02    0.353E-03
DAV:   5    -0.356294234898E+02   -0.13583E-05   -0.16428E-06    64   0.118E-02    0.117E-03
DAV:   6    -0.356294245760E+02   -0.10863E-05   -0.52664E-07    48   0.564E-03
  18 F= -.35629425E+02 E0= -.35629425E+02  d E =-.158174E-02
       N       E                     dE             d eps       ncg     rms          rms(c)
DAV:   1    -0.356312229776E+02   -0.17995E-02   -0.93299E-02    96   0.292E+00    0.647E-02
DAV:   2    -0.356312500993E+02   -0.27122E-04   -0.95420E-04   120   0.243E-01    0.446E-02
DAV:   3    -0.356312618961E+02   -0.11797E-04   -0.42049E-05    80   0.652E-02    0.854E-03
DAV:   4    -0.356312655732E+02   -0.36770E-05   -0.11921E-05    64   0.286E-02    0.397E-03
DAV:   5    -0.356312671323E+02   -0.15591E-05   -0.22915E-06    48   0.130E-02    0.163E-03
DAV:   6    -0.356312686747E+02   -0.15424E-05   -0.75916E-07    48   0.689E-03
  19 F= -.35631269E+02 E0= -.35631269E+02  d E =-.184410E-02
       N       E                     dE             d eps       ncg     rms          rms(c)
DAV:   1    -0.356331726394E+02   -0.19055E-02   -0.13810E-01    96   0.356E+00    0.783E-02
DAV:   2    -0.356332153254E+02   -0.42686E-04   -0.14299E-03   128   0.298E-01    0.542E-02
DAV:   3    -0.356332284990E+02   -0.13174E-04   -0.66260E-05    72   0.831E-02    0.119E-02
DAV:   4    -0.356332350407E+02   -0.65416E-05   -0.19409E-05    80   0.378E-02    0.515E-03
DAV:   5    -0.356332369040E+02   -0.18634E-05   -0.37393E-06    56   0.176E-02    0.217E-03
DAV:   6    -0.356332388351E+02   -0.19311E-05   -0.12684E-06    56   0.928E-03
  20 F= -.35633239E+02 E0= -.35633239E+02  d E =-.197016E-02
       N       E                     dE             d eps       ncg     rms          rms(c)
DAV:   1    -0.356353078887E+02   -0.20710E-02   -0.19850E-01    96   0.425E+00    0.906E-02
DAV:   2    -0.356353760109E+02   -0.68122E-04   -0.19935E-03   128   0.351E-01    0.632E-02
DAV:   3    -0.356353928496E+02   -0.16839E-04   -0.85565E-05    80   0.910E-02    0.115E-02
DAV:   4    -0.356353994740E+02   -0.66244E-05   -0.24869E-05    96   0.409E-02    0.538E-03
DAV:   5    -0.356354026531E+02   -0.31791E-05   -0.44206E-06    64   0.180E-02    0.168E-03
DAV:   6    -0.356354045821E+02   -0.19290E-05   -0.12716E-06    48   0.844E-03
  21 F= -.35635405E+02 E0= -.35635405E+02  d E =-.216575E-02
       N       E                     dE             d eps       ncg     rms          rms(c)
DAV:   1    -0.356373996005E+02   -0.19969E-02   -0.29420E-01    96   0.518E+00    0.109E-01
DAV:   2    -0.356375161449E+02   -0.11654E-03   -0.30793E-03   128   0.438E-01    0.767E-02
DAV:   3    -0.356375274780E+02   -0.11333E-04   -0.12976E-04    80   0.115E-01    0.181E-02
DAV:   4    -0.356375414869E+02   -0.14009E-04   -0.42532E-05    92   0.551E-02    0.697E-03
DAV:   5    -0.356375458031E+02   -0.43163E-05   -0.78921E-06    64   0.255E-02    0.208E-03
DAV:   6    -0.356375484047E+02   -0.26016E-05   -0.21850E-06    48   0.114E-02
  22 F= -.35637548E+02 E0= -.35637548E+02  d E =-.214382E-02
       N       E                     dE             d eps       ncg     rms          rms(c)
DAV:   1    -0.356393596375E+02   -0.18138E-02   -0.41313E-01    96   0.614E+00    0.129E-01
DAV:   2    -0.356395459488E+02   -0.18631E-03   -0.45179E-03   128   0.533E-01    0.911E-02
DAV:   3    -0.356395613093E+02   -0.15361E-04   -0.22075E-04   124   0.140E-01    0.251E-02
DAV:   4    -0.356395815715E+02   -0.20262E-04   -0.31133E-05    72   0.499E-02    0.856E-03
DAV:   5    -0.356395862970E+02   -0.47255E-05   -0.69916E-06    64   0.238E-02    0.356E-03
DAV:   6    -0.356395907373E+02   -0.44404E-05   -0.21193E-06    48   0.118E-02
  23 F= -.35639591E+02 E0= -.35639591E+02  d E =-.204233E-02
       N       E                     dE             d eps       ncg     rms          rms(c)
DAV:   1    -0.356409918774E+02   -0.14056E-02   -0.55335E-01    96   0.708E+00    0.146E-01
DAV:   2    -0.356412644929E+02   -0.27262E-03   -0.60412E-03   128   0.612E-01    0.103E-01
DAV:   3    -0.356412701899E+02   -0.56970E-05   -0.25362E-04   112   0.150E-01    0.290E-02
DAV:   4    -0.356412976821E+02   -0.27492E-04   -0.43854E-05    96   0.566E-02    0.908E-03
DAV:   5    -0.356413049984E+02   -0.73163E-05   -0.89023E-06    64   0.264E-02    0.272E-03
DAV:   6    -0.356413090914E+02   -0.40929E-05   -0.20206E-06    48   0.111E-02
  24 F= -.35641309E+02 E0= -.35641309E+02  d E =-.171835E-02
       N       E                     dE             d eps       ncg     rms          rms(c)
DAV:   1    -0.356419282450E+02   -0.62325E-03   -0.71330E-01    96   0.803E+00    0.165E-01
DAV:   2    -0.356422855926E+02   -0.35735E-03   -0.79833E-03   128   0.703E-01    0.118E-01
DAV:   3    -0.356422894599E+02   -0.38672E-05   -0.35825E-04   128   0.178E-01    0.379E-02
DAV:   4    -0.356423300676E+02   -0.40608E-04   -0.54329E-05    64   0.664E-02    0.112E-02
DAV:   5    -0.356423383920E+02   -0.83244E-05   -0.12303E-05    64   0.309E-02    0.461E-03
DAV:   6    -0.356423453420E+02   -0.69500E-05   -0.34043E-06    64   0.148E-02
  25 F= -.35642345E+02 E0= -.35642345E+02  d E =-.103625E-02
       N       E                     dE             d eps       ncg     rms          rms(c)
DAV:   1    -0.356418103500E+02    0.52804E-03   -0.83271E-01    96   0.870E+00    0.191E-01
DAV:   2    -0.356422350764E+02   -0.42473E-03   -0.10618E-02   128   0.824E-01    0.134E-01
DAV:   3    -0.356421248639E+02    0.11021E-03   -0.55451E-04   128   0.228E-01    0.600E-02
DAV:   4    -0.356421924781E+02   -0.67614E-04   -0.16306E-04    96   0.124E-01    0.151E-02
DAV:   5    -0.356422006762E+02   -0.81981E-05   -0.35592E-05    84   0.574E-02    0.643E-03
DAV:   6    -0.356422079195E+02   -0.72433E-05   -0.80414E-06    68   0.239E-02
  26 F= -.35642208E+02 E0= -.35642208E+02  d E =0.137422E-03
       N       E                     dE             d eps       ncg     rms          rms(c)
DAV:   1    -0.356428804714E+02   -0.67980E-03   -0.15489E-02    96   0.118E+00    0.649E-02
DAV:   2    -0.356428493504E+02    0.31121E-04   -0.41017E-04   128   0.185E-01    0.291E-02
DAV:   3    -0.356428371923E+02    0.12158E-04   -0.56514E-05    96   0.786E-02    0.143E-02
DAV:   4    -0.356428427196E+02   -0.55272E-05   -0.41248E-05    64   0.632E-02    0.499E-03
DAV:   5    -0.356428456251E+02   -0.29056E-05   -0.72623E-06    92   0.263E-02    0.264E-03
DAV:   6    -0.356428481275E+02   -0.25023E-05   -0.13961E-06    64   0.119E-02
  27 F= -.35642848E+02 E0= -.35642848E+02  d E =-.640208E-03
       N       E                     dE             d eps       ncg     rms          rms(c)
DAV:   1    -0.356426451527E+02    0.20047E-03   -0.23573E-02    96   0.146E+00    0.797E-02
DAV:   2    -0.356425903283E+02    0.54824E-04   -0.63148E-04   112   0.229E-01    0.356E-02
DAV:   3    -0.356425665147E+02    0.23814E-04   -0.84834E-05    96   0.964E-02    0.174E-02
DAV:   4    -0.356425663282E+02    0.18645E-06   -0.62780E-05    64   0.780E-02    0.612E-03
DAV:   5    -0.356425670909E+02   -0.76265E-06   -0.11027E-05    96   0.325E-02    0.332E-03
DAV:   6    -0.356425678582E+02   -0.76729E-06   -0.20120E-06    64   0.142E-02
  28 F= -.35642568E+02 E0= -.35642568E+02  d E =0.280269E-03
       N       E                     dE             d eps       ncg     rms          rms(c)
DAV:   1    -0.356426789927E+02   -0.11190E-03   -0.45432E-04    96   0.202E-01    0.111E-02
DAV:   2    -0.356426788464E+02    0.14623E-06   -0.10188E-05    64   0.319E-02    0.503E-03
DAV:   3    -0.356426794541E+02   -0.60763E-06   -0.29532E-06    64   0.172E-02    0.222E-03
DAV:   4    -0.356426805366E+02   -0.10826E-05   -0.13744E-06    68   0.110E-02    0.791E-04
DAV:   5    -0.356426812426E+02   -0.70599E-06   -0.27776E-07    52   0.499E-03    0.359E-04
DAV:   6    -0.356426818288E+02   -0.58615E-06   -0.73305E-08    80   0.234E-03
  29 F= -.35642682E+02 E0= -.35642682E+02  d E =-.113971E-03
       N       E                     dE             d eps       ncg     rms          rms(c)
DAV:   1    -0.356428268823E+02   -0.14564E-03   -0.14986E-03    96   0.367E-01    0.201E-02
DAV:   2    -0.356428232002E+02    0.36822E-05   -0.34198E-05    72   0.579E-02    0.917E-03
DAV:   3    -0.356428225322E+02    0.66800E-06   -0.10036E-05    96   0.318E-02    0.407E-03
DAV:   4    -0.356428231183E+02   -0.58611E-06   -0.44541E-06    64   0.200E-02    0.143E-03
DAV:   5    -0.356428234137E+02   -0.29540E-06   -0.87512E-07    96   0.885E-03    0.669E-04
DAV:   6    -0.356428235879E+02   -0.17425E-06   -0.15505E-07    64   0.383E-03
  30 F= -.35642824E+02 E0= -.35642824E+02  d E =-.141759E-03
       N       E                     dE             d eps       ncg     rms          rms(c)
DAV:   1    -0.356429031684E+02   -0.79755E-04   -0.23814E-03    96   0.463E-01    0.252E-02
DAV:   2    -0.356428961847E+02    0.69837E-05   -0.54573E-05    64   0.730E-02    0.116E-02
DAV:   3    -0.356428944135E+02    0.17712E-05   -0.16053E-05    96   0.402E-02    0.514E-03
DAV:   4    -0.356428946855E+02   -0.27203E-06   -0.70861E-06    64   0.252E-02    0.181E-03
DAV:   5    -0.356428947697E+02   -0.84139E-07   -0.13798E-06    64   0.111E-02    0.852E-04
DAV:   6    -0.356428948045E+02   -0.34843E-07   -0.23631E-07    48   0.480E-03
  31 F= -.35642895E+02 E0= -.35642895E+02  d E =-.712166E-04
       N       E                     dE             d eps       ncg     rms          rms(c)
DAV:   1    -0.356428608148E+02    0.33955E-04   -0.22378E-03    96   0.448E-01    0.238E-02
DAV:   2    -0.356428543473E+02    0.64675E-05   -0.52266E-05    64   0.706E-02    0.112E-02
DAV:   3    -0.356428526671E+02    0.16802E-05   -0.15179E-05    48   0.388E-02    0.491E-03
DAV:   4    -0.356428529000E+02   -0.23295E-06   -0.66702E-06    56   0.245E-02    0.175E-03
DAV:   5    -0.356428529650E+02   -0.64998E-07   -0.12897E-06    48   0.108E-02    0.853E-04
DAV:   6    -0.356428530504E+02   -0.85365E-07   -0.23134E-07    48   0.470E-03
  32 F= -.35642853E+02 E0= -.35642853E+02  d E =0.417542E-04
       N       E                     dE             d eps       ncg     rms          rms(c)
DAV:   1    -0.356428572228E+02   -0.42578E-05   -0.37244E-06    48   0.189E-02    0.916E-04
DAV:   2    -0.356428573987E+02   -0.17587E-06   -0.25002E-07    48   0.462E-03    0.468E-04
DAV:   3    -0.356428575767E+02   -0.17801E-06   -0.48554E-08    48   0.160E-03    0.288E-04
DAV:   4    -0.356428579154E+02   -0.33871E-06   -0.42564E-08    64   0.131E-03    0.997E-05
DAV:   5    -0.356428580094E+02   -0.93984E-07   -0.25962E-08    48   0.618E-04    0.790E-05
DAV:   6    -0.356428582163E+02   -0.20697E-06   -0.26942E-08    48   0.446E-04
  33 F= -.35642858E+02 E0= -.35642858E+02  d E =-.516596E-05
       N       E                     dE             d eps       ncg     rms          rms(c)
DAV:   1    -0.356428655950E+02   -0.75856E-05   -0.14554E-05    48   0.372E-02    0.177E-03
DAV:   2    -0.356428657050E+02   -0.10997E-06   -0.89376E-07    48   0.918E-03    0.884E-04
DAV:   3    -0.356428657636E+02   -0.58633E-07   -0.11853E-07    48   0.302E-03    0.567E-04
DAV:   4    -0.356428658901E+02   -0.12653E-06   -0.92267E-08    68   0.278E-03    0.172E-04
DAV:   5    -0.356428659360E+02   -0.45906E-07   -0.42095E-08    48   0.133E-03    0.129E-04
DAV:   6    -0.356428659853E+02   -0.49229E-07   -0.28887E-08    48   0.568E-04
  34 F= -.35642866E+02 E0= -.35642866E+02  d E =-.776894E-05
       N       E                     dE             d eps       ncg     rms          rms(c)
DAV:   1    -0.356428752452E+02   -0.93091E-05   -0.30191E-05    60   0.536E-02    0.256E-03
DAV:   2    -0.356428753253E+02   -0.80154E-07   -0.18458E-06    64   0.133E-02    0.128E-03
DAV:   3    -0.356428753219E+02    0.34687E-08   -0.22554E-07    48   0.436E-03    0.823E-04
DAV:   4    -0.356428753486E+02   -0.26772E-07   -0.17072E-07    80   0.405E-03    0.250E-04
DAV:   5    -0.356428753639E+02   -0.15235E-07   -0.66791E-08    48   0.194E-03    0.187E-04
DAV:   6    -0.356428753783E+02   -0.14408E-07   -0.37699E-08    48   0.808E-04
  35 F= -.35642875E+02 E0= -.35642875E+02  d E =-.939300E-05
       N       E                     dE             d eps       ncg     rms          rms(c)
DAV:   1    -0.356428847930E+02   -0.94292E-05   -0.47870E-05    48   0.675E-02    0.323E-03
DAV:   2    -0.356428848562E+02   -0.63170E-07   -0.29200E-06    68   0.167E-02    0.161E-03
DAV:   3    -0.356428848097E+02    0.46487E-07   -0.34729E-07    48   0.550E-03    0.104E-03
DAV:   4    -0.356428847832E+02    0.26484E-07   -0.25950E-07    68   0.512E-03    0.316E-04
DAV:   5    -0.356428847883E+02   -0.50788E-08   -0.92621E-08    48   0.247E-03    0.236E-04
DAV:   6    -0.356428847939E+02   -0.55643E-08   -0.45022E-08    48   0.102E-03
  36 F= -.35642885E+02 E0= -.35642885E+02  d E =-.941559E-05
       N       E                     dE             d eps       ncg     rms          rms(c)
DAV:   1    -0.356428926953E+02   -0.79070E-05   -0.64074E-05    48   0.781E-02    0.374E-03
DAV:   2    -0.356428927806E+02   -0.85315E-07   -0.39043E-06    64   0.194E-02    0.186E-03
DAV:   3    -0.356428927162E+02    0.64399E-07   -0.45714E-07    48   0.638E-03    0.120E-03
DAV:   4    -0.356428926770E+02    0.39222E-07   -0.33789E-07    48   0.594E-03    0.365E-04
DAV:   5    -0.356428926824E+02   -0.54092E-08   -0.11410E-07    48   0.286E-03    0.275E-04
DAV:   6    -0.356428926884E+02   -0.59988E-08   -0.49665E-08    48   0.119E-03
  37 F= -.35642893E+02 E0= -.35642893E+02  d E =-.789454E-05
       N       E                     dE             d eps       ncg     rms          rms(c)
DAV:   1    -0.356428976848E+02   -0.50024E-05   -0.75260E-05    48   0.847E-02    0.403E-03
DAV:   2    -0.356428978048E+02   -0.11997E-06   -0.45880E-06    64   0.211E-02    0.201E-03
DAV:   3    -0.356428977349E+02    0.69884E-07   -0.53370E-07    48   0.692E-03    0.129E-03
DAV:   4    -0.356428976935E+02    0.41396E-07   -0.39043E-07    48   0.645E-03    0.393E-04
DAV:   5    -0.356428977009E+02   -0.73819E-08   -0.12841E-07    48   0.311E-03    0.301E-04
DAV:   6    -0.356428977079E+02   -0.69556E-08   -0.52054E-08    48   0.129E-03
  38 F= -.35642898E+02 E0= -.35642898E+02  d E =-.501946E-05
       N       E                     dE             d eps       ncg     rms          rms(c)
DAV:   1    -0.356428989782E+02   -0.12773E-05   -0.95200E-05    48   0.954E-02    0.448E-03
DAV:   2    -0.356428991536E+02   -0.17535E-06   -0.57964E-06    64   0.238E-02    0.224E-03
DAV:   3    -0.356428990728E+02    0.80757E-07   -0.66829E-07    48   0.778E-03    0.143E-03
DAV:   4    -0.356428990251E+02    0.47760E-07   -0.47884E-07    48   0.723E-03    0.435E-04
DAV:   5    -0.356428990341E+02   -0.90367E-08   -0.15331E-07    48   0.349E-03    0.344E-04
DAV:   6    -0.356428990413E+02   -0.71798E-08   -0.55898E-08    48   0.145E-03
  39 F= -.35642899E+02 E0= -.35642899E+02  d E =-.133342E-05
       N       E                     dE             d eps       ncg     rms          rms(c)
DAV:   1    -0.356428990883E+02   -0.54203E-07   -0.52676E-08    48   0.114E-03    0.103E-04
DAV:   2    -0.356428991042E+02   -0.15899E-07   -0.39434E-08    48   0.568E-04    0.757E-05
DAV:   3    -0.356428991293E+02   -0.25087E-07   -0.37981E-08    48   0.388E-04    0.259E-05
DAV:   4    -0.356428991451E+02   -0.15807E-07   -0.36834E-08    48   0.205E-04    0.175E-05
DAV:   5    -0.356428991727E+02   -0.27594E-07   -0.36718E-08    48   0.103E-04    0.108E-05
DAV:   6    -0.356428992155E+02   -0.42844E-07   -0.36571E-08    64   0.106E-04
  40 F= -.35642899E+02 E0= -.35642899E+02  d E =-.174254E-06
       N       E                     dE             d eps       ncg     rms          rms(c)
DAV:   1    -0.356428992798E+02   -0.10707E-06   -0.45908E-08    48   0.962E-04    0.349E-05
DAV:   2    -0.356428992876E+02   -0.78549E-08   -0.36123E-08    48   0.235E-04    0.231E-05
DAV:   3    -0.356428992945E+02   -0.68417E-08   -0.35329E-08    48   0.867E-05    0.150E-05
DAV:   4    -0.356428993039E+02   -0.94823E-08   -0.35013E-08    48   0.762E-05    0.584E-06
DAV:   5    -0.356428993070E+02   -0.30566E-08   -0.34868E-08    48   0.393E-05    0.441E-06
DAV:   6    -0.356428993118E+02   -0.47905E-08   -0.34613E-08    48   0.254E-05
  41 F= -.35642899E+02 E0= -.35642899E+02  d E =-.962497E-07
       N       E                     dE             d eps       ncg     rms          rms(c)
DAV:   1    -0.356428993663E+02   -0.59342E-07   -0.72145E-08    48   0.183E-03    0.502E-05
DAV:   2    -0.356428993685E+02   -0.21309E-08   -0.36251E-08    48   0.434E-04    0.341E-05
DAV:   3    -0.356428993697E+02   -0.12553E-08   -0.34481E-08    48   0.137E-04    0.237E-05
DAV:   4    -0.356428993712E+02   -0.14609E-08   -0.34208E-08    48   0.864E-05    0.896E-06
DAV:   5    -0.356428993719E+02   -0.67666E-09   -0.34080E-08    48   0.408E-05    0.566E-06
DAV:   6    -0.356428993723E+02   -0.40859E-09   -0.33991E-08    48   0.200E-05
  42 F= -.35642899E+02 E0= -.35642899E+02  d E =-.604839E-07
       N       E                     dE             d eps       ncg     rms          rms(c)
DAV:   1    -0.356428994467E+02   -0.74842E-07   -0.15664E-07    48   0.327E-03    0.829E-05
DAV:   2    -0.356428994482E+02   -0.14891E-08   -0.39920E-08    48   0.781E-04    0.542E-05
DAV:   3    -0.356428994487E+02   -0.49317E-09   -0.34452E-08    48   0.241E-04    0.381E-05
DAV:   4    -0.356428994489E+02   -0.24284E-09   -0.33869E-08    48   0.131E-04    0.156E-05
DAV:   5    -0.356428994490E+02   -0.22737E-10   -0.33680E-08    48   0.654E-05    0.802E-06
DAV:   6    -0.356428994490E+02    0.90949E-12   -0.33582E-08    48   0.324E-05
  43 F= -.35642899E+02 E0= -.35642899E+02  d E =-.766800E-07
       N       E                     dE             d eps       ncg     rms          rms(c)
DAV:   1    -0.356428995506E+02   -0.10160E-06   -0.41171E-07    48   0.572E-03    0.139E-04
DAV:   2    -0.356428995535E+02   -0.29245E-08   -0.52254E-08    48   0.137E-03    0.881E-05
DAV:   3    -0.356428995542E+02   -0.70304E-09   -0.35717E-08    48   0.419E-04    0.578E-05
DAV:   4    -0.356428995545E+02   -0.35789E-09   -0.34026E-08    48   0.214E-04    0.213E-05
DAV:   5    -0.356428995544E+02    0.10482E-09   -0.33604E-08    48   0.105E-04    0.123E-05
DAV:   6    -0.356428995545E+02   -0.26603E-10   -0.33468E-08    48   0.551E-05
  44 F= -.35642900E+02 E0= -.35642900E+02  d E =-.105506E-06
       N       E                     dE             d eps       ncg     rms          rms(c)
DAV:   1    -0.356428996639E+02   -0.10948E-06   -0.11439E-06    48   0.964E-03    0.225E-04
DAV:   2    -0.356428996697E+02   -0.57346E-08   -0.87755E-08    48   0.233E-03    0.142E-04
DAV:   3    -0.356428996713E+02   -0.16132E-08   -0.39696E-08    48   0.697E-04    0.824E-05
DAV:   4    -0.356428996716E+02   -0.36857E-09   -0.34933E-08    48   0.339E-04    0.256E-05
DAV:   5    -0.356428996716E+02    0.51386E-10   -0.33783E-08    48   0.164E-04    0.182E-05
DAV:   6    -0.356428996715E+02    0.77989E-10   -0.33452E-08    48   0.897E-05
  45 F= -.35642900E+02 E0= -.35642900E+02  d E =-.117044E-06
       N       E                     dE             d eps       ncg     rms          rms(c)
DAV:   1    -0.356428997557E+02   -0.84110E-07   -0.34749E-06    48   0.167E-02    0.385E-04
DAV:   2    -0.356428997707E+02   -0.14968E-07   -0.20043E-07    48   0.406E-03    0.243E-04
DAV:   3    -0.356428997738E+02   -0.31769E-08   -0.52682E-08    48   0.120E-03    0.124E-04
DAV:   4    -0.356428997746E+02   -0.74533E-09   -0.38058E-08    48   0.561E-04    0.344E-05
DAV:   5    -0.356428997746E+02   -0.45475E-11   -0.34788E-08    48   0.269E-04    0.282E-05
DAV:   6    -0.356428997745E+02    0.96406E-10   -0.33694E-08    48   0.150E-04
  46 F= -.35642900E+02 E0= -.35642900E+02  d E =-.102986E-06
       N       E                     dE             d eps       ncg     rms          rms(c)
DAV:   1    -0.356428997637E+02    0.10879E-07   -0.10417E-05    48   0.292E-02    0.664E-04
DAV:   2    -0.356428998060E+02   -0.42307E-07   -0.53643E-07    48   0.706E-03    0.417E-04
DAV:   3    -0.356428998140E+02   -0.79517E-08   -0.91890E-08    48   0.208E-03    0.198E-04
DAV:   4    -0.356428998154E+02   -0.14493E-08   -0.47915E-08    48   0.967E-04    0.519E-05
DAV:   5    -0.356428998158E+02   -0.37016E-09   -0.38098E-08    48   0.472E-04    0.450E-05
DAV:   6    -0.356428998159E+02   -0.67303E-10   -0.34829E-08    48   0.268E-04
  47 F= -.35642900E+02 E0= -.35642900E+02  d E =-.413631E-07
       N       E                     dE             d eps       ncg     rms          rms(c)
DAV:   1    -0.356428995793E+02    0.23646E-06   -0.30665E-05    48   0.504E-02    0.114E-03
DAV:   2    -0.356428997024E+02   -0.12312E-06   -0.15176E-06    48   0.122E-02    0.716E-04
DAV:   3    -0.356428997250E+02   -0.22610E-07   -0.20657E-07    48   0.359E-03    0.328E-04
DAV:   4    -0.356428997289E+02   -0.38565E-08   -0.76656E-08    48   0.167E-03    0.850E-05
DAV:   5    -0.356428997299E+02   -0.10295E-08   -0.47838E-08    48   0.828E-04    0.746E-05
DAV:   6    -0.356428997302E+02   -0.27717E-09   -0.38145E-08    48   0.473E-04
  48 F= -.35642900E+02 E0= -.35642900E+02  d E =0.856425E-07
       N       E                     dE             d eps       ncg     rms          rms(c)
DAV:   1    -0.356428989999E+02    0.73001E-06   -0.85631E-05    48   0.845E-02    0.192E-03
DAV:   2    -0.356428993442E+02   -0.34425E-06   -0.41844E-06    48   0.204E-02    0.120E-03
DAV:   3    -0.356428994063E+02   -0.62138E-07   -0.51886E-07    48   0.603E-03    0.543E-04
DAV:   4    -0.356428994179E+02   -0.11607E-07   -0.15486E-07    48   0.281E-03    0.141E-04
DAV:   5    -0.356428994214E+02   -0.34540E-08   -0.74086E-08    48   0.140E-03    0.124E-04
DAV:   6    -0.356428994217E+02   -0.35493E-09   -0.46989E-08    48   0.802E-04
  49 F= -.35642899E+02 E0= -.35642899E+02  d E =0.308480E-06
       N       E                     dE             d eps       ncg     rms          rms(c)
DAV:   1    -0.356428986898E+02    0.73153E-06   -0.23105E-04    96   0.136E-01    0.321E-03
DAV:   2    -0.356428987149E+02   -0.25047E-07   -0.25372E-06    48   0.138E-02    0.202E-03
DAV:   3    -0.356428987536E+02   -0.38689E-07   -0.42190E-07    48   0.574E-03    0.514E-04
DAV:   4    -0.356428987701E+02   -0.16518E-07   -0.13562E-07    48   0.260E-03    0.210E-04
DAV:   5    -0.356428987767E+02   -0.65952E-08   -0.62756E-08    48   0.127E-03    0.761E-05
DAV:   6    -0.356428987830E+02   -0.63130E-08   -0.44540E-08    48   0.702E-04
  50 F= -.35642899E+02 E0= -.35642899E+02  d E =0.638721E-06
       N       E                     dE             d eps       ncg     rms          rms(c)
DAV:   1    -0.356428978638E+02    0.91287E-06   -0.46908E-04    96   0.193E-01    0.456E-03
DAV:   2    -0.356428979372E+02   -0.73379E-07   -0.50891E-06    48   0.195E-02    0.289E-03
DAV:   3    -0.356428980249E+02   -0.87660E-07   -0.80753E-07    48   0.810E-03    0.736E-04
DAV:   4    -0.356428980610E+02   -0.36138E-07   -0.23369E-07    48   0.365E-03    0.294E-04
DAV:   5    -0.356428980750E+02   -0.13997E-07   -0.88799E-08    48   0.177E-03    0.109E-04
DAV:   6    -0.356428980872E+02   -0.12235E-07   -0.53189E-08    48   0.972E-04
  51 F= -.35642898E+02 E0= -.35642898E+02  d E =0.695773E-06
       N       E                     dE             d eps       ncg     rms          rms(c)
DAV:   1    -0.356428977300E+02    0.34504E-06   -0.60003E-04    96   0.216E-01    0.518E-03
DAV:   2    -0.356428978405E+02   -0.11050E-06   -0.64813E-06    48   0.215E-02    0.328E-03
DAV:   3    -0.356428979595E+02   -0.11908E-06   -0.10217E-06    56   0.904E-03    0.835E-04
DAV:   4    -0.356428980085E+02   -0.48966E-07   -0.28729E-07    48   0.407E-03    0.339E-04
DAV:   5    -0.356428980286E+02   -0.20087E-07   -0.10230E-07    48   0.194E-03    0.124E-04
DAV:   6    -0.356428980463E+02   -0.17696E-07   -0.56931E-08    48   0.106E-03
  52 F= -.35642898E+02 E0= -.35642898E+02  d E =0.409416E-07
       N       E                     dE             d eps       ncg     rms          rms(c)
DAV:   1    -0.356428979983E+02    0.30310E-07   -0.93550E-04    96   0.269E-01    0.653E-03
DAV:   2    -0.356428981924E+02   -0.19411E-06   -0.99818E-06    64   0.266E-02    0.413E-03
DAV:   3    -0.356428983738E+02   -0.18145E-06   -0.15686E-06    48   0.112E-02    0.104E-03
DAV:   4    -0.356428984461E+02   -0.72271E-07   -0.42389E-07    48   0.505E-03    0.434E-04
DAV:   5    -0.356428984738E+02   -0.27716E-07   -0.13680E-07    48   0.238E-03    0.159E-04
DAV:   6    -0.356428984986E+02   -0.24782E-07   -0.67252E-08    48   0.129E-03
  53 F= -.35642898E+02 E0= -.35642898E+02  d E =-.452318E-06
       N       E                     dE             d eps       ncg     rms          rms(c)
DAV:   1    -0.356428986693E+02   -0.19547E-06   -0.16016E-03    96   0.355E-01    0.862E-03
DAV:   2    -0.356428990255E+02   -0.35623E-06   -0.16965E-05    64   0.351E-02    0.544E-03
DAV:   3    -0.356428993339E+02   -0.30835E-06   -0.26689E-06    64   0.148E-02    0.135E-03
DAV:   4    -0.356428994510E+02   -0.11716E-06   -0.70170E-07    48   0.665E-03    0.578E-04
DAV:   5    -0.356428994938E+02   -0.42780E-07   -0.20966E-07    48   0.316E-03    0.216E-04
DAV:   6    -0.356428995314E+02   -0.37550E-07   -0.91217E-08    48   0.173E-03
  54 F= -.35642900E+02 E0= -.35642900E+02  d E =-.103275E-05
       N       E                     dE             d eps       ncg     rms          rms(c)
DAV:   1    -0.356428990361E+02    0.45771E-06   -0.28023E-03    96   0.472E-01    0.115E-02
DAV:   2    -0.356428996964E+02   -0.66025E-06   -0.29635E-05    64   0.469E-02    0.723E-03
DAV:   3    -0.356429002356E+02   -0.53923E-06   -0.46682E-06    64   0.197E-02    0.178E-03
DAV:   4    -0.356429004351E+02   -0.19948E-06   -0.12094E-06    48   0.887E-03    0.776E-04
DAV:   5    -0.356429005071E+02   -0.72048E-07   -0.34653E-07    48   0.427E-03    0.295E-04
DAV:   6    -0.356429005687E+02   -0.61631E-07   -0.13920E-07    48   0.236E-03
  55 F= -.35642901E+02 E0= -.35642901E+02  d E =-.103738E-05
       N       E                     dE             d eps       ncg     rms          rms(c)
DAV:   1    -0.356428985175E+02    0.19896E-05   -0.48605E-03    96   0.624E-01    0.152E-02
DAV:   2    -0.356428997363E+02   -0.12188E-05   -0.51400E-05    64   0.621E-02    0.955E-03
DAV:   3    -0.356429006460E+02   -0.90968E-06   -0.80985E-06    64   0.261E-02    0.235E-03
DAV:   4    -0.356429009894E+02   -0.34335E-06   -0.20832E-06    48   0.117E-02    0.103E-03
DAV:   5    -0.356429011159E+02   -0.12648E-06   -0.58461E-07    48   0.568E-03    0.396E-04
DAV:   6    -0.356429012223E+02   -0.10645E-06   -0.22366E-07    48   0.315E-03
  56 F= -.35642901E+02 E0= -.35642901E+02  d E =-.653561E-06
       N       E                     dE             d eps       ncg     rms          rms(c)
DAV:   1    -0.356428972496E+02    0.38662E-05   -0.82601E-03    96   0.815E-01    0.198E-02
DAV:   2    -0.356428994385E+02   -0.21888E-05   -0.87385E-05    64   0.813E-02    0.125E-02
DAV:   3    -0.356429009292E+02   -0.14907E-05   -0.13759E-05    64   0.341E-02    0.307E-03
DAV:   4    -0.356429015228E+02   -0.59368E-06   -0.35290E-06    48   0.153E-02    0.135E-03
DAV:   5    -0.356429017456E+02   -0.22280E-06   -0.98194E-07    48   0.745E-03    0.520E-04
DAV:   6    -0.356429019208E+02   -0.17514E-06   -0.36614E-07    48   0.414E-03
  57 F= -.35642902E+02 E0= -.35642902E+02  d E =-.698464E-06
       N       E                     dE             d eps       ncg     rms          rms(c)
DAV:   1    -0.356428940986E+02    0.76471E-05   -0.13709E-02    96   0.105E+00    0.256E-02
DAV:   2    -0.356429002673E+02   -0.61688E-05   -0.16860E-04    96   0.105E-01    0.167E-02
DAV:   3    -0.356429004130E+02   -0.14567E-06   -0.75847E-06    64   0.293E-02    0.485E-03
DAV:   4    -0.356429014101E+02   -0.99707E-06   -0.33308E-06    48   0.150E-02    0.209E-03
DAV:   5    -0.356429016997E+02   -0.28961E-06   -0.59501E-07    48   0.684E-03    0.612E-04
DAV:   6    -0.356429019174E+02   -0.21767E-06   -0.13489E-07    48   0.279E-03
  58 F= -.35642902E+02 E0= -.35642902E+02  d E =0.341709E-08
       N       E                     dE             d eps       ncg     rms          rms(c)
DAV:   1    -0.356428872298E+02    0.14470E-04   -0.22222E-02    96   0.134E+00    0.325E-02
DAV:   2    -0.356428974218E+02   -0.10192E-04   -0.27215E-04   112   0.133E-01    0.212E-02
DAV:   3    -0.356428976605E+02   -0.23871E-06   -0.12174E-05    72   0.371E-02    0.620E-03
DAV:   4    -0.356428993190E+02   -0.16585E-05   -0.53677E-06    48   0.191E-02    0.264E-03
DAV:   5    -0.356428998305E+02   -0.51148E-06   -0.96394E-07    48   0.877E-03    0.755E-04
DAV:   6    -0.356429001838E+02   -0.35328E-06   -0.20867E-07    48   0.357E-03
  59 F= -.35642900E+02 E0= -.35642900E+02  d E =0.173359E-05
       N       E                     dE             d eps       ncg     rms          rms(c)
DAV:   1    -0.356428759631E+02    0.23867E-04   -0.35221E-02    96   0.168E+00    0.410E-02
DAV:   2    -0.356428923432E+02   -0.16380E-04   -0.43124E-04   112   0.167E-01    0.267E-02
DAV:   3    -0.356428926636E+02   -0.32039E-06   -0.19166E-05    80   0.465E-02    0.781E-03
DAV:   4    -0.356428953100E+02   -0.26464E-05   -0.84882E-06    48   0.240E-02    0.331E-03
DAV:   5    -0.356428961375E+02   -0.82747E-06   -0.15195E-06    64   0.110E-02    0.931E-04
DAV:   6    -0.356428966850E+02   -0.54751E-06   -0.31852E-07    48   0.447E-03
  60 F= -.35642897E+02 E0= -.35642897E+02  d E =0.349877E-05
       N       E                     dE             d eps       ncg     rms          rms(c)
DAV:   1    -0.356428616520E+02    0.34486E-04   -0.54626E-02    96   0.209E+00    0.510E-02
DAV:   2    -0.356428871670E+02   -0.25515E-04   -0.66789E-04   112   0.208E-01    0.332E-02
DAV:   3    -0.356428878185E+02   -0.65154E-06   -0.29572E-05    80   0.576E-02    0.968E-03
DAV:   4    -0.356428918888E+02   -0.40703E-05   -0.13130E-05    48   0.297E-02    0.411E-03
DAV:   5    -0.356428932000E+02   -0.13111E-05   -0.23343E-06    64   0.136E-02    0.114E-03
DAV:   6    -0.356428940353E+02   -0.83533E-06   -0.48104E-07    48   0.551E-03
  61 F= -.35642894E+02 E0= -.35642894E+02  d E =0.264971E-05
       N       E                     dE             d eps       ncg     rms          rms(c)
DAV:   1    -0.356428372967E+02    0.55903E-04   -0.82972E-02    96   0.257E+00    0.628E-02
DAV:   2    -0.356428758640E+02   -0.38567E-04   -0.10122E-03   112   0.256E-01    0.410E-02
DAV:   3    -0.356428774454E+02   -0.15814E-05   -0.44754E-05    80   0.710E-02    0.118E-02
DAV:   4    -0.356428835844E+02   -0.61390E-05   -0.19904E-05    48   0.364E-02    0.505E-03
DAV:   5    -0.356428855329E+02   -0.19486E-05   -0.34931E-06    64   0.166E-02    0.138E-03
DAV:   6    -0.356428867634E+02   -0.12305E-05   -0.71352E-07    48   0.671E-03
  62 F= -.35642887E+02 E0= -.35642887E+02  d E =0.727184E-05
       N       E                     dE             d eps       ncg     rms          rms(c)
DAV:   1    -0.356427981421E+02    0.87391E-04   -0.12435E-01    96   0.315E+00    0.768E-02
DAV:   2    -0.356428553541E+02   -0.57212E-04   -0.15139E-03   112   0.312E-01    0.502E-02
DAV:   3    -0.356428590126E+02   -0.36586E-05   -0.66979E-05    80   0.869E-02    0.143E-02
DAV:   4    -0.356428682679E+02   -0.92553E-05   -0.29855E-05    64   0.445E-02    0.616E-03
DAV:   5    -0.356428710455E+02   -0.27776E-05   -0.51776E-06    64   0.202E-02    0.166E-03
DAV:   6    -0.356428727196E+02   -0.16741E-05   -0.10501E-06    48   0.814E-03
  63 F= -.35642873E+02 E0= -.35642873E+02  d E =0.140438E-04
       N       E                     dE             d eps       ncg     rms          rms(c)
DAV:   1    -0.356427561568E+02    0.11489E-03   -0.18378E-01    96   0.382E+00    0.933E-02
DAV:   2    -0.356428399160E+02   -0.83759E-04   -0.22362E-03   112   0.379E-01    0.610E-02
DAV:   3    -0.356428469226E+02   -0.70066E-05   -0.98952E-05    80   0.106E-01    0.174E-02
DAV:   4    -0.356428609548E+02   -0.14032E-04   -0.44346E-05    64   0.542E-02    0.748E-03
DAV:   5    -0.356428649157E+02   -0.39609E-05   -0.76587E-06    64   0.246E-02    0.199E-03
DAV:   6    -0.356428672034E+02   -0.22877E-05   -0.15517E-06    48   0.988E-03
  64 F= -.35642867E+02 E0= -.35642867E+02  d E =0.551628E-05
       N       E                     dE             d eps       ncg     rms          rms(c)
DAV:   1    -0.356427163849E+02    0.14853E-03   -0.26775E-01    96   0.461E+00    0.113E-01
DAV:   2    -0.356428381581E+02   -0.12177E-03   -0.32624E-03   112   0.458E-01    0.737E-02
DAV:   3    -0.356428514456E+02   -0.13288E-04   -0.16678E-04   112   0.128E-01    0.205E-02
DAV:   4    -0.356428708726E+02   -0.19427E-04   -0.41476E-05    64   0.515E-02    0.882E-03
DAV:   5    -0.356428758923E+02   -0.50197E-05   -0.57318E-06    64   0.213E-02    0.279E-03
DAV:   6    -0.356428793510E+02   -0.34587E-05   -0.10497E-06    48   0.850E-03
  65 F= -.35642879E+02 E0= -.35642879E+02  d E =-.121476E-04
       N       E                     dE             d eps       ncg     rms          rms(c)
DAV:   1    -0.356426945606E+02    0.18133E-03   -0.38384E-01    96   0.552E+00    0.135E-01
DAV:   2    -0.356428687849E+02   -0.17422E-03   -0.46782E-03   112   0.548E-01    0.885E-02
DAV:   3    -0.356428858341E+02   -0.17049E-04   -0.23879E-04   112   0.153E-01    0.247E-02
DAV:   4    -0.356429153682E+02   -0.29534E-04   -0.59727E-05    68   0.618E-02    0.105E-02
DAV:   5    -0.356429222071E+02   -0.68389E-05   -0.81908E-06    64   0.254E-02    0.341E-03
DAV:   6    -0.356429267336E+02   -0.45265E-05   -0.14924E-06    48   0.102E-02
  66 F= -.35642927E+02 E0= -.35642927E+02  d E =-.473827E-04
       N       E                     dE             d eps       ncg     rms          rms(c)
DAV:   1    -0.356426638115E+02    0.25840E-03   -0.54019E-01    96   0.655E+00    0.161E-01
DAV:   2    -0.356429199431E+02   -0.25613E-03   -0.66055E-03   112   0.652E-01    0.105E-01
DAV:   3    -0.356429318188E+02   -0.11876E-04   -0.33685E-04   112   0.181E-01    0.296E-02
DAV:   4    -0.356429762700E+02   -0.44451E-04   -0.84023E-05    80   0.735E-02    0.125E-02
DAV:   5    -0.356429860371E+02   -0.97672E-05   -0.11545E-05    64   0.300E-02    0.421E-03
DAV:   6    -0.356429922074E+02   -0.61703E-05   -0.21426E-06    64   0.122E-02
  67 F= -.35642992E+02 E0= -.35642992E+02  d E =-.654738E-04
       N       E                     dE             d eps       ncg     rms          rms(c)
DAV:   1    -0.356426182827E+02    0.36775E-03   -0.74219E-01    96   0.767E+00    0.188E-01
DAV:   2    -0.356429955638E+02   -0.37728E-03   -0.91002E-03   112   0.773E-01    0.123E-01
DAV:   3    -0.356429842697E+02    0.11294E-04   -0.46348E-04   116   0.213E-01    0.351E-02
DAV:   4    -0.356430509783E+02   -0.66709E-04   -0.13157E-04   108   0.866E-02    0.163E-02
DAV:   5    -0.356430623536E+02   -0.11375E-04   -0.62880E-06    64   0.249E-02    0.544E-03
DAV:   6    -0.356430714593E+02   -0.91057E-05   -0.25765E-06    64   0.132E-02
  68 F= -.35643071E+02 E0= -.35643071E+02  d E =-.792519E-04
       N       E                     dE             d eps       ncg     rms          rms(c)
DAV:   1    -0.356425226044E+02    0.53975E-03   -0.99109E-01    96   0.886E+00    0.218E-01
DAV:   2    -0.356430685482E+02   -0.54594E-03   -0.12166E-02   112   0.898E-01    0.143E-01
DAV:   3    -0.356430235496E+02    0.44999E-04   -0.61863E-04   128   0.248E-01    0.406E-02
DAV:   4    -0.356431033227E+02   -0.79773E-04   -0.17620E-04   112   0.100E-01    0.188E-02
DAV:   5    -0.356431202970E+02   -0.16974E-04   -0.82604E-06    64   0.284E-02    0.659E-03
DAV:   6    -0.356431336646E+02   -0.13368E-04   -0.35208E-06    64   0.155E-02
  69 F= -.35643134E+02 E0= -.35643134E+02  d E =-.622052E-04
       N       E                     dE             d eps       ncg     rms          rms(c)
DAV:   1    -0.356423648554E+02    0.75544E-03   -0.12789E+00    96   0.101E+01    0.248E-01
DAV:   2    -0.356431074106E+02   -0.74256E-03   -0.15719E-02   112   0.101E+00    0.162E-01
DAV:   3    -0.356430385214E+02    0.68889E-04   -0.78807E-04   128   0.279E-01    0.463E-02
DAV:   4    -0.356431343084E+02   -0.95787E-04   -0.22662E-04   112   0.113E-01    0.212E-02
DAV:   5    -0.356431556024E+02   -0.21294E-04   -0.10468E-05    64   0.320E-02    0.744E-03
DAV:   6    -0.356431728573E+02   -0.17255E-04   -0.43812E-06    64   0.172E-02
  70 F= -.35643173E+02 E0= -.35643173E+02  d E =-.391928E-04
       N       E                     dE             d eps       ncg     rms          rms(c)
DAV:   1    -0.356421898115E+02    0.96579E-03   -0.15463E+00    96   0.111E+01    0.273E-01
DAV:   2    -0.356430908538E+02   -0.90104E-03   -0.19082E-02   112   0.111E+00    0.179E-01
DAV:   3    -0.356429993231E+02    0.91531E-04   -0.97112E-04   128   0.307E-01    0.521E-02
DAV:   4    -0.356431207385E+02   -0.12142E-03   -0.28164E-04   128   0.128E-01    0.236E-02
DAV:   5    -0.356431446408E+02   -0.23902E-04   -0.15599E-05    64   0.396E-02    0.759E-03
DAV:   6    -0.356431642873E+02   -0.19647E-04   -0.57693E-06    80   0.198E-02
  71 F= -.35643164E+02 E0= -.35643164E+02  d E =0.856999E-05
       N       E                     dE             d eps       ncg     rms          rms(c)
DAV:   1    -0.356432267056E+02   -0.82065E-04   -0.61894E-04    96   0.237E-01    0.128E-02
DAV:   2    -0.356432348532E+02   -0.81477E-05   -0.14625E-05    96   0.374E-02    0.589E-03
DAV:   3    -0.356432443442E+02   -0.94909E-05   -0.42081E-06    64   0.204E-02    0.262E-03
DAV:   4    -0.356432554486E+02   -0.11104E-04   -0.22272E-06    80   0.134E-02    0.103E-03
DAV:   5    -0.356432636564E+02   -0.82078E-05   -0.61205E-07    64   0.644E-03    0.594E-04
DAV:   6    -0.356432712318E+02   -0.75754E-05   -0.36213E-07    96   0.373E-03
  72 F= -.35643271E+02 E0= -.35643271E+02  d E =-.106944E-03
       N       E                     dE             d eps       ncg     rms          rms(c)
DAV:   1    -0.356432945562E+02   -0.30900E-04   -0.13709E-03    96   0.353E-01    0.179E-02
DAV:   2    -0.356432934976E+02    0.10586E-05   -0.33111E-05    96   0.560E-02    0.842E-03
DAV:   3    -0.356432949989E+02   -0.15013E-05   -0.93008E-06    64   0.300E-02    0.362E-03
DAV:   4    -0.356432980565E+02   -0.30576E-05   -0.39809E-06    64   0.189E-02    0.133E-03
DAV:   5    -0.356433001203E+02   -0.20638E-05   -0.80548E-07    48   0.850E-03    0.707E-04
DAV:   6    -0.356433016312E+02   -0.15109E-05   -0.17408E-07    96   0.385E-03
  73 F= -.35643302E+02 E0= -.35643302E+02  d E =-.303995E-04
       N       E                     dE             d eps       ncg     rms          rms(c)
DAV:   1    -0.356432768146E+02    0.23306E-04   -0.15658E-03    96   0.371E-01    0.127E-02
DAV:   2    -0.356432763216E+02    0.49296E-06   -0.29580E-05    96   0.493E-02    0.719E-03
DAV:   3    -0.356432765191E+02   -0.19748E-06   -0.59936E-06    48   0.234E-02    0.365E-03
DAV:   4    -0.356432775421E+02   -0.10230E-05   -0.25698E-06    88   0.150E-02    0.143E-03
DAV:   5    -0.356432782797E+02   -0.73757E-06   -0.51950E-07    72   0.690E-03    0.670E-04
DAV:   6    -0.356432787768E+02   -0.49716E-06   -0.14289E-07    48   0.314E-03
  74 F= -.35643279E+02 E0= -.35643279E+02  d E =0.228544E-04
       N       E                     dE             d eps       ncg     rms          rms(c)
DAV:   1    -0.356432752549E+02    0.30247E-05   -0.41913E-03    96   0.579E-01    0.145E-02
DAV:   2    -0.356432760427E+02   -0.78781E-06   -0.44295E-05    64   0.584E-02    0.901E-03
DAV:   3    -0.356432775212E+02   -0.14785E-05   -0.72371E-06    52   0.246E-02    0.225E-03
DAV:   4    -0.356432780462E+02   -0.52499E-06   -0.18584E-06    48   0.111E-02    0.107E-03
DAV:   5    -0.356432783737E+02   -0.32748E-06   -0.51687E-07    48   0.540E-03    0.424E-04
DAV:   6    -0.356432786524E+02   -0.27867E-06   -0.19784E-07    48   0.303E-03
  75 F= -.35643279E+02 E0= -.35643279E+02  d E =0.124437E-06
       N       E                     dE             d eps       ncg     rms          rms(c)
DAV:   1    -0.356432971010E+02   -0.18727E-04   -0.13380E-02    96   0.104E+00    0.267E-02
DAV:   2    -0.356432980166E+02   -0.91559E-06   -0.14585E-04    64   0.107E-01    0.167E-02
DAV:   3    -0.356433012317E+02   -0.32152E-05   -0.24795E-05    92   0.464E-02    0.513E-03
DAV:   4    -0.356433025619E+02   -0.13302E-05   -0.67644E-06    64   0.221E-02    0.235E-03
DAV:   5    -0.356433028988E+02   -0.33688E-06   -0.16570E-06    48   0.102E-02    0.917E-04
DAV:   6    -0.356433031685E+02   -0.26968E-06   -0.59281E-07    48   0.558E-03
  76 F= -.35643303E+02 E0= -.35643303E+02  d E =-.245161E-04
       N       E                     dE             d eps       ncg     rms          rms(c)
DAV:   1    -0.356432773333E+02    0.25566E-04   -0.27053E-02    96   0.148E+00    0.378E-02
DAV:   2    -0.356432841949E+02   -0.68617E-05   -0.34347E-04   112   0.151E-01    0.248E-02
DAV:   3    -0.356432854485E+02   -0.12536E-05   -0.18522E-05    96   0.455E-02    0.900E-03
DAV:   4    -0.356432883532E+02   -0.29047E-05   -0.83400E-06    64   0.258E-02    0.326E-03
DAV:   5    -0.356432888474E+02   -0.49424E-06   -0.15713E-06    48   0.117E-02    0.127E-03
DAV:   6    -0.356432893556E+02   -0.50812E-06   -0.36258E-07    64   0.513E-03
  77 F= -.35643289E+02 E0= -.35643289E+02  d E =0.138129E-04
       N       E                     dE             d eps       ncg     rms          rms(c)
DAV:   1    -0.356432028150E+02    0.86032E-04   -0.54967E-02    96   0.210E+00    0.520E-02
DAV:   2    -0.356432205467E+02   -0.17732E-04   -0.67048E-04   112   0.210E-01    0.340E-02
DAV:   3    -0.356432263367E+02   -0.57900E-05   -0.32697E-05    80   0.606E-02    0.100E-02
DAV:   4    -0.356432309006E+02   -0.45639E-05   -0.13756E-05    60   0.311E-02    0.428E-03
DAV:   5    -0.356432320565E+02   -0.11559E-05   -0.23442E-06    52   0.138E-02    0.146E-03
DAV:   6    -0.356432330315E+02   -0.97501E-06   -0.52316E-07    60   0.592E-03
  78 F= -.35643233E+02 E0= -.35643233E+02  d E =0.563240E-04
       N       E                     dE             d eps       ncg     rms          rms(c)
DAV:   1    -0.356431459986E+02    0.86058E-04   -0.10255E-01    96   0.287E+00    0.710E-02
DAV:   2    -0.356431848854E+02   -0.38887E-04   -0.12668E-03   112   0.289E-01    0.460E-02
DAV:   3    -0.356431933003E+02   -0.84149E-05   -0.56618E-05    88   0.801E-02    0.139E-02
DAV:   4    -0.356432025179E+02   -0.92176E-05   -0.25752E-05    80   0.420E-02    0.574E-03
DAV:   5    -0.356432049059E+02   -0.23880E-05   -0.47182E-06    64   0.199E-02    0.161E-03
DAV:   6    -0.356432062932E+02   -0.13873E-05   -0.95566E-07    48   0.791E-03
  79 F= -.35643206E+02 E0= -.35643206E+02  d E =0.267383E-04
       N       E                     dE             d eps       ncg     rms          rms(c)
DAV:   1    -0.356430484584E+02    0.15645E-03   -0.17798E-01    96   0.379E+00    0.942E-02
DAV:   2    -0.356431193416E+02   -0.70883E-04   -0.22288E-03   112   0.384E-01    0.610E-02
DAV:   3    -0.356431271062E+02   -0.77646E-05   -0.98821E-05    80   0.106E-01    0.200E-02
DAV:   4    -0.356431457124E+02   -0.18606E-04   -0.47537E-05    64   0.584E-02    0.763E-03
DAV:   5    -0.356431495170E+02   -0.38046E-05   -0.92240E-06    64   0.285E-02    0.237E-03
DAV:   6    -0.356431517707E+02   -0.22537E-05   -0.18562E-06    48   0.112E-02
  80 F= -.35643152E+02 E0= -.35643152E+02  d E =0.545225E-04
       N       E                     dE             d eps       ncg     rms          rms(c)
DAV:   1    -0.356429427229E+02    0.20679E-03   -0.28147E-01    96   0.477E+00    0.117E-01
DAV:   2    -0.356430626716E+02   -0.11995E-03   -0.34214E-03   112   0.475E-01    0.759E-02
DAV:   3    -0.356430825478E+02   -0.19876E-04   -0.17565E-04   112   0.132E-01    0.210E-02
DAV:   4    -0.356431040101E+02   -0.21462E-04   -0.43393E-05    64   0.533E-02    0.908E-03
DAV:   5    -0.356431091870E+02   -0.51768E-05   -0.59207E-06    64   0.220E-02    0.282E-03
DAV:   6    -0.356431126570E+02   -0.34701E-05   -0.10677E-06    48   0.869E-03
  81 F= -.35643113E+02 E0= -.35643113E+02  d E =0.391136E-04
       N       E                     dE             d eps       ncg     rms          rms(c)
DAV:   1    -0.356428544391E+02    0.25475E-03   -0.41952E-01    96   0.583E+00    0.144E-01
DAV:   2    -0.356430362475E+02   -0.18181E-03   -0.51673E-03   112   0.585E-01    0.937E-02
DAV:   3    -0.356430516276E+02   -0.15380E-04   -0.27469E-04   112   0.167E-01    0.282E-02
DAV:   4    -0.356430877213E+02   -0.36094E-04   -0.69036E-05    96   0.697E-02    0.114E-02
DAV:   5    -0.356430947501E+02   -0.70288E-05   -0.10206E-05    64   0.301E-02    0.385E-03
DAV:   6    -0.356430996740E+02   -0.49240E-05   -0.21198E-06    64   0.125E-02
  82 F= -.35643100E+02 E0= -.35643100E+02  d E =0.129830E-04
       N       E                     dE             d eps       ncg     rms          rms(c)
DAV:   1    -0.356427999533E+02    0.29480E-03   -0.57008E-01    96   0.680E+00    0.168E-01
DAV:   2    -0.356430509632E+02   -0.25101E-03   -0.69728E-03   112   0.679E-01    0.109E-01
DAV:   3    -0.356430695767E+02   -0.18613E-04   -0.36799E-04   128   0.191E-01    0.319E-02
DAV:   4    -0.356431149448E+02   -0.45368E-04   -0.87402E-05    64   0.770E-02    0.130E-02
DAV:   5    -0.356431250807E+02   -0.10136E-04   -0.11910E-05    64   0.309E-02    0.521E-03
DAV:   6    -0.356431329371E+02   -0.78563E-05   -0.25188E-06    64   0.137E-02
  83 F= -.35643133E+02 E0= -.35643133E+02  d E =-.332630E-04
       N       E                     dE             d eps       ncg     rms          rms(c)
DAV:   1    -0.356426424576E+02    0.48262E-03   -0.70426E-01    96   0.757E+00    0.188E-01
DAV:   2    -0.356429761417E+02   -0.33368E-03   -0.89015E-03   112   0.767E-01    0.122E-01
DAV:   3    -0.356429762679E+02   -0.12621E-06   -0.47334E-04   128   0.215E-01    0.392E-02
DAV:   4    -0.356430378051E+02   -0.61537E-04   -0.11620E-04    96   0.909E-02    0.151E-02
DAV:   5    -0.356430514514E+02   -0.13646E-04   -0.17944E-05    64   0.392E-02    0.571E-03
DAV:   6    -0.356430598427E+02   -0.83914E-05   -0.40094E-06    64   0.173E-02
  84 F= -.35643060E+02 E0= -.35643060E+02  d E =0.730943E-04
       N       E                     dE             d eps       ncg     rms          rms(c)
DAV:   1    -0.356431165787E+02   -0.65127E-04   -0.62880E-04    96   0.239E-01    0.125E-02
DAV:   2    -0.356431199422E+02   -0.33636E-05   -0.15263E-05    80   0.375E-02    0.581E-03
DAV:   3    -0.356431243363E+02   -0.43941E-05   -0.39577E-06    48   0.199E-02    0.258E-03
DAV:   4    -0.356431300255E+02   -0.56892E-05   -0.20657E-06    68   0.132E-02    0.958E-04
DAV:   5    -0.356431339732E+02   -0.39477E-05   -0.48803E-07    68   0.631E-03    0.505E-04
DAV:   6    -0.356431372069E+02   -0.32337E-05   -0.19437E-07    48   0.310E-03
  85 F= -.35643137E+02 E0= -.35643137E+02  d E =-.773642E-04
       N       E                     dE             d eps       ncg     rms          rms(c)
DAV:   1    -0.356431626614E+02   -0.28688E-04   -0.14732E-03   112   0.366E-01    0.185E-02
DAV:   2    -0.356431608772E+02    0.17842E-05   -0.35150E-05    76   0.571E-02    0.859E-03
DAV:   3    -0.356431614767E+02   -0.59955E-06   -0.95885E-06    88   0.305E-02    0.370E-03
DAV:   4    -0.356431633761E+02   -0.18994E-05   -0.41279E-06    72   0.192E-02    0.133E-03
DAV:   5    -0.356431645461E+02   -0.11700E-05   -0.80483E-07    56   0.858E-03    0.691E-04
DAV:   6    -0.356431653981E+02   -0.85203E-06   -0.16407E-07    68   0.379E-03
  86 F= -.35643165E+02 E0= -.35643165E+02  d E =-.281912E-04
       N       E                     dE             d eps       ncg     rms          rms(c)
DAV:   1    -0.356431673650E+02   -0.28189E-05   -0.24424E-06    76   0.150E-02    0.572E-04
DAV:   2    -0.356431678234E+02   -0.45841E-06   -0.15979E-07    48   0.362E-03    0.357E-04
DAV:   3    -0.356431683089E+02   -0.48553E-06   -0.39102E-08    60   0.125E-03    0.226E-04
DAV:   4    -0.356431690224E+02   -0.71349E-06   -0.33495E-08    80   0.893E-04    0.822E-05
DAV:   5    -0.356431693092E+02   -0.28686E-06   -0.22765E-08    48   0.482E-04    0.583E-05
DAV:   6    -0.356431697702E+02   -0.46095E-06   -0.24640E-08    76   0.400E-04
  87 F= -.35643170E+02 E0= -.35643170E+02  d E =-.437207E-05
       N       E                     dE             d eps       ncg     rms          rms(c)
DAV:   1    -0.356431719226E+02   -0.26134E-05   -0.83542E-06    80   0.277E-02    0.102E-03
DAV:   2    -0.356431720579E+02   -0.13530E-06   -0.47877E-07    48   0.665E-03    0.611E-04
DAV:   3    -0.356431721546E+02   -0.96706E-07   -0.70457E-08    48   0.221E-03    0.408E-04
DAV:   4    -0.356431723023E+02   -0.14764E-06   -0.39989E-08    48   0.158E-03    0.132E-04
DAV:   5    -0.356431723746E+02   -0.72357E-07   -0.22409E-08    48   0.739E-04    0.881E-05
DAV:   6    -0.356431724426E+02   -0.67999E-07   -0.17608E-08    48   0.343E-04
  88 F= -.35643172E+02 E0= -.35643172E+02  d E =-.267242E-05
       N       E                     dE             d eps       ncg     rms          rms(c)
DAV:   1    -0.356431746839E+02   -0.23093E-05   -0.14894E-05    80   0.370E-02    0.138E-03
DAV:   2    -0.356431747786E+02   -0.94637E-07   -0.83465E-07    48   0.884E-03    0.837E-04
DAV:   3    -0.356431748145E+02   -0.35922E-07   -0.11264E-07    48   0.294E-03    0.550E-04
DAV:   4    -0.356431748675E+02   -0.52999E-07   -0.63191E-08    72   0.214E-03    0.176E-04
DAV:   5    -0.356431748894E+02   -0.21867E-07   -0.31651E-08    48   0.980E-04    0.120E-04
DAV:   6    -0.356431749098E+02   -0.20471E-07   -0.23858E-08    48   0.437E-04
  89 F= -.35643175E+02 E0= -.35643175E+02  d E =-.246722E-05
       N       E                     dE             d eps       ncg     rms          rms(c)
DAV:   1    -0.356431769994E+02   -0.21100E-05   -0.18401E-05    48   0.411E-02    0.154E-03
DAV:   2    -0.356431770768E+02   -0.77381E-07   -0.10275E-06    48   0.978E-03    0.953E-04
DAV:   3    -0.356431770841E+02   -0.72642E-08   -0.13994E-07    48   0.326E-03    0.618E-04
DAV:   4    -0.356431770948E+02   -0.10741E-07   -0.80708E-08    56   0.240E-03    0.197E-04
DAV:   5    -0.356431770988E+02   -0.40282E-08   -0.38756E-08    48   0.108E-03    0.135E-04
DAV:   6    -0.356431771044E+02   -0.56014E-08   -0.28468E-08    48   0.472E-04
  90 F= -.35643177E+02 E0= -.35643177E+02  d E =-.219459E-05
       N       E                     dE             d eps       ncg     rms          rms(c)
DAV:   1    -0.356431789181E+02   -0.18193E-05   -0.15718E-05    48   0.381E-02    0.141E-03
DAV:   2    -0.356431789830E+02   -0.64855E-07   -0.88203E-07    48   0.900E-03    0.917E-04
DAV:   3    -0.356431789849E+02   -0.19375E-08   -0.12362E-07    48   0.298E-03    0.582E-04
DAV:   4    -0.356431789896E+02   -0.46775E-08   -0.78694E-08    48   0.224E-03    0.191E-04
DAV:   5    -0.356431789900E+02   -0.42110E-09   -0.38391E-08    48   0.999E-04    0.135E-04
DAV:   6    -0.356431789930E+02   -0.29991E-08   -0.29746E-08    48   0.420E-04
  91 F= -.35643179E+02 E0= -.35643179E+02  d E =-.188859E-05
       N       E                     dE             d eps       ncg     rms          rms(c)
DAV:   1    -0.356431806203E+02   -0.16303E-05   -0.10819E-05    48   0.317E-02    0.116E-03
DAV:   2    -0.356431806721E+02   -0.51787E-07   -0.59900E-07    48   0.735E-03    0.783E-04
DAV:   3    -0.356431806764E+02   -0.42994E-08   -0.89729E-08    48   0.237E-03    0.478E-04
DAV:   4    -0.356431806826E+02   -0.61850E-08   -0.60229E-08    48   0.166E-03    0.176E-04
DAV:   5    -0.356431806815E+02    0.10848E-08   -0.34476E-08    48   0.743E-04    0.124E-04
DAV:   6    -0.356431806845E+02   -0.30319E-08   -0.29247E-08    48   0.287E-04
  92 F= -.35643181E+02 E0= -.35643181E+02  d E =-.169151E-05
       N       E                     dE             d eps       ncg     rms          rms(c)
DAV:   1    -0.356431825143E+02   -0.18328E-05   -0.13617E-05    48   0.356E-02    0.118E-03
DAV:   2    -0.356431825741E+02   -0.59805E-07   -0.66634E-07    48   0.800E-03    0.760E-04
DAV:   3    -0.356431825879E+02   -0.13820E-07   -0.10105E-07    48   0.254E-03    0.398E-04
DAV:   4    -0.356431825933E+02   -0.53672E-08   -0.48305E-08    48   0.123E-03    0.197E-04
DAV:   5    -0.356431825927E+02    0.60595E-09   -0.32640E-08    48   0.567E-04    0.711E-05
DAV:   6    -0.356431825955E+02   -0.28047E-08   -0.29383E-08    48   0.315E-04
  93 F= -.35643183E+02 E0= -.35643183E+02  d E =-.191095E-05
       N       E                     dE             d eps       ncg     rms          rms(c)
DAV:   1    -0.356431847021E+02   -0.21094E-05   -0.42755E-05    48   0.621E-02    0.177E-03
DAV:   2    -0.356431848755E+02   -0.17338E-06   -0.21526E-06    48   0.149E-02    0.106E-03
DAV:   3    -0.356431849125E+02   -0.37025E-07   -0.27634E-07    48   0.457E-03    0.507E-04
DAV:   4    -0.356431849258E+02   -0.13313E-07   -0.96504E-08    48   0.222E-03    0.202E-04
DAV:   5    -0.356431849258E+02   -0.33651E-10   -0.46358E-08    48   0.107E-03    0.129E-04
DAV:   6    -0.356431849270E+02   -0.11651E-08   -0.33514E-08    48   0.607E-04
  94 F= -.35643185E+02 E0= -.35643185E+02  d E =-.233153E-05
       N       E                     dE             d eps       ncg     rms          rms(c)
DAV:   1    -0.356431875132E+02   -0.25874E-05   -0.16550E-04    96   0.118E-01    0.325E-03
DAV:   2    -0.356431874839E+02    0.29308E-07   -0.20353E-06    48   0.128E-02    0.195E-03
DAV:   3    -0.356431875253E+02   -0.41375E-07   -0.46610E-07    48   0.588E-03    0.592E-04
DAV:   4    -0.356431875424E+02   -0.17129E-07   -0.12524E-07    48   0.279E-03    0.325E-04
DAV:   5    -0.356431875466E+02   -0.41908E-08   -0.48729E-08    48   0.128E-03    0.111E-04
DAV:   6    -0.356431875513E+02   -0.46430E-08   -0.35200E-08    48   0.711E-04
  95 F= -.35643188E+02 E0= -.35643188E+02  d E =-.262425E-05
       N       E                     dE             d eps       ncg     rms          rms(c)
DAV:   1    -0.356431896066E+02   -0.20600E-05   -0.53730E-04    96   0.210E-01    0.553E-03
DAV:   2    -0.356431896062E+02    0.38415E-09   -0.63248E-06    64   0.223E-02    0.338E-03
DAV:   3    -0.356431897039E+02   -0.97676E-07   -0.11613E-06    48   0.975E-03    0.104E-03
DAV:   4    -0.356431897581E+02   -0.54257E-07   -0.31703E-07    48   0.469E-03    0.508E-04
DAV:   5    -0.356431897675E+02   -0.93671E-08   -0.94831E-08    48   0.223E-03    0.170E-04
DAV:   6    -0.356431897793E+02   -0.11766E-07   -0.51000E-08    48   0.122E-03
  96 F= -.35643190E+02 E0= -.35643190E+02  d E =-.222803E-05
       N       E                     dE             d eps       ncg     rms          rms(c)
DAV:   1    -0.356431902015E+02   -0.43395E-06   -0.15307E-03    96   0.353E-01    0.900E-03
DAV:   2    -0.356431903757E+02   -0.17423E-06   -0.17136E-05    64   0.364E-02    0.556E-03
DAV:   3    -0.356431906662E+02   -0.29050E-06   -0.28839E-06    64   0.156E-02    0.159E-03
DAV:   4    -0.356431907967E+02   -0.13047E-06   -0.77009E-07    48   0.732E-03    0.750E-04
DAV:   5    -0.356431908249E+02   -0.28246E-07   -0.21163E-07    48   0.355E-03    0.271E-04
DAV:   6    -0.356431908545E+02   -0.29616E-07   -0.92524E-08    48   0.197E-03
  97 F= -.35643191E+02 E0= -.35643191E+02  d E =-.107525E-05
       N       E                     dE             d eps       ncg     rms          rms(c)
DAV:   1    -0.356431880743E+02    0.27506E-05   -0.39190E-03    96   0.564E-01    0.140E-02
DAV:   2    -0.356431887751E+02   -0.70085E-06   -0.42202E-05    64   0.569E-02    0.875E-03
DAV:   3    -0.356431895807E+02   -0.80554E-06   -0.68307E-06    64   0.241E-02    0.224E-03
DAV:   4    -0.356431898715E+02   -0.29081E-06   -0.17647E-06    48   0.110E-02    0.104E-03
DAV:   5    -0.356431899571E+02   -0.85589E-07   -0.48499E-07    48   0.536E-03    0.385E-04
DAV:   6    -0.356431900320E+02   -0.74886E-07   -0.19079E-07    48   0.300E-03
  98 F= -.35643190E+02 E0= -.35643190E+02  d E =0.822564E-06
       N       E                     dE             d eps       ncg     rms          rms(c)
DAV:   1    -0.356431832941E+02    0.66629E-05   -0.84416E-03    96   0.825E-01    0.203E-02
DAV:   2    -0.356431850475E+02   -0.17534E-05   -0.89261E-05    64   0.826E-02    0.127E-02
DAV:   3    -0.356431867771E+02   -0.17296E-05   -0.14198E-05    80   0.348E-02    0.306E-03
DAV:   4    -0.356431873772E+02   -0.60011E-06   -0.36169E-06    48   0.156E-02    0.136E-03
DAV:   5    -0.356431876017E+02   -0.22453E-06   -0.10044E-06    48   0.761E-03    0.487E-04
DAV:   6    -0.356431877693E+02   -0.16752E-06   -0.37539E-07    48   0.424E-03
  99 F= -.35643188E+02 E0= -.35643188E+02  d E =0.226270E-05
       N       E                     dE             d eps       ncg     rms          rms(c)
DAV:   1    -0.356431756881E+02    0.11914E-04   -0.16250E-02    96   0.114E+00    0.280E-02
DAV:   2    -0.356431821514E+02   -0.64632E-05   -0.19919E-04   112   0.114E-01    0.183E-02
DAV:   3    -0.356431827550E+02   -0.60368E-06   -0.90778E-06    80   0.324E-02    0.513E-03
DAV:   4    -0.356431839515E+02   -0.11965E-05   -0.40170E-06    48   0.164E-02    0.227E-03
DAV:   5    -0.356431843162E+02   -0.36465E-06   -0.69959E-07    48   0.744E-03    0.603E-04
DAV:   6    -0.356431845731E+02   -0.25694E-06   -0.15725E-07    48   0.300E-03
 100 F= -.35643185E+02 E0= -.35643185E+02  d E =0.319612E-05
       N       E                     dE             d eps       ncg     rms          rms(c)
DAV:   1    -0.356431655722E+02    0.18744E-04   -0.28731E-02    96   0.152E+00    0.371E-02
DAV:   2    -0.356431774294E+02   -0.11857E-04   -0.35047E-04   112   0.152E-01    0.242E-02
DAV:   3    -0.356431784721E+02   -0.10427E-05   -0.15770E-05    80   0.428E-02    0.685E-03
DAV:   4    -0.356431806768E+02   -0.22047E-05   -0.70478E-06    48   0.218E-02    0.297E-03
DAV:   5    -0.356431813706E+02   -0.69377E-06   -0.12357E-06    60   0.994E-03    0.789E-04
DAV:   6    -0.356431818231E+02   -0.45250E-06   -0.26630E-07    48   0.401E-03
 101 F= -.35643182E+02 E0= -.35643182E+02  d E =0.275004E-05
       N       E                     dE             d eps       ncg     rms          rms(c)
DAV:   1    -0.356431540131E+02    0.27357E-04   -0.47257E-02    96   0.195E+00    0.474E-02
DAV:   2    -0.356431741720E+02   -0.20159E-04   -0.57608E-04   112   0.195E-01    0.310E-02
DAV:   3    -0.356431757370E+02   -0.15650E-05   -0.25679E-05    80   0.547E-02    0.875E-03
DAV:   4    -0.356431794141E+02   -0.36771E-05   -0.11512E-05    48   0.279E-02    0.380E-03
DAV:   5    -0.356431805940E+02   -0.11799E-05   -0.20112E-06    64   0.127E-02    0.101E-03
DAV:   6    -0.356431813211E+02   -0.72709E-06   -0.42680E-07    48   0.513E-03
 102 F= -.35643181E+02 E0= -.35643181E+02  d E =0.502005E-06
       N       E                     dE             d eps       ncg     rms          rms(c)
DAV:   1    -0.356431391491E+02    0.41445E-04   -0.72734E-02    96   0.242E+00    0.588E-02
DAV:   2    -0.356431703351E+02   -0.31186E-04   -0.88746E-04   112   0.242E-01    0.384E-02
DAV:   3    -0.356431729013E+02   -0.25663E-05   -0.39454E-05    80   0.678E-02    0.110E-02
DAV:   4    -0.356431786699E+02   -0.57686E-05   -0.17717E-05    64   0.347E-02    0.471E-03
DAV:   5    -0.356431804619E+02   -0.17919E-05   -0.31058E-06    48   0.158E-02    0.133E-03
DAV:   6    -0.356431815792E+02   -0.11174E-05   -0.65704E-07    48   0.642E-03
 103 F= -.35643182E+02 E0= -.35643182E+02  d E =-.258136E-06
       N       E                     dE             d eps       ncg     rms          rms(c)
DAV:   1    -0.356431219159E+02    0.58546E-04   -0.10454E-01    96   0.290E+00    0.703E-02
DAV:   2    -0.356431671616E+02   -0.45246E-04   -0.12758E-03   112   0.290E-01    0.460E-02
DAV:   3    -0.356431712050E+02   -0.40434E-05   -0.56718E-05    80   0.812E-02    0.132E-02
DAV:   4    -0.356431795979E+02   -0.83929E-05   -0.25502E-05    64   0.416E-02    0.565E-03
DAV:   5    -0.356431821347E+02   -0.25369E-05   -0.44811E-06    56   0.190E-02    0.160E-03
DAV:   6    -0.356431836551E+02   -0.15204E-05   -0.94009E-07    48   0.772E-03
 104 F= -.35643184E+02 E0= -.35643184E+02  d E =-.207589E-05
       N       E                     dE             d eps       ncg     rms          rms(c)
DAV:   1    -0.356430982667E+02    0.83868E-04   -0.13875E-01    96   0.335E+00    0.811E-02
DAV:   2    -0.356431586238E+02   -0.60357E-04   -0.17020E-03   112   0.335E-01    0.530E-02
DAV:   3    -0.356431640233E+02   -0.53995E-05   -0.76189E-05    80   0.938E-02    0.156E-02
DAV:   4    -0.356431756832E+02   -0.11660E-04   -0.34565E-05    64   0.488E-02    0.659E-03
DAV:   5    -0.356431790580E+02   -0.33748E-05   -0.62751E-06    64   0.227E-02    0.188E-03
DAV:   6    -0.356431810060E+02   -0.19480E-05   -0.13287E-06    48   0.924E-03
 105 F= -.35643181E+02 E0= -.35643181E+02  d E =0.264911E-05
       N       E                     dE             d eps       ncg     rms          rms(c)
DAV:   1    -0.356430290729E+02    0.14999E-03   -0.14341E-01    96   0.342E+00    0.855E-02
DAV:   2    -0.356430852594E+02   -0.56186E-04   -0.18178E-03   112   0.345E-01    0.558E-02
DAV:   3    -0.356430829681E+02    0.22913E-05   -0.85737E-05    96   0.992E-02    0.208E-02
DAV:   4    -0.356430987961E+02   -0.15828E-04   -0.42614E-05    64   0.579E-02    0.708E-03
DAV:   5    -0.356431025743E+02   -0.37782E-05   -0.87222E-06    64   0.276E-02    0.266E-03
DAV:   6    -0.356431052973E+02   -0.27230E-05   -0.19258E-06    48   0.116E-02
 106 F= -.35643105E+02 E0= -.35643105E+02  d E =0.757087E-04
       N       E                     dE             d eps       ncg     rms          rms(c)
DAV:   1    -0.356431605949E+02   -0.58021E-04   -0.58962E-04    96   0.230E-01    0.120E-02
DAV:   2    -0.356431607004E+02   -0.10547E-06   -0.13948E-05    72   0.360E-02    0.572E-03
DAV:   3    -0.356431618968E+02   -0.11964E-05   -0.37885E-06    56   0.194E-02    0.253E-03
DAV:   4    -0.356431638384E+02   -0.19416E-05   -0.18263E-06    88   0.126E-02    0.924E-04
DAV:   5    -0.356431651017E+02   -0.12632E-05   -0.37706E-07    48   0.585E-03    0.459E-04
DAV:   6    -0.356431661427E+02   -0.10410E-05   -0.11022E-07    48   0.273E-03
 107 F= -.35643166E+02 E0= -.35643166E+02  d E =-.608454E-04
       N       E                     dE             d eps       ncg     rms          rms(c)
DAV:   1    -0.356431952610E+02   -0.30159E-04   -0.14624E-03    96   0.362E-01    0.184E-02
DAV:   2    -0.356431923614E+02    0.28996E-05   -0.34927E-05    80   0.565E-02    0.889E-03
DAV:   3    -0.356431919082E+02    0.45323E-06   -0.95213E-06    96   0.305E-02    0.392E-03
DAV:   4    -0.356431926804E+02   -0.77227E-06   -0.42457E-06    64   0.194E-02    0.144E-03
DAV:   5    -0.356431930899E+02   -0.40947E-06   -0.80447E-07    56   0.877E-03    0.728E-04
DAV:   6    -0.356431934134E+02   -0.32347E-06   -0.16640E-07    56   0.393E-03
 108 F= -.35643193E+02 E0= -.35643193E+02  d E =-.272707E-04
       N       E                     dE             d eps       ncg     rms          rms(c)
DAV:   1    -0.356431666894E+02    0.26400E-04   -0.10764E-03    96   0.310E-01    0.142E-02
DAV:   2    -0.356431648534E+02    0.18360E-05   -0.24531E-05    72   0.460E-02    0.732E-03
DAV:   3    -0.356431643884E+02    0.46506E-06   -0.61393E-06    72   0.243E-02    0.330E-03
DAV:   4    -0.356431647245E+02   -0.33619E-06   -0.26843E-06    68   0.153E-02    0.125E-03
DAV:   5    -0.356431648807E+02   -0.15617E-06   -0.50181E-07    48   0.694E-03    0.641E-04
DAV:   6    -0.356431650274E+02   -0.14665E-06   -0.13118E-07    60   0.323E-03
 109 F= -.35643165E+02 E0= -.35643165E+02  d E =0.283860E-04
       N       E                     dE             d eps       ncg     rms          rms(c)
DAV:   1    -0.356431716365E+02   -0.67558E-05   -0.15259E-05    48   0.382E-02    0.171E-03
DAV:   2    -0.356431717882E+02   -0.15170E-06   -0.94868E-07    48   0.947E-03    0.911E-04
DAV:   3    -0.356431718758E+02   -0.87543E-07   -0.11828E-07    48   0.314E-03    0.586E-04
DAV:   4    -0.356431720675E+02   -0.19179E-06   -0.93451E-08    64   0.290E-03    0.183E-04
DAV:   5    -0.356431721319E+02   -0.64309E-07   -0.37297E-08    48   0.137E-03    0.147E-04
DAV:   6    -0.356431722072E+02   -0.75327E-07   -0.23389E-08    48   0.624E-04
 110 F= -.35643172E+02 E0= -.35643172E+02  d E =-.717982E-05
       N       E                     dE             d eps       ncg     rms          rms(c)
DAV:   1    -0.356431824996E+02   -0.10368E-04   -0.54189E-05    56   0.718E-02    0.327E-03
DAV:   2    -0.356431826813E+02   -0.18170E-06   -0.32996E-06    72   0.178E-02    0.169E-03
DAV:   3    -0.356431826896E+02   -0.83212E-08   -0.37611E-07    48   0.585E-03    0.109E-03
DAV:   4    -0.356431827621E+02   -0.72466E-07   -0.27099E-07    84   0.539E-03    0.331E-04
DAV:   5    -0.356431827956E+02   -0.33518E-07   -0.86385E-08    48   0.258E-03    0.265E-04
DAV:   6    -0.356431828253E+02   -0.29685E-07   -0.33807E-08    48   0.110E-03
 111 F= -.35643183E+02 E0= -.35643183E+02  d E =-.106181E-04
       N       E                     dE             d eps       ncg     rms          rms(c)
DAV:   1    -0.356431924402E+02   -0.96446E-05   -0.10041E-04    64   0.978E-02    0.450E-03
DAV:   2    -0.356431926382E+02   -0.19797E-06   -0.61128E-06    72   0.243E-02    0.231E-03
DAV:   3    -0.356431925577E+02    0.80467E-07   -0.68794E-07    48   0.799E-03    0.149E-03
DAV:   4    -0.356431925139E+02    0.43776E-07   -0.49742E-07    96   0.740E-03    0.454E-04
DAV:   5    -0.356431925230E+02   -0.90520E-08   -0.15010E-07    48   0.356E-03    0.359E-04
DAV:   6    -0.356431925303E+02   -0.73210E-08   -0.49798E-08    48   0.150E-03
 112 F= -.35643193E+02 E0= -.35643193E+02  d E =-.970506E-05
       N       E                     dE             d eps       ncg     rms          rms(c)
DAV:   1    -0.356431975118E+02   -0.49888E-05   -0.13395E-04    48   0.113E-01    0.529E-03
DAV:   2    -0.356431977500E+02   -0.23817E-06   -0.81414E-06    64   0.281E-02    0.268E-03
DAV:   3    -0.356431976279E+02    0.12209E-06   -0.91268E-07    48   0.925E-03    0.172E-03
DAV:   4    -0.356431975513E+02    0.76581E-07   -0.66244E-07    48   0.859E-03    0.524E-04
DAV:   5    -0.356431975599E+02   -0.85947E-08   -0.19464E-07    48   0.415E-03    0.409E-04
DAV:   6    -0.356431975658E+02   -0.58806E-08   -0.58723E-08    48   0.172E-03
 113 F= -.35643198E+02 E0= -.35643198E+02  d E =-.503549E-05
       N       E                     dE             d eps       ncg     rms          rms(c)
DAV:   1    -0.356431962728E+02    0.12872E-05   -0.12279E-04    48   0.108E-01    0.516E-03
DAV:   2    -0.356431965033E+02   -0.23056E-06   -0.74542E-06    64   0.270E-02    0.257E-03
DAV:   3    -0.356431963938E+02    0.10956E-06   -0.84153E-07    48   0.887E-03    0.164E-03
DAV:   4    -0.356431963304E+02    0.63382E-07   -0.61841E-07    48   0.827E-03    0.500E-04
DAV:   5    -0.356431963406E+02   -0.10189E-07   -0.18348E-07    48   0.401E-03    0.390E-04
DAV:   6    -0.356431963491E+02   -0.84901E-08   -0.56125E-08    48   0.164E-03
 114 F= -.35643196E+02 E0= -.35643196E+02  d E =0.121674E-05
       N       E                     dE             d eps       ncg     rms          rms(c)
DAV:   1    -0.356431964819E+02   -0.14127E-06   -0.14642E-07    48   0.324E-03    0.121E-04
DAV:   2    -0.356431965034E+02   -0.21554E-07   -0.38674E-08    48   0.870E-04    0.843E-05
DAV:   3    -0.356431965381E+02   -0.34647E-07   -0.33570E-08    48   0.422E-04    0.337E-05
DAV:   4    -0.356431965617E+02   -0.23612E-07   -0.31911E-08    48   0.213E-04    0.242E-05
DAV:   5    -0.356431966027E+02   -0.40992E-07   -0.31473E-08    48   0.124E-04    0.116E-05
DAV:   6    -0.356431966407E+02   -0.38013E-07   -0.31100E-08    64   0.104E-04
 115 F= -.35643197E+02 E0= -.35643197E+02  d E =-.291597E-06
       N       E                     dE             d eps       ncg     rms          rms(c)
DAV:   1    -0.356431968586E+02   -0.25594E-06   -0.67715E-07    48   0.760E-03    0.214E-04
DAV:   2    -0.356431968742E+02   -0.15650E-07   -0.64735E-08    48   0.183E-03    0.135E-04
DAV:   3    -0.356431968847E+02   -0.10411E-07   -0.34294E-08    48   0.575E-04    0.948E-05
DAV:   4    -0.356431968992E+02   -0.14580E-07   -0.31180E-08    48   0.353E-04    0.309E-05
DAV:   5    -0.356431969068E+02   -0.76093E-08   -0.30106E-08    48   0.176E-04    0.207E-05
DAV:   6    -0.356431969123E+02   -0.54315E-08   -0.29520E-08    48   0.901E-05
 116 F= -.35643197E+02 E0= -.35643197E+02  d E =-.271609E-06
       N       E                     dE             d eps       ncg     rms          rms(c)
DAV:   1    -0.356431971718E+02   -0.26491E-06   -0.21016E-06    48   0.135E-02    0.357E-04
DAV:   2    -0.356431971847E+02   -0.12945E-07   -0.13612E-07    48   0.325E-03    0.224E-04
DAV:   3    -0.356431971885E+02   -0.38171E-08   -0.41719E-08    48   0.100E-03    0.151E-04
DAV:   4    -0.356431971909E+02   -0.24097E-08   -0.32427E-08    48   0.574E-04    0.464E-05
DAV:   5    -0.356431971915E+02   -0.57935E-09   -0.29956E-08    48   0.282E-04    0.325E-05
DAV:   6    -0.356431971923E+02   -0.74829E-09   -0.28988E-08    48   0.145E-04
 117 F= -.35643197E+02 E0= -.35643197E+02  d E =-.279976E-06
       N       E                     dE             d eps       ncg     rms          rms(c)
DAV:   1    -0.356431974746E+02   -0.28312E-06   -0.52870E-06    48   0.213E-02    0.538E-04
DAV:   2    -0.356431974993E+02   -0.24625E-07   -0.29505E-07    48   0.514E-03    0.336E-04
DAV:   3    -0.356431975037E+02   -0.44404E-08   -0.60254E-08    48   0.157E-03    0.213E-04
DAV:   4    -0.356431975048E+02   -0.11196E-08   -0.36917E-08    48   0.848E-04    0.608E-05
DAV:   5    -0.356431975048E+02   -0.33651E-10   -0.31049E-08    48   0.412E-04    0.464E-05
DAV:   6    -0.356431975048E+02    0.33197E-10   -0.28945E-08    48   0.217E-04
 118 F= -.35643198E+02 E0= -.35643198E+02  d E =-.312558E-06
       N       E                     dE             d eps       ncg     rms          rms(c)
DAV:   1    -0.356431977733E+02   -0.26845E-06   -0.11616E-05    48   0.315E-02    0.767E-04
DAV:   2    -0.356431978236E+02   -0.50319E-07   -0.60795E-07    48   0.760E-03    0.479E-04
DAV:   3    -0.356431978329E+02   -0.92639E-08   -0.97286E-08    48   0.230E-03    0.283E-04
DAV:   4    -0.356431978352E+02   -0.23322E-08   -0.46024E-08    48   0.118E-03    0.758E-05
DAV:   5    -0.356431978353E+02   -0.10823E-09   -0.33717E-08    48   0.575E-04    0.624E-05
DAV:   6    -0.356431978354E+02   -0.75488E-10   -0.29490E-08    48   0.311E-04
 119 F= -.35643198E+02 E0= -.35643198E+02  d E =-.330581E-06
       N       E                     dE             d eps       ncg     rms          rms(c)
DAV:   1    -0.356431980827E+02   -0.24735E-06   -0.22941E-05    48   0.441E-02    0.105E-03
DAV:   2    -0.356431981790E+02   -0.96303E-07   -0.11652E-06    48   0.107E-02    0.658E-04
DAV:   3    -0.356431981973E+02   -0.18368E-07   -0.16341E-07    48   0.321E-03    0.363E-04
DAV:   4    -0.356431982017E+02   -0.43597E-08   -0.62357E-08    48   0.160E-03    0.942E-05
DAV:   5    -0.356431982022E+02   -0.47498E-09   -0.38737E-08    48   0.779E-04    0.809E-05
DAV:   6    -0.356431982026E+02   -0.40404E-09   -0.30846E-08    48   0.431E-04
 120 F= -.35643198E+02 E0= -.35643198E+02  d E =-.367180E-06
       N       E                     dE             d eps       ncg     rms          rms(c)
DAV:   1    -0.356431983412E+02   -0.13908E-06   -0.49151E-05    48   0.645E-02    0.151E-03
DAV:   2    -0.356431985452E+02   -0.20397E-06   -0.24530E-06    48   0.156E-02    0.949E-04
DAV:   3    -0.356431985833E+02   -0.38126E-07   -0.31565E-07    48   0.467E-03    0.497E-04
DAV:   4    -0.356431985924E+02   -0.90274E-08   -0.10034E-07    48   0.227E-03    0.128E-04
DAV:   5    -0.356431985938E+02   -0.14245E-08   -0.51025E-08    48   0.111E-03    0.111E-04
DAV:   6    -0.356431985945E+02   -0.73487E-09   -0.34494E-08    48   0.624E-04
 121 F= -.35643199E+02 E0= -.35643199E+02  d E =-.391955E-06
       N       E                     dE             d eps       ncg     rms          rms(c)
DAV:   1    -0.356431984741E+02    0.11966E-06   -0.98010E-05    48   0.910E-02    0.212E-03
DAV:   2    -0.356431988792E+02   -0.40506E-06   -0.48507E-06    48   0.220E-02    0.133E-03
DAV:   3    -0.356431989535E+02   -0.74346E-07   -0.59928E-07    48   0.658E-03    0.667E-04
DAV:   4    -0.356431989705E+02   -0.16974E-07   -0.17125E-07    48   0.315E-03    0.171E-04
DAV:   5    -0.356431989746E+02   -0.40673E-08   -0.74178E-08    48   0.155E-03    0.150E-04
DAV:   6    -0.356431989756E+02   -0.98726E-09   -0.41819E-08    48   0.878E-04
 122 F= -.35643199E+02 E0= -.35643199E+02  d E =-.381035E-06
       N       E                     dE             d eps       ncg     rms          rms(c)
DAV:   1    -0.356431992074E+02   -0.23282E-06   -0.19416E-04    96   0.125E-01    0.304E-03
DAV:   2    -0.356431992279E+02   -0.20508E-07   -0.21234E-06    48   0.127E-02    0.191E-03
DAV:   3    -0.356431992673E+02   -0.39381E-07   -0.35841E-07    48   0.533E-03    0.516E-04
DAV:   4    -0.356431992836E+02   -0.16359E-07   -0.11527E-07    48   0.246E-03    0.217E-04
DAV:   5    -0.356431992899E+02   -0.62478E-08   -0.50466E-08    48   0.119E-03    0.795E-05
DAV:   6    -0.356431992973E+02   -0.73876E-08   -0.35056E-08    48   0.659E-04
 123 F= -.35643199E+02 E0= -.35643199E+02  d E =-.321718E-06
       N       E                     dE             d eps       ncg     rms          rms(c)
DAV:   1    -0.356431993670E+02   -0.77105E-07   -0.35369E-04    96   0.169E-01    0.408E-03
DAV:   2    -0.356431994169E+02   -0.49853E-07   -0.37850E-06    48   0.170E-02    0.257E-03
DAV:   3    -0.356431994876E+02   -0.70791E-07   -0.61092E-07    48   0.709E-03    0.666E-04
DAV:   4    -0.356431995170E+02   -0.29363E-07   -0.17841E-07    48   0.323E-03    0.276E-04
DAV:   5    -0.356431995290E+02   -0.11996E-07   -0.66800E-08    48   0.156E-03    0.100E-04
DAV:   6    -0.356431995411E+02   -0.12087E-07   -0.40317E-08    48   0.858E-04
 124 F= -.35643200E+02 E0= -.35643200E+02  d E =-.243808E-06
       N       E                     dE             d eps       ncg     rms          rms(c)
DAV:   1    -0.356431993378E+02    0.19124E-06   -0.61710E-04    96   0.223E-01    0.537E-03
DAV:   2    -0.356431994446E+02   -0.10679E-06   -0.65511E-06    48   0.224E-02    0.339E-03
DAV:   3    -0.356431995644E+02   -0.11989E-06   -0.10378E-06    56   0.933E-03    0.849E-04
DAV:   4    -0.356431996122E+02   -0.47726E-07   -0.28686E-07    48   0.421E-03    0.350E-04
DAV:   5    -0.356431996310E+02   -0.18796E-07   -0.96106E-08    48   0.204E-03    0.126E-04
DAV:   6    -0.356431996495E+02   -0.18524E-07   -0.50147E-08    48   0.113E-03
 125 F= -.35643200E+02 E0= -.35643200E+02  d E =-.108401E-06
       N       E                     dE             d eps       ncg     rms          rms(c)
DAV:   1    -0.356431990390E+02    0.59200E-06   -0.10419E-03    96   0.290E-01    0.696E-03
DAV:   2    -0.356431992499E+02   -0.21096E-06   -0.11016E-05    64   0.290E-02    0.439E-03
DAV:   3    -0.356431994502E+02   -0.20027E-06   -0.17270E-06    48   0.121E-02    0.108E-03
DAV:   4    -0.356431995284E+02   -0.78154E-07   -0.46284E-07    48   0.544E-03    0.445E-04
DAV:   5    -0.356431995595E+02   -0.31104E-07   -0.14421E-07    48   0.265E-03    0.160E-04
DAV:   6    -0.356431995865E+02   -0.27072E-07   -0.66609E-08    48   0.146E-03
 126 F= -.35643200E+02 E0= -.35643200E+02  d E =0.629632E-07
       N       E                     dE             d eps       ncg     rms          rms(c)
DAV:   1    -0.356431985175E+02    0.10419E-05   -0.17120E-03    96   0.372E-01    0.892E-03
DAV:   2    -0.356431988965E+02   -0.37891E-06   -0.18076E-05    64   0.372E-02    0.563E-03
DAV:   3    -0.356431992258E+02   -0.32933E-06   -0.28175E-06    56   0.155E-02    0.138E-03
DAV:   4    -0.356431993531E+02   -0.12734E-06   -0.74231E-07    48   0.696E-03    0.567E-04
DAV:   5    -0.356431994028E+02   -0.49704E-07   -0.22073E-07    48   0.339E-03    0.204E-04
DAV:   6    -0.356431994443E+02   -0.41429E-07   -0.93495E-08    48   0.187E-03
 127 F= -.35643199E+02 E0= -.35643199E+02  d E =0.142272E-06
       N       E                     dE             d eps       ncg     rms          rms(c)
DAV:   1    -0.356431976374E+02    0.17654E-05   -0.27452E-03    96   0.471E-01    0.113E-02
DAV:   2    -0.356431982736E+02   -0.63619E-06   -0.28990E-05    64   0.471E-02    0.712E-03
DAV:   3    -0.356431988049E+02   -0.53131E-06   -0.45050E-06    64   0.196E-02    0.175E-03
DAV:   4    -0.356431990083E+02   -0.20342E-06   -0.11776E-06    48   0.883E-03    0.723E-04
DAV:   5    -0.356431990891E+02   -0.80754E-07   -0.33937E-07    48   0.430E-03    0.262E-04
DAV:   6    -0.356431991527E+02   -0.63614E-07   -0.13560E-07    48   0.238E-03
 128 F= -.35643199E+02 E0= -.35643199E+02  d E =0.291578E-06
       N       E                     dE             d eps       ncg     rms          rms(c)
DAV:   1    -0.356431964516E+02    0.26375E-05   -0.43072E-03    96   0.590E-01    0.142E-02
DAV:   2    -0.356431974783E+02   -0.10268E-05   -0.45517E-05    64   0.591E-02    0.892E-03
DAV:   3    -0.356431983041E+02   -0.82576E-06   -0.70613E-06    64   0.246E-02    0.221E-03
DAV:   4    -0.356431986241E+02   -0.31999E-06   -0.18392E-06    48   0.111E-02    0.917E-04
DAV:   5    -0.356431987544E+02   -0.13032E-06   -0.51913E-07    48   0.539E-03    0.333E-04
DAV:   6    -0.356431988552E+02   -0.10081E-06   -0.19985E-07    48   0.299E-03
 129 F= -.35643199E+02 E0= -.35643199E+02  d E =0.297444E-06
       N       E                     dE             d eps       ncg     rms          rms(c)
DAV:   1    -0.356431939384E+02    0.48160E-05   -0.66271E-03    96   0.732E-01    0.176E-02
DAV:   2    -0.356431955417E+02   -0.16034E-05   -0.70050E-05    64   0.733E-02    0.111E-02
DAV:   3    -0.356431968048E+02   -0.12631E-05   -0.10858E-05    64   0.305E-02    0.275E-03
DAV:   4    -0.356431973053E+02   -0.50047E-06   -0.28207E-06    48   0.138E-02    0.114E-03
DAV:   5    -0.356431975121E+02   -0.20680E-06   -0.78643E-07    48   0.669E-03    0.416E-04
DAV:   6    -0.356431976659E+02   -0.15382E-06   -0.29564E-07    48   0.371E-03
 130 F= -.35643198E+02 E0= -.35643198E+02  d E =0.118934E-05
       N       E                     dE             d eps       ncg     rms          rms(c)
DAV:   1    -0.356431894802E+02    0.80318E-05   -0.99973E-03    96   0.899E-01    0.216E-02
DAV:   2    -0.356431919659E+02   -0.24857E-05   -0.10556E-04    64   0.900E-02    0.136E-02
DAV:   3    -0.356431938867E+02   -0.19208E-05   -0.16344E-05    64   0.375E-02    0.337E-03
DAV:   4    -0.356431946561E+02   -0.76946E-06   -0.42363E-06    48   0.169E-02    0.140E-03
DAV:   5    -0.356431949734E+02   -0.31729E-06   -0.11757E-06    48   0.821E-03    0.506E-04
DAV:   6    -0.356431951958E+02   -0.22236E-06   -0.43518E-07    48   0.455E-03
 131 F= -.35643195E+02 E0= -.35643195E+02  d E =0.247011E-05
       N       E                     dE             d eps       ncg     rms          rms(c)
DAV:   1    -0.356431838459E+02    0.11128E-04   -0.14828E-02    96   0.109E+00    0.263E-02
DAV:   2    -0.356431901790E+02   -0.63331E-05   -0.18158E-04    96   0.110E-01    0.172E-02
DAV:   3    -0.356431905834E+02   -0.40447E-06   -0.79419E-06    64   0.304E-02    0.500E-03
DAV:   4    -0.356431917467E+02   -0.11632E-05   -0.36588E-06    48   0.157E-02    0.213E-03
DAV:   5    -0.356431921290E+02   -0.38230E-06   -0.65834E-07    48   0.724E-03    0.570E-04
DAV:   6    -0.356431923861E+02   -0.25710E-06   -0.14658E-07    48   0.289E-03
 132 F= -.35643192E+02 E0= -.35643192E+02  d E =0.280972E-05
       N       E                     dE             d eps       ncg     rms          rms(c)
DAV:   1    -0.356431744674E+02    0.17662E-04   -0.21602E-02    96   0.132E+00    0.317E-02
DAV:   2    -0.356431836973E+02   -0.92300E-05   -0.26282E-04    96   0.132E-01    0.207E-02
DAV:   3    -0.356431844343E+02   -0.73692E-06   -0.11530E-05    64   0.366E-02    0.599E-03
DAV:   4    -0.356431861479E+02   -0.17136E-05   -0.52733E-06    48   0.189E-02    0.255E-03
DAV:   5    -0.356431867285E+02   -0.58060E-06   -0.94680E-07    48   0.870E-03    0.676E-04
DAV:   6    -0.356431871013E+02   -0.37282E-06   -0.20560E-07    48   0.349E-03
 133 F= -.35643187E+02 E0= -.35643187E+02  d E =0.528476E-05
       N       E                     dE             d eps       ncg     rms          rms(c)
DAV:   1    -0.356431620932E+02    0.24635E-04   -0.30883E-02    96   0.158E+00    0.379E-02
DAV:   2    -0.356431752886E+02   -0.13195E-04   -0.37563E-04   112   0.158E-01    0.248E-02
DAV:   3    -0.356431764735E+02   -0.11849E-05   -0.16512E-05    76   0.439E-02    0.716E-03
DAV:   4    -0.356431789727E+02   -0.24992E-05   -0.75488E-06    48   0.227E-02    0.305E-03
DAV:   5    -0.356431797998E+02   -0.82708E-06   -0.13497E-06    60   0.104E-02    0.810E-04
DAV:   6    -0.356431803172E+02   -0.51741E-06   -0.28751E-07    48   0.419E-03
 134 F= -.35643180E+02 E0= -.35643180E+02  d E =0.678409E-05
       N       E                     dE             d eps       ncg     rms          rms(c)
DAV:   1    -0.356431532598E+02    0.26540E-04   -0.43205E-02    96   0.187E+00    0.449E-02
DAV:   2    -0.356431713505E+02   -0.18091E-04   -0.52532E-04   112   0.186E-01    0.294E-02
DAV:   3    -0.356431734611E+02   -0.21107E-05   -0.23130E-05    80   0.518E-02    0.846E-03
DAV:   4    -0.356431770371E+02   -0.35759E-05   -0.10553E-05    48   0.268E-02    0.361E-03
DAV:   5    -0.356431781977E+02   -0.11606E-05   -0.18803E-06    60   0.123E-02    0.965E-04
DAV:   6    -0.356431789093E+02   -0.71156E-06   -0.39671E-07    48   0.495E-03
 135 F= -.35643179E+02 E0= -.35643179E+02  d E =0.140794E-05
