 vasp.5.4.1 24Jun15 (build Jan 13 2020 12:58:22) complex                        
  
 executed on           IFC91_ompi date 2020.02.03  09:53:44
 running on   15 total cores
 each image running on    1 cores
 distrk:  each k-point on    1 cores,    1 groups
 distr:  one band on NCORES_PER_BAND=   1 cores,    1 groups


--------------------------------------------------------------------------------------------------------


 INCAR:
 POTCAR:    PAW_PBE H 15Jun2001                   
 POTCAR:    PAW_PBE C 08Apr2002                   
 POTCAR:    PAW_PBE N 08Apr2002                   
 POTCAR:    PAW_PBE H 15Jun2001                   
   VRHFIN =H: ultrasoft test                                                    
   LEXCH  = PE                                                                  
   EATOM  =    12.4884 eV,    0.9179 Ry                                         
                                                                                
   TITEL  = PAW_PBE H 15Jun2001                                                 
   LULTRA =        F    use ultrasoft PP ?                                      
   IUNSCR =        0    unscreen: 0-lin 1-nonlin 2-no                           
   RPACOR =    0.000    partial core radius                                     
   POMASS =    1.000; ZVAL   =    1.000    mass and valenz                      
   RCORE  =    1.100    outmost cutoff radius                                   
   RWIGS  =    0.700; RWIGS  =    0.370    wigner-seitz radius (au A)           
   ENMAX  =  250.000; ENMIN  =  200.000 eV                                      
   RCLOC  =    0.701    cutoff for local pot                                    
   LCOR   =        T    correct aug charges                                     
   LPAW   =        T    paw PP                                                  
   EAUG   =  400.000                                                            
   RMAX   =    1.123    core radius for proj-oper                               
   RAUG   =    1.200    factor for augmentation sphere                          
   RDEP   =    1.112    radius for radial grids                                 
   RDEPT  =    0.926    core radius for aug-charge                              
                                                                                
   Atomic configuration                                                         
    2 entries                                                                   
     n  l   j            E        occ.                                          
     1  0  0.50        -6.4927   1.0000                                         
     2  1  0.50        -3.4015   0.0000                                         
   Description                                                                  
     l       E           TYP  RCUT    TYP  RCUT                                 
     0     -6.4927494     23  1.100                                             
     0      6.8029130     23  1.100                                             
     1     -4.0817478     23  1.100                                             
  local pseudopotential read in
  atomic valenz-charges read in
  non local Contribution for L=           0  read in
    real space projection operators read in
  non local Contribution for L=           0  read in
    real space projection operators read in
  non local Contribution for L=           1  read in
    real space projection operators read in
    PAW grid and wavefunctions read in
 
   number of l-projection  operators is LMAX  =           3
   number of lm-projection operators is LMMAX =           5
 
 POTCAR:    PAW_PBE C 08Apr2002                   
   VRHFIN =C: s2p2                                                              
   LEXCH  = PE                                                                  
   EATOM  =   147.1560 eV,   10.8157 Ry                                         
                                                                                
   TITEL  = PAW_PBE C 08Apr2002                                                 
   LULTRA =        F    use ultrasoft PP ?                                      
   IUNSCR =        1    unscreen: 0-lin 1-nonlin 2-no                           
   RPACOR =    1.200    partial core radius                                     
   POMASS =   12.011; ZVAL   =    4.000    mass and valenz                      
   RCORE  =    1.500    outmost cutoff radius                                   
   RWIGS  =    1.630; RWIGS  =    0.863    wigner-seitz radius (au A)           
   ENMAX  =  400.000; ENMIN  =  300.000 eV                                      
   ICORE  =        2    local potential                                         
   LCOR   =        T    correct aug charges                                     
   LPAW   =        T    paw PP                                                  
   EAUG   =  644.873                                                            
   DEXC   =    0.000                                                            
   RMAX   =    1.529    core radius for proj-oper                               
   RAUG   =    1.300    factor for augmentation sphere                          
   RDEP   =    1.501    radius for radial grids                                 
   RDEPT  =    1.300    core radius for aug-charge                              
                                                                                
   Atomic configuration                                                         
    4 entries                                                                   
     n  l   j            E        occ.                                          
     1  0  0.50      -273.3789   2.0000                                         
     2  0  0.50       -13.7508   2.0000                                         
     2  1  0.50        -5.2854   2.0000                                         
     3  2  1.50        -5.4423   0.0000                                         
   Description                                                                  
     l       E           TYP  RCUT    TYP  RCUT                                 
     0    -13.7508458     23  1.200                                             
     0     -8.2022199     23  1.200                                             
     1     -5.2854383     23  1.500                                             
     1     34.0145650     23  1.500                                             
     2     -5.4423304      7  1.500                                             
  local pseudopotential read in
  partial core-charges read in
  partial kinetic energy density read in
  atomic valenz-charges read in
  non local Contribution for L=           0  read in
    real space projection operators read in
  non local Contribution for L=           0  read in
    real space projection operators read in
  non local Contribution for L=           1  read in
    real space projection operators read in
  non local Contribution for L=           1  read in
    real space projection operators read in
    PAW grid and wavefunctions read in
 
   number of l-projection  operators is LMAX  =           4
   number of lm-projection operators is LMMAX =           8
 
 POTCAR:    PAW_PBE N 08Apr2002                   
   VRHFIN =N: s2p3                                                              
   LEXCH  = PE                                                                  
   EATOM  =   264.5486 eV,   19.4438 Ry                                         
                                                                                
   TITEL  = PAW_PBE N 08Apr2002                                                 
   LULTRA =        F    use ultrasoft PP ?                                      
   IUNSCR =        1    unscreen: 0-lin 1-nonlin 2-no                           
   RPACOR =    1.200    partial core radius                                     
   POMASS =   14.001; ZVAL   =    5.000    mass and valenz                      
   RCORE  =    1.500    outmost cutoff radius                                   
   RWIGS  =    1.400; RWIGS  =    0.741    wigner-seitz radius (au A)           
   ENMAX  =  400.000; ENMIN  =  300.000 eV                                      
   ICORE  =        2    local potential                                         
   LCOR   =        T    correct aug charges                                     
   LPAW   =        T    paw PP                                                  
   EAUG   =  627.112                                                            
   DEXC   =    0.000                                                            
   RMAX   =    1.529    core radius for proj-oper                               
   RAUG   =    1.300    factor for augmentation sphere                          
   RDEP   =    1.514    radius for radial grids                                 
   RDEPT  =    1.338    core radius for aug-charge                              
                                                                                
   Atomic configuration                                                         
    4 entries                                                                   
     n  l   j            E        occ.                                          
     1  0  0.50      -384.7179   2.0000                                         
     2  0  0.50       -18.5828   2.0000                                         
     2  1  0.50        -7.0898   3.0000                                         
     3  2  1.50        -6.8029   0.0000                                         
   Description                                                                  
     l       E           TYP  RCUT    TYP  RCUT                                 
     0    -18.5828119     23  1.200                                             
     0    -13.5018863     23  1.200                                             
     1     -7.0897853     23  1.500                                             
     1      9.5240782     23  1.500                                             
     2     -6.8029130      7  1.500                                             
  local pseudopotential read in
  partial core-charges read in
  partial kinetic energy density read in
  atomic valenz-charges read in
  non local Contribution for L=           0  read in
    real space projection operators read in
  non local Contribution for L=           0  read in
    real space projection operators read in
  non local Contribution for L=           1  read in
    real space projection operators read in
  non local Contribution for L=           1  read in
    real space projection operators read in
    PAW grid and wavefunctions read in
 
   number of l-projection  operators is LMAX  =           4
   number of lm-projection operators is LMMAX =           8
 

 ----------------------------------------------------------------------------- 
|                                                                             |
|  ADVICE TO THIS USER RUNNING 'VASP/VAMP'   (HEAR YOUR MASTER'S VOICE ...):  |
|                                                                             |
|      You have a (more or less) 'small supercell' and for smaller cells      |
|      it is recommended  to use the reciprocal-space projection scheme!      |
|      The real space optimization is not  efficient for small cells and it   |
|      is also less accurate ...                                              |
|      Therefore set LREAL=.FALSE. in the  INCAR file                         |
|                                                                             |
 ----------------------------------------------------------------------------- 

 Optimization of the real space projectors (new method)

 maximal supplied QI-value         = 34.20
 optimisation between [QCUT,QGAM] = [  9.92, 20.18] = [ 27.55,114.04] Ry 
 Optimized for a Real-space Cutoff    1.26 Angstroem

   l    n(q)    QCUT    max X(q) W(low)/X(q) W(high)/X(q)  e(spline) 
   0      8     9.919    19.460    0.50E-03    0.23E-03    0.29E-06
   0      8     9.919    12.209    0.48E-03    0.23E-03    0.28E-06
   1      7     9.919     4.655    0.17E-03    0.75E-03    0.30E-06
 Optimization of the real space projectors (new method)

 maximal supplied QI-value         = 25.13
 optimisation between [QCUT,QGAM] = [ 10.05, 20.36] = [ 28.30,116.06] Ry 
 Optimized for a Real-space Cutoff    1.30 Angstroem

   l    n(q)    QCUT    max X(q) W(low)/X(q) W(high)/X(q)  e(spline) 
   0      8    10.053   115.676    0.49E-03    0.72E-03    0.18E-06
   0      8    10.053    87.132    0.49E-03    0.71E-03    0.18E-06
   1      7    10.053     4.429    0.32E-03    0.31E-03    0.18E-06
   1      7    10.053     2.733    0.23E-03    0.19E-03    0.20E-06
 Optimization of the real space projectors (new method)

 maximal supplied QI-value         = 25.13
 optimisation between [QCUT,QGAM] = [ 10.05, 20.36] = [ 28.30,116.06] Ry 
 Optimized for a Real-space Cutoff    1.65 Angstroem

   l    n(q)    QCUT    max X(q) W(low)/X(q) W(high)/X(q)  e(spline) 
   0     10    10.053    79.467    0.76E-04    0.72E-04    0.56E-06
   0     10    10.053    66.151    0.76E-04    0.72E-04    0.55E-06
   1     10    10.053     8.350    0.25E-03    0.92E-03    0.41E-05
   1     10    10.053     5.531    0.27E-03    0.10E-02    0.45E-05
  PAW_PBE H 15Jun2001                   :
 energy of atom  1       EATOM=  -12.4884
 kinetic energy error for atom=    0.0098 (will be added to EATOM!!)
  PAW_PBE C 08Apr2002                   :
 energy of atom  2       EATOM= -147.1560
 kinetic energy error for atom=    0.0288 (will be added to EATOM!!)
  PAW_PBE N 08Apr2002                   :
 energy of atom  3       EATOM= -264.5486
 kinetic energy error for atom=    0.0736 (will be added to EATOM!!)
 
 
 POSCAR: H3 C2 N1                                
  positions in direct lattice
  velocities in cartesian coordinates
 exchange correlation table for  LEXCH =        8
   RHO(1)=    0.500       N(1)  =     2000
   RHO(2)=  100.500       N(2)  =     4000

 VTST: version 3.2, (02/03/18)

 CHAIN: initializing optimizer
 
 OPT: Using FIRE optimizer
 OPT: FIRE, Init
 OPT: FIRE, MAXMOVE       0.20000
 OPT: FIRE, TIMESTEP      0.10000
 OPT: FIRE, FTIMEMAX      1.00000
 OPT: FIRE, FTIMEINC      1.10000
 OPT: FIRE, FTIMEDEC      0.50000
 OPT: FIRE, FALPHADEC     0.99000
 OPT: FIRE, FALPHA        0.10000
 OPT: FIRE, FNMIN         5
 
 CHAIN: Read ICHAIN            0
 CHAIN: Running the NEB
 NEB:          SPRING     -5.000000
 NEB:          LCLIMB      T
 NEB:     LTANGENTOLD      F
 NEB:           LDNEB      F
 NEB:        LDNEBORG      F
 NEB:        LNEBCELL      F
 NEB:          EFIRST      0.000000
 NEB:           ELAST      0.000000
 
 POSCAR: H3 C2 N1                                
  positions in direct lattice
  No initial velocities read in
 
 POSCAR: H3 C2 N1                                
  positions in direct lattice
  No initial velocities read in
 


--------------------------------------------------------------------------------------------------------


 ion  position               nearest neighbor table
   1  0.468  0.476  0.520-   4 1.10
   2  0.468  0.516  0.475-   4 1.10
   3  0.485  0.533  0.529-   4 1.10
   4  0.486  0.505  0.505-   2 1.10   1 1.10   3 1.10   6 1.42
   5  0.563  0.479  0.477-   6 1.18
   6  0.529  0.492  0.493-   5 1.18   4 1.42
 
  LATTYP: Found a simple cubic cell.
 ALAT       =    30.0000000000
  
  Lattice vectors:
  
 A1 = (  30.0000000000,   0.0000000000,   0.0000000000)
 A2 = (   0.0000000000,  30.0000000000,   0.0000000000)
 A3 = (   0.0000000000,   0.0000000000,  30.0000000000)


Analysis of symmetry for initial positions (statically):
=====================================================================
 Subroutine PRICEL returns:
 Original cell was already a primitive cell.
 

 Routine SETGRP: Setting up the symmetry group for a 
 simple cubic supercell.


 Subroutine GETGRP returns: Found  1 space group operations
 (whereof  1 operations were pure point group operations)
 out of a pool of 48 trial point group operations.


The static configuration has the point symmetry C_1 .


Analysis of symmetry for dynamics (positions and initial velocities):
=====================================================================
 Subroutine PRICEL returns:
 Original cell was already a primitive cell.
 

 Routine SETGRP: Setting up the symmetry group for a 
 simple cubic supercell.


 Subroutine GETGRP returns: Found  1 space group operations
 (whereof  1 operations were pure point group operations)
 out of a pool of 48 trial point group operations.


The dynamic configuration has the point symmetry C_1 .
 
 
 KPOINTS: Mo2C                                    

Automatic generation of k-mesh.
Space group operators:
 irot       det(A)        alpha          n_x          n_y          n_z        tau_x        tau_y        tau_z
    1     1.000000     0.000000     1.000000     0.000000     0.000000     0.000000     0.000000     0.000000
 
 Subroutine IBZKPT returns following result:
 ===========================================
 
 Found      4 irreducible k-points:
 
 Following reciprocal coordinates:
            Coordinates               Weight
  0.250000  0.250000  0.250000      2.000000
 -0.250000  0.250000  0.250000      2.000000
  0.250000 -0.250000  0.250000      2.000000
 -0.250000 -0.250000  0.250000      2.000000
 
 Following cartesian coordinates:
            Coordinates               Weight
  0.008333  0.008333  0.008333      2.000000
 -0.008333  0.008333  0.008333      2.000000
  0.008333 -0.008333  0.008333      2.000000
 -0.008333 -0.008333  0.008333      2.000000
 


--------------------------------------------------------------------------------------------------------




 Dimension of arrays:
   k-points           NKPTS =      4   k-points in BZ     NKDIM =      4   number of bands    NBANDS=     12
   number of dos      NEDOS =    301   number of ions     NIONS =      6
   non local maximal  LDIM  =      4   non local SUM 2l+1 LMDIM =      8
   total plane-waves  NPLWV = ******
   max r-space proj   IRMAX =   2395   max aug-charges    IRDMAX=   1738
   dimension x,y,z NGX =   150 NGY =  150 NGZ =  150
   dimension x,y,z NGXF=   300 NGYF=  300 NGZF=  300
   support grid    NGXF=   300 NGYF=  300 NGZF=  300
   ions per type =               3   2   1
 NGX,Y,Z   is equivalent  to a cutoff of   8.31,  8.31,  8.31 a.u.
 NGXF,Y,Z  is equivalent  to a cutoff of  16.62, 16.62, 16.62 a.u.


 I would recommend the setting:
   dimension x,y,z NGX =   147 NGY =  147 NGZ =  147
 SYSTEM =  unknown system                          
 POSCAR =  H3 C2 N1                                

 Startparameter for this run:
   NWRITE =      2    write-flag & timer
   PREC   = normal    normal or accurate (medium, high low for compatibility)
   ISTART =      0    job   : 0-new  1-cont  2-samecut
   ICHARG =      2    charge: 1-file 2-atom 10-const
   ISPIN  =      1    spin polarized calculation?
   LNONCOLLINEAR =      F non collinear calculations
   LSORBIT =      F    spin-orbit coupling
   INIWAV =      1    electr: 0-lowe 1-rand  2-diag
   LASPH  =      F    aspherical Exc in radial PAW
   METAGGA=      F    non-selfconsistent MetaGGA calc.

 Electronic Relaxation 1
   ENCUT  =  400.0 eV  29.40 Ry    5.42 a.u.  48.92 48.92 48.92*2*pi/ulx,y,z
   ENINI  =  400.0     initial cutoff
   ENAUG  =  644.9 eV  augmentation charge cutoff
   NELM   =    500;   NELMIN=  6; NELMDL= -5     # of ELM steps 
   EDIFF  = 0.1E-03   stopping-criterion for ELM
   LREAL  =      T    real-space projection
   NLSPLINE    = F    spline interpolate recip. space projectors
   LCOMPAT=      F    compatible to vasp.4.4
   GGA_COMPAT  = T    GGA compatible to vasp.4.4-vasp.4.6
   LMAXPAW     = -100 max onsite density
   LMAXMIX     =    2 max onsite mixed and CHGCAR
   VOSKOWN=      0    Vosko Wilk Nusair interpolation
   ROPT   =   -0.00050  -0.00050  -0.00050
 Ionic relaxation
   EDIFFG = -.1E+00   stopping-criterion for IOM
   NSW    =    300    number of steps for IOM
   NBLOCK =      1;   KBLOCK =    300    inner block; outer block 
   IBRION =      3    ionic relax: 0-MD 1-quasi-New 2-CG
   NFREE  =      0    steps in history (QN), initial steepest desc. (CG)
   ISIF   =      2    stress and relaxation
   IWAVPR =     11    prediction:  0-non 1-charg 2-wave 3-comb
   ISYM   =      2    0-nonsym 1-usesym 2-fastsym
   LCORR  =      T    Harris-Foulkes like correction to forces

   POTIM  = 0.0000    time-step for ionic-motion
   TEIN   =    0.0    initial temperature
   TEBEG  =    0.0;   TEEND  =   0.0 temperature during run
   SMASS  =   2.00    Nose mass-parameter (am)
   estimated Nose-frequenzy (Omega)   =  0.12E+10 period in steps =  0.00 mass=   0.137E-25a.u.
   SCALEE = 1.0000    scale energy and forces
   NPACO  =    256;   APACO  = 16.0  distance and # of slots for P.C.
   PSTRESS=    0.0 pullay stress

  Mass of Ions in am
   POMASS =   1.00 12.01 14.00
  Ionic Valenz
   ZVAL   =   1.00  4.00  5.00
  Atomic Wigner-Seitz radii
   RWIGS  =  -1.00 -1.00 -1.00
  virtual crystal weights 
   VCA    =   1.00  1.00  1.00
   NELECT =      16.0000    total number of electrons
   NUPDOWN=      -1.0000    fix difference up-down

 DOS related values:
   EMIN   =  10.00;   EMAX   =-10.00  energy-range for DOS
   EFERMI =   0.00
   ISMEAR =     0;   SIGMA  =   0.20  broadening in eV -4-tet -1-fermi 0-gaus

 Electronic relaxation 2 (details)
   IALGO  =     38    algorithm
   LDIAG  =      T    sub-space diagonalisation (order eigenvalues)
   LSUBROT=      F    optimize rotation matrix (better conditioning)
   TURBO    =      0    0=normal 1=particle mesh
   IRESTART =      0    0=no restart 2=restart with 2 vectors
   NREBOOT  =      0    no. of reboots
   NMIN     =      0    reboot dimension
   EREF     =   0.00    reference energy to select bands
   IMIX   =      4    mixing-type and parameters
     AMIX     =   0.40;   BMIX     =  1.00
     AMIX_MAG =   1.60;   BMIX_MAG =  1.00
     AMIN     =   0.10
     WC   =   100.;   INIMIX=   1;  MIXPRE=   1;  MAXMIX= -45

 Intra band minimization:
   WEIMIN = 0.0010     energy-eigenvalue tresh-hold
   EBREAK =  0.21E-05  absolut break condition
   DEPER  =   0.30     relativ break condition  

   TIME   =   0.40     timestep for ELM

  volume/ion in A,a.u.               =    4500.00     30367.50
  Fermi-wavevector in a.u.,A,eV,Ry     =   0.137508  0.259852  0.257264  0.018908
  Thomas-Fermi vector in A             =   0.790710
 
 Write flags
   LWAVE  =      F    write WAVECAR
   LCHARG =      F    write CHGCAR
   LVTOT  =      F    write LOCPOT, total local potential
   LVHAR  =      F    write LOCPOT, Hartree potential only
   LELF   =      F    write electronic localiz. function (ELF)
   LORBIT =      0    0 simple, 1 ext, 2 COOP (PROOUT)


 Dipole corrections
   LMONO  =      F    monopole corrections only (constant potential shift)
   LDIPOL =      F    correct potential (dipole corrections)
   IDIPOL =      0    1-x, 2-y, 3-z, 4-all directions 
   EPSILON=  1.0000000 bulk dielectric constant

 Exchange correlation treatment:
   GGA     =    PE    GGA type
   LEXCH   =     8    internal setting for exchange type
   VOSKOWN=      0    Vosko Wilk Nusair interpolation
   LHFCALC =     F    Hartree Fock is set to
   LHFONE  =     F    Hartree Fock one center treatment
   AEXX    =    0.0000 exact exchange contribution

 Linear response parameters
   LEPSILON=     F    determine dielectric tensor
   LRPA    =     F    only Hartree local field effects (RPA)
   LNABLA  =     F    use nabla operator in PAW spheres
   LVEL    =     F    velocity operator in full k-point grid
   LINTERFAST=   F  fast interpolation
   KINTER  =     0    interpolate to denser k-point grid
   CSHIFT  =0.1000    complex shift for real part using Kramers Kronig
   OMEGAMAX=  -1.0    maximum frequency
   DEG_THRESHOLD= 0.2000000E-02 threshold for treating states as degnerate
   RTIME   =    0.100 relaxation time in fs

 Orbital magnetization related:
   ORBITALMAG=     F  switch on orbital magnetization
   LCHIMAG   =     F  perturbation theory with respect to B field
   DQ        =  0.001000  dq finite difference perturbation B field



--------------------------------------------------------------------------------------------------------


 quickmin algorithm: (dynamic with friction)
 charge density and potential will be updated during run
 non-spin polarized calculation
 Variant of blocked Davidson
 Davidson routine will perform the subspace rotation
 perform sub-space diagonalisation
    after iterative eigenvector-optimisation
 modified Broyden-mixing scheme, WC =      100.0
 initial mixing is a Kerker type mixing with AMIX =  0.4000 and BMIX =      1.0000
 Hartree-type preconditioning will be used
 using additional bands            4
 real space projection scheme for non local part
 use partial core corrections
 calculate Harris-corrections to forces 
   (improved forces if not selfconsistent)
 use gradient corrections 
 use of overlap-Matrix (Vanderbilt PP)
 Gauss-broadening in eV      SIGMA  =   0.20


--------------------------------------------------------------------------------------------------------


  energy-cutoff  :      400.00
  volume of cell :    27000.00
      direct lattice vectors                 reciprocal lattice vectors
    30.000000000  0.000000000  0.000000000     0.033333333  0.000000000  0.000000000
     0.000000000 30.000000000  0.000000000     0.000000000  0.033333333  0.000000000
     0.000000000  0.000000000 30.000000000     0.000000000  0.000000000  0.033333333

  length of vectors
    30.000000000 30.000000000 30.000000000     0.033333333  0.033333333  0.033333333


 
 k-points in units of 2pi/SCALE and weight: Mo2C                                    
   0.00833333  0.00833333  0.00833333       0.250
  -0.00833333  0.00833333  0.00833333       0.250
   0.00833333 -0.00833333  0.00833333       0.250
  -0.00833333 -0.00833333  0.00833333       0.250
 
 k-points in reciprocal lattice and weights: Mo2C                                    
   0.25000000  0.25000000  0.25000000       0.250
  -0.25000000  0.25000000  0.25000000       0.250
   0.25000000 -0.25000000  0.25000000       0.250
  -0.25000000 -0.25000000  0.25000000       0.250
 
 position of ions in fractional coordinates (direct lattice) 
   0.46813532  0.47629665  0.51991872
   0.46823842  0.51561616  0.47500429
   0.48542879  0.53250304  0.52938428
   0.48570533  0.50489452  0.50528699
   0.56306373  0.47863228  0.47733515
   0.52943298  0.49207001  0.49306946
 
 position of ions in cartesian coordinates  (Angst):
  14.04405962 14.28889941 15.59756152
  14.04715246 15.46848485 14.25012863
  14.56286373 15.97509117 15.88152826
  14.57115991 15.14683575 15.15860964
  16.89191177 14.35896827 14.32005441
  15.88298950 14.76210022 14.79208365
 


--------------------------------------------------------------------------------------------------------


 k-point  1 :   0.2500 0.2500 0.2500  plane waves:  490454
 k-point  2 :  -0.2500 0.2500 0.2500  plane waves:  490454
 k-point  3 :   0.2500-0.2500 0.2500  plane waves:  490454
 k-point  4 :  -0.2500-0.2500 0.2500  plane waves:  490454

 maximum and minimum number of plane-waves per node :    490454   490454

 maximum number of plane-waves:    490454
 maximum index in each direction: 
   IXMAX=   49   IYMAX=   49   IZMAX=   48
   IXMIN=  -49   IYMIN=  -49   IZMIN=  -49

 WARNING: aliasing errors must be expected set NGX to 198 to avoid them
 WARNING: aliasing errors must be expected set NGY to 198 to avoid them
 WARNING: aliasing errors must be expected set NGZ to 196 to avoid them
 aliasing errors are usually negligible using standard VASP settings
 and one can safely disregard these warnings

 serial   3D FFT for wavefunctions
 parallel 3D FFT for charge:
    minimum data exchange during FFTs selected (reduces bandwidth)


 total amount of memory used by VASP on root node  3203887. kBytes
========================================================================

   base      :      30000. kBytes
   nonlr-proj:        691. kBytes
   fftplans  :     924480. kBytes
   grid      :    1872000. kBytes
   one-center:         18. kBytes
   wavefun   :     376698. kBytes
 
     INWAV:  cpu time    0.0010: real time    0.0002
 Broyden mixing: mesh for mixing (old mesh)
   NGX = 97   NGY = 97   NGZ = 97
  (NGX  =300   NGY  =300   NGZ  =300)
  gives a total of 912673 points

 initial charge density was supplied:
 charge density of overlapping atoms calculated
 number of electron      16.0000000 magnetization 
 keeping initial charge density in first step


--------------------------------------------------------------------------------------------------------


 Maximum index for non-local projection operator         2268
 Maximum index for augmentation-charges         1496 (set IRDMAX)


--------------------------------------------------------------------------------------------------------


 First call to EWALD:  gamma=   0.059
 Maximum number of real-space cells 3x 3x 3
 Maximum number of reciprocal cells 3x 3x 3

 FEWALD executed in parallel
    FEWALD:  cpu time    0.0020: real time    0.0021


----------------------------------------- Iteration    1(   1)  ---------------------------------------


    POTLOK:  cpu time   19.2231: real time   19.2078
    SETDIJ:  cpu time    0.0090: real time    0.0080
     EDDAV:  cpu time   87.6587: real time   87.5867
       DOS:  cpu time    0.0000: real time    0.0003
    --------------------------------------------
      LOOP:  cpu time  106.8947: real time  106.8076

 eigenvalue-minimisations  :   160
 total energy-change (2. order) : 0.1127763E+03  (-0.2145472E+03)
 number of electron      16.0000000 magnetization 
 augmentation part       16.0000000 magnetization 

 Free energy of the ion-electron system (eV)
  ---------------------------------------------------
  alpha Z        PSCENC =         0.04144063
  Ewald energy   TEWEN  =       702.77145174
  -Hartree energ DENC   =     -1117.32246169
  -exchange      EXHF   =         0.00000000
  -V(xc)+E(xc)   XCENC  =        51.41292480
  PAW double counting   =       428.37890668     -430.73533574
  entropy T*S    EENTRO =        -0.17585585
  eigenvalues    EBANDS =      -117.76007130
  atomic energy  EATOM  =       596.16534815
  Solvation  Ediel_sol  =         0.00000000
  ---------------------------------------------------
  free energy    TOTEN  =       112.77634742 eV

  energy without entropy =      112.95220327  energy(sigma->0) =      112.86427535


--------------------------------------------------------------------------------------------------------




----------------------------------------- Iteration    1(   2)  ---------------------------------------


     EDDAV:  cpu time  112.1649: real time  112.1144
       DOS:  cpu time    0.0000: real time    0.0002
    --------------------------------------------
      LOOP:  cpu time  112.1669: real time  112.1179

 eigenvalue-minimisations  :   192
 total energy-change (2. order) :-0.1148153E+03  (-0.1128471E+03)
 number of electron      16.0000000 magnetization 
 augmentation part       16.0000000 magnetization 

 Free energy of the ion-electron system (eV)
  ---------------------------------------------------
  alpha Z        PSCENC =         0.04144063
  Ewald energy   TEWEN  =       702.77145174
  -Hartree energ DENC   =     -1117.32246169
  -exchange      EXHF   =         0.00000000
  -V(xc)+E(xc)   XCENC  =        51.41292480
  PAW double counting   =       428.37890668     -430.73533574
  entropy T*S    EENTRO =        -0.00000177
  eigenvalues    EBANDS =      -232.75127289
  atomic energy  EATOM  =       596.16534815
  Solvation  Ediel_sol  =         0.00000000
  ---------------------------------------------------
  free energy    TOTEN  =        -2.03900009 eV

  energy without entropy =       -2.03899832  energy(sigma->0) =       -2.03899921


--------------------------------------------------------------------------------------------------------




----------------------------------------- Iteration    1(   3)  ---------------------------------------


     EDDAV:  cpu time   91.6761: real time   91.6017
       DOS:  cpu time    0.0000: real time    0.0002
    --------------------------------------------
      LOOP:  cpu time   91.6781: real time   91.6051

 eigenvalue-minimisations  :   136
 total energy-change (2. order) :-0.3216769E+02  (-0.3201257E+02)
 number of electron      16.0000000 magnetization 
 augmentation part       16.0000000 magnetization 

 Free energy of the ion-electron system (eV)
  ---------------------------------------------------
  alpha Z        PSCENC =         0.04144063
  Ewald energy   TEWEN  =       702.77145174
  -Hartree energ DENC   =     -1117.32246169
  -exchange      EXHF   =         0.00000000
  -V(xc)+E(xc)   XCENC  =        51.41292480
  PAW double counting   =       428.37890668     -430.73533574
  entropy T*S    EENTRO =         0.00000000
  eigenvalues    EBANDS =      -264.91896265
  atomic energy  EATOM  =       596.16534815
  Solvation  Ediel_sol  =         0.00000000
  ---------------------------------------------------
  free energy    TOTEN  =       -34.20668807 eV

  energy without entropy =      -34.20668807  energy(sigma->0) =      -34.20668807


--------------------------------------------------------------------------------------------------------




----------------------------------------- Iteration    1(   4)  ---------------------------------------


     EDDAV:  cpu time   88.1076: real time   88.0353
       DOS:  cpu time    0.0000: real time    0.0002
    --------------------------------------------
      LOOP:  cpu time   88.1076: real time   88.0387

 eigenvalue-minimisations  :   128
 total energy-change (2. order) :-0.4689884E+01  (-0.4629883E+01)
 number of electron      16.0000000 magnetization 
 augmentation part       16.0000000 magnetization 

 Free energy of the ion-electron system (eV)
  ---------------------------------------------------
  alpha Z        PSCENC =         0.04144063
  Ewald energy   TEWEN  =       702.77145174
  -Hartree energ DENC   =     -1117.32246169
  -exchange      EXHF   =         0.00000000
  -V(xc)+E(xc)   XCENC  =        51.41292480
  PAW double counting   =       428.37890668     -430.73533574
  entropy T*S    EENTRO =         0.00000000
  eigenvalues    EBANDS =      -269.60884641
  atomic energy  EATOM  =       596.16534815
  Solvation  Ediel_sol  =         0.00000000
  ---------------------------------------------------
  free energy    TOTEN  =       -38.89657184 eV

  energy without entropy =      -38.89657184  energy(sigma->0) =      -38.89657184


--------------------------------------------------------------------------------------------------------




----------------------------------------- Iteration    1(   5)  ---------------------------------------


     EDDAV:  cpu time   80.8137: real time   80.7483
       DOS:  cpu time    0.0000: real time    0.0002
    CHARGE:  cpu time    7.4069: real time    7.4014
    MIXING:  cpu time    0.6709: real time    0.6704
    --------------------------------------------
      LOOP:  cpu time   88.8935: real time   88.8237

 eigenvalue-minimisations  :   112
 total energy-change (2. order) :-0.1548639E+00  (-0.1533823E+00)
 number of electron      15.9999995 magnetization 
 augmentation part        0.5181691 magnetization 

 Broyden mixing:
  rms(total) = 0.10355E+01    rms(broyden)= 0.10349E+01
  rms(prec ) = 0.10719E+01
  weight for this iteration     100.00

 Free energy of the ion-electron system (eV)
  ---------------------------------------------------
  alpha Z        PSCENC =         0.04144063
  Ewald energy   TEWEN  =       702.77145174
  -Hartree energ DENC   =     -1117.32246169
  -exchange      EXHF   =         0.00000000
  -V(xc)+E(xc)   XCENC  =        51.41292480
  PAW double counting   =       428.37890668     -430.73533574
  entropy T*S    EENTRO =         0.00000000
  eigenvalues    EBANDS =      -269.76371035
  atomic energy  EATOM  =       596.16534815
  Solvation  Ediel_sol  =         0.00000000
  ---------------------------------------------------
  free energy    TOTEN  =       -39.05143578 eV

  energy without entropy =      -39.05143578  energy(sigma->0) =      -39.05143578


--------------------------------------------------------------------------------------------------------




----------------------------------------- Iteration    1(   6)  ---------------------------------------


    POTLOK:  cpu time   21.8057: real time   21.7895
    SETDIJ:  cpu time    0.0080: real time    0.0082
     EDDAV:  cpu time   80.5208: real time   80.4545
       DOS:  cpu time    0.0000: real time    0.0002
    CHARGE:  cpu time    7.1519: real time    7.1463
    MIXING:  cpu time    0.7339: real time    0.7326
    --------------------------------------------
      LOOP:  cpu time  110.2222: real time  110.1352

 eigenvalue-minimisations  :   112
 total energy-change (2. order) : 0.2670389E+01  (-0.4391214E+00)
 number of electron      15.9999995 magnetization 
 augmentation part        0.4720798 magnetization 

 Broyden mixing:
  rms(total) = 0.56104E+00    rms(broyden)= 0.56097E+00
  rms(prec ) = 0.57657E+00
  weight for this iteration     100.00

 eigenvalues of (default mixing * dielectric matrix)
  average eigenvalue GAMMA=   1.6028
  1.6028

 Free energy of the ion-electron system (eV)
  ---------------------------------------------------
  alpha Z        PSCENC =         0.04144063
  Ewald energy   TEWEN  =       702.77145174
  -Hartree energ DENC   =     -1146.38539763
  -exchange      EXHF   =         0.00000000
  -V(xc)+E(xc)   XCENC  =        53.00827965
  PAW double counting   =       718.52580220     -721.21565658
  entropy T*S    EENTRO =         0.00000000
  eigenvalues    EBANDS =      -239.29231459
  atomic energy  EATOM  =       596.16534815
  Solvation  Ediel_sol  =         0.00000000
  ---------------------------------------------------
  free energy    TOTEN  =       -36.38104643 eV

  energy without entropy =      -36.38104643  energy(sigma->0) =      -36.38104643


--------------------------------------------------------------------------------------------------------




----------------------------------------- Iteration    1(   7)  ---------------------------------------


    POTLOK:  cpu time   22.2926: real time   22.2759
    SETDIJ:  cpu time    0.0080: real time    0.0082
     EDDAV:  cpu time   87.3487: real time   87.2766
       DOS:  cpu time    0.0000: real time    0.0002
    CHARGE:  cpu time    6.7750: real time    6.7697
    MIXING:  cpu time    0.8259: real time    0.8253
    --------------------------------------------
      LOOP:  cpu time  117.2522: real time  117.1596

 eigenvalue-minimisations  :   124
 total energy-change (2. order) : 0.6955867E+00  (-0.1800715E+00)
 number of electron      15.9999995 magnetization 
 augmentation part        0.4570985 magnetization 

 Broyden mixing:
  rms(total) = 0.22570E+00    rms(broyden)= 0.22564E+00
  rms(prec ) = 0.23088E+00
  weight for this iteration     100.00

 eigenvalues of (default mixing * dielectric matrix)
  average eigenvalue GAMMA=   1.5612
  1.0660  2.0563

 Free energy of the ion-electron system (eV)
  ---------------------------------------------------
  alpha Z        PSCENC =         0.04144063
  Ewald energy   TEWEN  =       702.77145174
  -Hartree energ DENC   =     -1166.08112795
  -exchange      EXHF   =         0.00000000
  -V(xc)+E(xc)   XCENC  =        54.26640159
  PAW double counting   =      1092.72017407    -1095.59831456
  entropy T*S    EENTRO =         0.00000000
  eigenvalues    EBANDS =      -219.97083340
  atomic energy  EATOM  =       596.16534815
  Solvation  Ediel_sol  =         0.00000000
  ---------------------------------------------------
  free energy    TOTEN  =       -35.68545972 eV

  energy without entropy =      -35.68545972  energy(sigma->0) =      -35.68545972


--------------------------------------------------------------------------------------------------------




----------------------------------------- Iteration    1(   8)  ---------------------------------------


    POTLOK:  cpu time   21.9677: real time   21.9502
    SETDIJ:  cpu time    0.0080: real time    0.0084
     EDDAV:  cpu time   90.5122: real time   90.4372
       DOS:  cpu time    0.0000: real time    0.0002
    CHARGE:  cpu time    6.5560: real time    6.5509
    MIXING:  cpu time    0.7899: real time    0.7891
    --------------------------------------------
      LOOP:  cpu time  119.8348: real time  119.7401

 eigenvalue-minimisations  :   128
 total energy-change (2. order) : 0.7110559E-01  (-0.1485295E-01)
 number of electron      15.9999995 magnetization 
 augmentation part        0.4480545 magnetization 

 Broyden mixing:
  rms(total) = 0.90323E-01    rms(broyden)= 0.90301E-01
  rms(prec ) = 0.94550E-01
  weight for this iteration     100.00

 eigenvalues of (default mixing * dielectric matrix)
  average eigenvalue GAMMA=   1.5910
  2.3172  1.6359  0.8198

 Free energy of the ion-electron system (eV)
  ---------------------------------------------------
  alpha Z        PSCENC =         0.04144063
  Ewald energy   TEWEN  =       702.77145174
  -Hartree energ DENC   =     -1172.52996469
  -exchange      EXHF   =         0.00000000
  -V(xc)+E(xc)   XCENC  =        54.68466433
  PAW double counting   =      1267.50450529    -1270.40499282
  entropy T*S    EENTRO =         0.00000000
  eigenvalues    EBANDS =      -213.84680677
  atomic energy  EATOM  =       596.16534815
  Solvation  Ediel_sol  =         0.00000000
  ---------------------------------------------------
  free energy    TOTEN  =       -35.61435413 eV

  energy without entropy =      -35.61435413  energy(sigma->0) =      -35.61435413


--------------------------------------------------------------------------------------------------------




----------------------------------------- Iteration    1(   9)  ---------------------------------------


    POTLOK:  cpu time   22.0836: real time   22.0651
    SETDIJ:  cpu time    0.0080: real time    0.0082
     EDDAV:  cpu time   89.8943: real time   89.8214
       DOS:  cpu time    0.0000: real time    0.0002
    CHARGE:  cpu time    6.7680: real time    6.7623
    MIXING:  cpu time    0.9209: real time    0.9199
    --------------------------------------------
      LOOP:  cpu time  119.6758: real time  119.5808

 eigenvalue-minimisations  :   128
 total energy-change (2. order) : 0.1908451E-01  (-0.2401210E-02)
 number of electron      15.9999995 magnetization 
 augmentation part        0.4486043 magnetization 

 Broyden mixing:
  rms(total) = 0.21922E-01    rms(broyden)= 0.21912E-01
  rms(prec ) = 0.28061E-01
  weight for this iteration     100.00

 eigenvalues of (default mixing * dielectric matrix)
  average eigenvalue GAMMA=   1.5283
  2.1065  1.8731  0.8447  1.2886

 Free energy of the ion-electron system (eV)
  ---------------------------------------------------
  alpha Z        PSCENC =         0.04144063
  Ewald energy   TEWEN  =       702.77145174
  -Hartree energ DENC   =     -1173.77212219
  -exchange      EXHF   =         0.00000000
  -V(xc)+E(xc)   XCENC  =        54.77146361
  PAW double counting   =      1335.06482330    -1337.93701155
  entropy T*S    EENTRO =         0.00000000
  eigenvalues    EBANDS =      -212.70066332
  atomic energy  EATOM  =       596.16534815
  Solvation  Ediel_sol  =         0.00000000
  ---------------------------------------------------
  free energy    TOTEN  =       -35.59526962 eV

  energy without entropy =      -35.59526962  energy(sigma->0) =      -35.59526962


--------------------------------------------------------------------------------------------------------




----------------------------------------- Iteration    1(  10)  ---------------------------------------


    POTLOK:  cpu time   21.3298: real time   21.3132
    SETDIJ:  cpu time    0.0090: real time    0.0083
     EDDAV:  cpu time   91.2621: real time   91.1885
       DOS:  cpu time    0.0000: real time    0.0002
    CHARGE:  cpu time    6.5700: real time    6.5648
    MIXING:  cpu time    0.9589: real time    0.9578
    --------------------------------------------
      LOOP:  cpu time  120.1317: real time  120.0364

 eigenvalue-minimisations  :   128
 total energy-change (2. order) : 0.1859018E-03  (-0.4285421E-03)
 number of electron      15.9999995 magnetization 
 augmentation part        0.4494148 magnetization 

 Broyden mixing:
  rms(total) = 0.13216E-01    rms(broyden)= 0.13210E-01
  rms(prec ) = 0.18922E-01
  weight for this iteration     100.00

 eigenvalues of (default mixing * dielectric matrix)
  average eigenvalue GAMMA=   1.5072
  2.1854  2.1854  0.8796  0.8796  1.4063

 Free energy of the ion-electron system (eV)
  ---------------------------------------------------
  alpha Z        PSCENC =         0.04144063
  Ewald energy   TEWEN  =       702.77145174
  -Hartree energ DENC   =     -1174.72470239
  -exchange      EXHF   =         0.00000000
  -V(xc)+E(xc)   XCENC  =        54.79402495
  PAW double counting   =      1329.92699517    -1332.79510623
  entropy T*S    EENTRO =         0.00000000
  eigenvalues    EBANDS =      -211.77453574
  atomic energy  EATOM  =       596.16534815
  Solvation  Ediel_sol  =         0.00000000
  ---------------------------------------------------
  free energy    TOTEN  =       -35.59508372 eV

  energy without entropy =      -35.59508372  energy(sigma->0) =      -35.59508372


--------------------------------------------------------------------------------------------------------




----------------------------------------- Iteration    1(  11)  ---------------------------------------


    POTLOK:  cpu time   22.4946: real time   22.4772
    SETDIJ:  cpu time    0.0080: real time    0.0082
     EDDAV:  cpu time   87.7247: real time   87.6534
       DOS:  cpu time    0.0000: real time    0.0002
    CHARGE:  cpu time    6.7220: real time    6.7171
    MIXING:  cpu time    1.0898: real time    1.0885
    --------------------------------------------
      LOOP:  cpu time  118.0421: real time  117.9482

 eigenvalue-minimisations  :   124
 total energy-change (2. order) :-0.1608054E-02  (-0.1569442E-03)
 number of electron      15.9999995 magnetization 
 augmentation part        0.4489680 magnetization 

 Broyden mixing:
  rms(total) = 0.81637E-02    rms(broyden)= 0.81626E-02
  rms(prec ) = 0.13073E-01
  weight for this iteration     100.00

 eigenvalues of (default mixing * dielectric matrix)
  average eigenvalue GAMMA=   1.6599
  2.7363  2.5588  1.4470  1.4470  0.8853  0.8853

 Free energy of the ion-electron system (eV)
  ---------------------------------------------------
  alpha Z        PSCENC =         0.04144063
  Ewald energy   TEWEN  =       702.77145174
  -Hartree energ DENC   =     -1175.75504124
  -exchange      EXHF   =         0.00000000
  -V(xc)+E(xc)   XCENC  =        54.82502634
  PAW double counting   =      1328.99080075    -1331.85697574
  entropy T*S    EENTRO =         0.00000000
  eigenvalues    EBANDS =      -210.77874240
  atomic energy  EATOM  =       596.16534815
  Solvation  Ediel_sol  =         0.00000000
  ---------------------------------------------------
  free energy    TOTEN  =       -35.59669177 eV

  energy without entropy =      -35.59669177  energy(sigma->0) =      -35.59669177


--------------------------------------------------------------------------------------------------------




----------------------------------------- Iteration    1(  12)  ---------------------------------------


    POTLOK:  cpu time   22.2266: real time   22.2095
    SETDIJ:  cpu time    0.0080: real time    0.0082
     EDDAV:  cpu time   79.9059: real time   79.8408
       DOS:  cpu time    0.0000: real time    0.0002
    CHARGE:  cpu time    6.4870: real time    6.4812
    MIXING:  cpu time    1.0708: real time    1.0701
    --------------------------------------------
      LOOP:  cpu time  109.7003: real time  109.6141

 eigenvalue-minimisations  :   112
 total energy-change (2. order) :-0.5681799E-02  (-0.3220721E-03)
 number of electron      15.9999995 magnetization 
 augmentation part        0.4486523 magnetization 

 Broyden mixing:
  rms(total) = 0.46247E-02    rms(broyden)= 0.46202E-02
  rms(prec ) = 0.73699E-02
  weight for this iteration     100.00

 eigenvalues of (default mixing * dielectric matrix)
  average eigenvalue GAMMA=   1.7881
  3.8225  2.2216  1.9586  1.5936  0.8972  1.0117  1.0117

 Free energy of the ion-electron system (eV)
  ---------------------------------------------------
  alpha Z        PSCENC =         0.04144063
  Ewald energy   TEWEN  =       702.77145174
  -Hartree energ DENC   =     -1177.03026038
  -exchange      EXHF   =         0.00000000
  -V(xc)+E(xc)   XCENC  =        54.85607373
  PAW double counting   =      1325.77040627    -1328.63413469
  entropy T*S    EENTRO =         0.00000000
  eigenvalues    EBANDS =      -209.54269902
  atomic energy  EATOM  =       596.16534815
  Solvation  Ediel_sol  =         0.00000000
  ---------------------------------------------------
  free energy    TOTEN  =       -35.60237357 eV

  energy without entropy =      -35.60237357  energy(sigma->0) =      -35.60237357


--------------------------------------------------------------------------------------------------------




----------------------------------------- Iteration    1(  13)  ---------------------------------------


    POTLOK:  cpu time   21.9417: real time   21.9246
    SETDIJ:  cpu time    0.0090: real time    0.0084
     EDDAV:  cpu time   87.6597: real time   87.5885
       DOS:  cpu time    0.0000: real time    0.0002
    CHARGE:  cpu time    6.4950: real time    6.4901
    MIXING:  cpu time    1.0718: real time    1.0709
    --------------------------------------------
      LOOP:  cpu time  117.1792: real time  117.0871

 eigenvalue-minimisations  :   124
 total energy-change (2. order) :-0.6139053E-02  (-0.1660078E-03)
 number of electron      15.9999995 magnetization 
 augmentation part        0.4484585 magnetization 

 Broyden mixing:
  rms(total) = 0.28836E-02    rms(broyden)= 0.28815E-02
  rms(prec ) = 0.43499E-02
  weight for this iteration     100.00

 eigenvalues of (default mixing * dielectric matrix)
  average eigenvalue GAMMA=   1.8783
  4.8712  2.4147  1.7489  1.7489  1.4088  0.8986  0.8986  1.0364

 Free energy of the ion-electron system (eV)
  ---------------------------------------------------
  alpha Z        PSCENC =         0.04144063
  Ewald energy   TEWEN  =       702.77145174
  -Hartree energ DENC   =     -1177.63229581
  -exchange      EXHF   =         0.00000000
  -V(xc)+E(xc)   XCENC  =        54.86283575
  PAW double counting   =      1324.97628944    -1327.84057666
  entropy T*S    EENTRO =         0.00000000
  eigenvalues    EBANDS =      -208.95300587
  atomic energy  EATOM  =       596.16534815
  Solvation  Ediel_sol  =         0.00000000
  ---------------------------------------------------
  free energy    TOTEN  =       -35.60851263 eV

  energy without entropy =      -35.60851263  energy(sigma->0) =      -35.60851263


--------------------------------------------------------------------------------------------------------




----------------------------------------- Iteration    1(  14)  ---------------------------------------


    POTLOK:  cpu time   21.7417: real time   21.7249
    SETDIJ:  cpu time    0.0090: real time    0.0084
     EDDAV:  cpu time   89.8713: real time   89.7978
       DOS:  cpu time    0.0000: real time    0.0002
    CHARGE:  cpu time    6.4760: real time    6.4708
    MIXING:  cpu time    1.1418: real time    1.1408
    --------------------------------------------
      LOOP:  cpu time  119.2409: real time  119.1471

 eigenvalue-minimisations  :   128
 total energy-change (2. order) :-0.3642652E-02  (-0.4311334E-04)
 number of electron      15.9999995 magnetization 
 augmentation part        0.4484984 magnetization 

 Broyden mixing:
  rms(total) = 0.18887E-02    rms(broyden)= 0.18881E-02
  rms(prec ) = 0.27527E-02
  weight for this iteration     100.00

 eigenvalues of (default mixing * dielectric matrix)
  average eigenvalue GAMMA=   1.9579
  5.0855  2.5341  2.5341  1.9127  1.5861  1.1030  1.1030  0.8813  0.8813

 Free energy of the ion-electron system (eV)
  ---------------------------------------------------
  alpha Z        PSCENC =         0.04144063
  Ewald energy   TEWEN  =       702.77145174
  -Hartree energ DENC   =     -1177.81041954
  -exchange      EXHF   =         0.00000000
  -V(xc)+E(xc)   XCENC  =        54.85731275
  PAW double counting   =      1323.31337598    -1326.17750273
  entropy T*S    EENTRO =         0.00000000
  eigenvalues    EBANDS =      -208.77316226
  atomic energy  EATOM  =       596.16534815
  Solvation  Ediel_sol  =         0.00000000
  ---------------------------------------------------
  free energy    TOTEN  =       -35.61215528 eV

  energy without entropy =      -35.61215528  energy(sigma->0) =      -35.61215528


--------------------------------------------------------------------------------------------------------




----------------------------------------- Iteration    1(  15)  ---------------------------------------


    POTLOK:  cpu time   22.4896: real time   22.4722
    SETDIJ:  cpu time    0.0080: real time    0.0084
     EDDAV:  cpu time   89.5124: real time   89.4389
       DOS:  cpu time    0.0000: real time    0.0002
    CHARGE:  cpu time    6.4520: real time    6.4479
    MIXING:  cpu time    1.1158: real time    1.1148
    --------------------------------------------
      LOOP:  cpu time  119.5808: real time  119.5351

 eigenvalue-minimisations  :   128
 total energy-change (2. order) :-0.3319650E-02  (-0.3432603E-04)
 number of electron      15.9999995 magnetization 
 augmentation part        0.4485423 magnetization 

 Broyden mixing:
  rms(total) = 0.12259E-02    rms(broyden)= 0.12257E-02
  rms(prec ) = 0.16595E-02
  weight for this iteration     100.00

 eigenvalues of (default mixing * dielectric matrix)
  average eigenvalue GAMMA=   2.0821
  6.4311  3.4907  2.3700  1.6352  1.6352  1.5106  1.0341  0.9158  0.9158  0.8827

 Free energy of the ion-electron system (eV)
  ---------------------------------------------------
  alpha Z        PSCENC =         0.04144063
  Ewald energy   TEWEN  =       702.77145174
  -Hartree energ DENC   =     -1177.84485086
  -exchange      EXHF   =         0.00000000
  -V(xc)+E(xc)   XCENC  =        54.85148393
  PAW double counting   =      1324.25796775    -1327.12233693
  entropy T*S    EENTRO =         0.00000000
  eigenvalues    EBANDS =      -208.73597934
  atomic energy  EATOM  =       596.16534815
  Solvation  Ediel_sol  =         0.00000000
  ---------------------------------------------------
  free energy    TOTEN  =       -35.61547493 eV

  energy without entropy =      -35.61547493  energy(sigma->0) =      -35.61547493


--------------------------------------------------------------------------------------------------------




----------------------------------------- Iteration    1(  16)  ---------------------------------------


    POTLOK:  cpu time   23.0535: real time   23.0354
    SETDIJ:  cpu time    0.0080: real time    0.0084
     EDDAV:  cpu time   89.2384: real time   89.1654
       DOS:  cpu time    0.0000: real time    0.0002
    CHARGE:  cpu time    6.8140: real time    6.8085
    MIXING:  cpu time    1.3118: real time    1.3110
    --------------------------------------------
      LOOP:  cpu time  120.4287: real time  120.3326

 eigenvalue-minimisations  :   128
 total energy-change (2. order) :-0.1332433E-02  (-0.1262450E-04)
 number of electron      15.9999995 magnetization 
 augmentation part        0.4485171 magnetization 

 Broyden mixing:
  rms(total) = 0.68573E-03    rms(broyden)= 0.68553E-03
  rms(prec ) = 0.93031E-03
  weight for this iteration     100.00

 eigenvalues of (default mixing * dielectric matrix)
  average eigenvalue GAMMA=   2.1059
  7.0915  3.4265  2.1208  2.1208  1.6623  1.6623  1.2987  1.0050  1.0050  0.8860
  0.8860

 Free energy of the ion-electron system (eV)
  ---------------------------------------------------
  alpha Z        PSCENC =         0.04144063
  Ewald energy   TEWEN  =       702.77145174
  -Hartree energ DENC   =     -1177.87483292
  -exchange      EXHF   =         0.00000000
  -V(xc)+E(xc)   XCENC  =        54.84895683
  PAW double counting   =      1324.13817841    -1327.00260085
  entropy T*S    EENTRO =         0.00000000
  eigenvalues    EBANDS =      -208.70474936
  atomic energy  EATOM  =       596.16534815
  Solvation  Ediel_sol  =         0.00000000
  ---------------------------------------------------
  free energy    TOTEN  =       -35.61680736 eV

  energy without entropy =      -35.61680736  energy(sigma->0) =      -35.61680736


--------------------------------------------------------------------------------------------------------




----------------------------------------- Iteration    1(  17)  ---------------------------------------


    POTLOK:  cpu time   21.6587: real time   21.6419
    SETDIJ:  cpu time    0.0080: real time    0.0084
     EDDAV:  cpu time   65.5220: real time   65.4684
       DOS:  cpu time    0.0000: real time    0.0002
    CHARGE:  cpu time    6.6850: real time    6.6794
    MIXING:  cpu time    1.4698: real time    1.4687
    --------------------------------------------
      LOOP:  cpu time   95.3455: real time   95.2710

 eigenvalue-minimisations  :    84
 total energy-change (2. order) :-0.7215872E-03  (-0.2208061E-05)
 number of electron      15.9999995 magnetization 
 augmentation part        0.4484918 magnetization 

 Broyden mixing:
  rms(total) = 0.40214E-03    rms(broyden)= 0.40199E-03
  rms(prec ) = 0.55745E-03
  weight for this iteration     100.00

 eigenvalues of (default mixing * dielectric matrix)
  average eigenvalue GAMMA=   2.2437
  8.0654  4.1814  2.7085  2.3404  1.6245  1.6245  1.5672  0.8809  0.8809  0.9966
  0.9966  1.0572

 Free energy of the ion-electron system (eV)
  ---------------------------------------------------
  alpha Z        PSCENC =         0.04144063
  Ewald energy   TEWEN  =       702.77145174
  -Hartree energ DENC   =     -1177.88614587
  -exchange      EXHF   =         0.00000000
  -V(xc)+E(xc)   XCENC  =        54.84805378
  PAW double counting   =      1323.93567653    -1326.79988868
  entropy T*S    EENTRO =         0.00000000
  eigenvalues    EBANDS =      -208.69346523
  atomic energy  EATOM  =       596.16534815
  Solvation  Ediel_sol  =         0.00000000
  ---------------------------------------------------
  free energy    TOTEN  =       -35.61752895 eV

  energy without entropy =      -35.61752895  energy(sigma->0) =      -35.61752895


--------------------------------------------------------------------------------------------------------




----------------------------------------- Iteration    1(  18)  ---------------------------------------


    POTLOK:  cpu time   21.7257: real time   21.7081
    SETDIJ:  cpu time    0.0080: real time    0.0082
     EDDAV:  cpu time   72.9469: real time   72.8870
       DOS:  cpu time    0.0000: real time    0.0002
    CHARGE:  cpu time    6.2201: real time    6.2154
    MIXING:  cpu time    1.4948: real time    1.4932
    --------------------------------------------
      LOOP:  cpu time  102.3964: real time  102.3157

 eigenvalue-minimisations  :    96
 total energy-change (2. order) :-0.4683520E-03  (-0.3114724E-05)
 number of electron      15.9999995 magnetization 
 augmentation part        0.4484913 magnetization 

 Broyden mixing:
  rms(total) = 0.26342E-03    rms(broyden)= 0.26336E-03
  rms(prec ) = 0.33075E-03
  weight for this iteration     100.00

 eigenvalues of (default mixing * dielectric matrix)
  average eigenvalue GAMMA=   2.2952
  8.2942  4.7063  2.6488  2.2862  2.2862  1.6801  1.6801  1.4731  1.0136  1.0136
  0.8900  0.8900  0.9761

 Free energy of the ion-electron system (eV)
  ---------------------------------------------------
  alpha Z        PSCENC =         0.04144063
  Ewald energy   TEWEN  =       702.77145174
  -Hartree energ DENC   =     -1177.88061113
  -exchange      EXHF   =         0.00000000
  -V(xc)+E(xc)   XCENC  =        54.84719395
  PAW double counting   =      1324.16885931    -1327.03305130
  entropy T*S    EENTRO =         0.00000000
  eigenvalues    EBANDS =      -208.69862866
  atomic energy  EATOM  =       596.16534815
  Solvation  Ediel_sol  =         0.00000000
  ---------------------------------------------------
  free energy    TOTEN  =       -35.61799730 eV

  energy without entropy =      -35.61799730  energy(sigma->0) =      -35.61799730


--------------------------------------------------------------------------------------------------------




----------------------------------------- Iteration    1(  19)  ---------------------------------------


    POTLOK:  cpu time   21.6827: real time   21.6667
    SETDIJ:  cpu time    0.0090: real time    0.0084
     EDDAV:  cpu time   58.5371: real time   58.4891
       DOS:  cpu time    0.0000: real time    0.0002
    CHARGE:  cpu time    6.2550: real time    6.2504
    MIXING:  cpu time    1.7167: real time    1.7159
    --------------------------------------------
      LOOP:  cpu time   88.2036: real time   88.1345

 eigenvalue-minimisations  :    72
 total energy-change (2. order) :-0.2086678E-03  (-0.1002274E-05)
 number of electron      15.9999995 magnetization 
 augmentation part        0.4485017 magnetization 

 Broyden mixing:
  rms(total) = 0.18630E-03    rms(broyden)= 0.18625E-03
  rms(prec ) = 0.21716E-03
  weight for this iteration     100.00

 eigenvalues of (default mixing * dielectric matrix)
  average eigenvalue GAMMA=   2.3323
  8.6651  5.3219  3.2672  2.6048  1.9057  1.8404  1.6345  1.6345  1.0356  1.0356
  1.0753  0.8792  0.8792  0.8731

 Free energy of the ion-electron system (eV)
  ---------------------------------------------------
  alpha Z        PSCENC =         0.04144063
  Ewald energy   TEWEN  =       702.77145174
  -Hartree energ DENC   =     -1177.87278592
  -exchange      EXHF   =         0.00000000
  -V(xc)+E(xc)   XCENC  =        54.84667299
  PAW double counting   =      1324.14645169    -1327.01072772
  entropy T*S    EENTRO =         0.00000000
  eigenvalues    EBANDS =      -208.70605753
  atomic energy  EATOM  =       596.16534815
  Solvation  Ediel_sol  =         0.00000000
  ---------------------------------------------------
  free energy    TOTEN  =       -35.61820597 eV

  energy without entropy =      -35.61820597  energy(sigma->0) =      -35.61820597


--------------------------------------------------------------------------------------------------------




----------------------------------------- Iteration    1(  20)  ---------------------------------------


    POTLOK:  cpu time   21.4837: real time   21.4668
    SETDIJ:  cpu time    0.0090: real time    0.0085
     EDDAV:  cpu time   59.1790: real time   59.1310
       DOS:  cpu time    0.0000: real time    0.0002
    --------------------------------------------
      LOOP:  cpu time   80.6737: real time   80.6102

 eigenvalue-minimisations  :    80
 total energy-change (2. order) :-0.7172296E-04  (-0.3115609E-06)
 number of electron      15.9999995 magnetization 
 augmentation part        0.4485017 magnetization 

 Free energy of the ion-electron system (eV)
  ---------------------------------------------------
  alpha Z        PSCENC =         0.04144063
  Ewald energy   TEWEN  =       702.77145174
  -Hartree energ DENC   =     -1177.87326506
  -exchange      EXHF   =         0.00000000
  -V(xc)+E(xc)   XCENC  =        54.84651493
  PAW double counting   =      1324.03265177    -1326.89689412
  entropy T*S    EENTRO =         0.00000000
  eigenvalues    EBANDS =      -208.70552573
  atomic energy  EATOM  =       596.16534815
  Solvation  Ediel_sol  =         0.00000000
  ---------------------------------------------------
  free energy    TOTEN  =       -35.61827769 eV

  energy without entropy =      -35.61827769  energy(sigma->0) =      -35.61827769


--------------------------------------------------------------------------------------------------------




 average (electrostatic) potential at core
  the test charge radii are     0.5201  0.6991  0.7089
  (the norm of the test charge is              1.0000)
       1 -43.0737       2 -43.0772       3 -43.0649       4 -60.5176       5 -59.3802
       6 -74.8257
 
 
 
 E-fermi :  -6.1876     XC(G=0):  -0.0949     alpha+bet : -0.0137


 k-point     1 :       0.2500    0.2500    0.2500
  band No.  band energies     occupation 
      1     -23.8850      2.00000
      2     -19.2655      2.00000
      3     -13.8773      2.00000
      4     -11.8205      2.00000
      5     -11.7638      2.00000
      6      -8.3090      2.00000
      7      -8.2693      2.00000
      8      -7.1625      2.00000
      9      -0.9054      0.00000
     10      -0.7016      0.00000
     11      -0.6086      0.00000
     12      -0.0128      0.00000

 k-point     2 :      -0.2500    0.2500    0.2500
  band No.  band energies     occupation 
      1     -23.8850      2.00000
      2     -19.2655      2.00000
      3     -13.8773      2.00000
      4     -11.8205      2.00000
      5     -11.7638      2.00000
      6      -8.3090      2.00000
      7      -8.2693      2.00000
      8      -7.1625      2.00000
      9      -0.9054      0.00000
     10      -0.7016      0.00000
     11      -0.6087      0.00000
     12      -0.0119      0.00000

 k-point     3 :       0.2500   -0.2500    0.2500
  band No.  band energies     occupation 
      1     -23.8850      2.00000
      2     -19.2655      2.00000
      3     -13.8773      2.00000
      4     -11.8205      2.00000
      5     -11.7638      2.00000
      6      -8.3090      2.00000
      7      -8.2693      2.00000
      8      -7.1625      2.00000
      9      -0.9054      0.00000
     10      -0.7016      0.00000
     11      -0.6086      0.00000
     12      -0.0128      0.00000

 k-point     4 :      -0.2500   -0.2500    0.2500
  band No.  band energies     occupation 
      1     -23.8850      2.00000
      2     -19.2655      2.00000
      3     -13.8773      2.00000
      4     -11.8205      2.00000
      5     -11.7638      2.00000
      6      -8.3090      2.00000
      7      -8.2693      2.00000
      8      -7.1625      2.00000
      9      -0.9054      0.00000
     10      -0.7017      0.00000
     11      -0.6086      0.00000
     12      -0.0125      0.00000


--------------------------------------------------------------------------------------------------------


 soft charge-density along one line, spin component           1
         0         1         2         3         4         5         6         7         8         9
 total charge-density along one line
 
 pseudopotential strength for first ion, spin component:           1
 -2.362  -4.075  -0.001   0.001  -0.001
 -4.075  -6.942  -0.004   0.002  -0.003
 -0.001  -0.004  -0.331  -0.002   0.002
  0.001   0.002  -0.002  -0.333  -0.001
 -0.001  -0.003   0.002  -0.001  -0.333
 total augmentation occupancy for first ion, spin component:           1
  3.523  -0.634   0.347  -0.178   0.215
 -0.634   0.131  -0.064   0.033  -0.039
  0.347  -0.064   0.037  -0.015   0.019
 -0.178   0.033  -0.015   0.016  -0.009
  0.215  -0.039   0.019  -0.009   0.018


------------------------ aborting loop because EDIFF is reached ----------------------------------------


    CHARGE:  cpu time    6.1361: real time    6.1312
    FORLOC:  cpu time    2.8366: real time    2.8350
    FORNL :  cpu time   20.1329: real time   20.1159
    STRESS:  cpu time   62.2975: real time   62.2457
    FORCOR:  cpu time   22.3326: real time   22.3154
    FORHAR:  cpu time    7.8798: real time    7.8728
    MIXING:  cpu time    1.4688: real time    1.4683
    OFIELD:  cpu time    0.0000: real time    0.0000

  FORCE on cell =-STRESS in cart. coord.  units (eV):
  Direction    XX          YY          ZZ          XY          YZ          ZX
  --------------------------------------------------------------------------------------
  Alpha Z     0.04144     0.04144     0.04144
  Ewald     501.24028    95.27643   106.25453  -159.55141    60.00334  -171.50461
  Hartree   537.13414   318.33579   322.40727   -82.38523    29.41372   -86.73830
  E(xc)     -59.08381   -60.03341   -59.99400    -0.40381     0.16484    -0.45043
  Local   -1185.90888  -584.67657  -598.55192   231.75494   -85.09267   246.79418
  n-local   -25.69193   -24.68615   -24.91314     0.78467    -0.45175     1.04428
  augment     0.58008     0.94693     0.93526     0.14535    -0.05535     0.15616
  Kinetic   230.86913   253.73324   252.71205     9.76296    -4.10492    10.95803
  Fock        0.00000     0.00000     0.00000     0.00000     0.00000     0.00000
  -------------------------------------------------------------------------------------
  Total      -0.81957    -1.06230    -1.10851     0.10747    -0.12278     0.25931
  in kB      -0.04863    -0.06304    -0.06578     0.00638    -0.00729     0.01539
  external pressure =       -0.06 kB  Pullay stress =        0.00 kB


 VOLUME and BASIS-vectors are now :
 -----------------------------------------------------------------------------
  energy-cutoff  :      400.00
  volume of cell :    27000.00
      direct lattice vectors                 reciprocal lattice vectors
    30.000000000  0.000000000  0.000000000     0.033333333  0.000000000  0.000000000
     0.000000000 30.000000000  0.000000000     0.000000000  0.033333333  0.000000000
     0.000000000  0.000000000 30.000000000     0.000000000  0.000000000  0.033333333

  length of vectors
    30.000000000 30.000000000 30.000000000     0.033333333  0.033333333  0.033333333


 FORCES acting on ions
    electron-ion (+dipol)            ewald-force                    non-local-force                 convergence-correction
 -----------------------------------------------------------------------------------------------
   0.419E+02 0.441E+02 -.285E+02   -.447E+02 -.485E+02 0.307E+02   0.276E+01 0.442E+01 -.227E+01   -.932E-05 0.186E-03 -.521E-04
   0.425E+02 -.222E+02 0.471E+02   -.454E+02 0.239E+02 -.519E+02   0.273E+01 -.168E+01 0.472E+01   -.229E-04 -.293E-04 0.190E-03
   0.120E+02 -.494E+02 -.436E+02   -.120E+02 0.536E+02 0.473E+02   0.123E+00 -.427E+01 -.373E+01   -.883E-04 -.141E-03 -.115E-03
   0.111E+03 -.348E+02 -.356E+02   -.118E+03 0.368E+02 0.375E+02   0.701E+01 -.201E+01 -.192E+01   -.107E-02 0.305E-03 0.355E-03
   -.198E+03 0.760E+02 0.870E+02   0.220E+03 -.851E+02 -.978E+02   -.224E+02 0.922E+01 0.110E+02   0.994E-03 -.447E-03 -.545E-03
   -.154E+00 -.170E+02 -.303E+02   -.678E+00 0.192E+02 0.341E+02   0.116E+01 -.239E+01 -.395E+01   -.152E-02 0.587E-03 0.722E-03
 -----------------------------------------------------------------------------------------------
   0.857E+01 -.329E+01 -.382E+01   -.284E-13 0.000E+00 -.142E-13   -.857E+01 0.330E+01 0.383E+01   -.172E-02 0.459E-03 0.554E-03
 
 
 POSITION                                       TOTAL-FORCE (eV/Angst)
 -----------------------------------------------------------------------------------
     14.04406     14.28890     15.59756        -0.036314     -0.005590      0.011859
     14.04715     15.46848     14.25013        -0.162401      0.034599     -0.003282
     14.56286     15.97509     15.88153         0.164048     -0.028039     -0.005291
     14.57116     15.14684     15.15861        -0.080525      0.003198     -0.034570
     16.89191     14.35897     14.32005        -0.214092      0.181972      0.273706
     15.88299     14.76210     14.79208         0.329284     -0.186139     -0.242422
 -----------------------------------------------------------------------------------
    total drift:                               -0.001827      0.008879      0.006752


--------------------------------------------------------------------------------------------------------



  FREE ENERGIE OF THE ION-ELECTRON SYSTEM (eV)
  ---------------------------------------------------
  free  energy   TOTEN  =       -35.61827769 eV

  energy  without entropy=      -35.61827769  energy(sigma->0) =      -35.61827769
 


--------------------------------------------------------------------------------------------------------


    POTLOK:  cpu time   19.2081: real time   19.1916


--------------------------------------------------------------------------------------------------------


 NEB: the previous image is higher in energy: F
 NEB: the next image is higher in energy    : F
 NEB: image is at an extrema
 NEB: diff energy (min, max):     0.019134    0.023659

 NEB: Tangent
 ----------------------------------------------
      0.28613     -0.31656      0.05860
     -0.24745     -0.21543      0.13601
     -0.15557     -0.23455      0.12939
     -0.01682     -0.14041      0.06518
      0.09118      0.61760     -0.28840
      0.04232      0.28860     -0.10073

 NEB: forces: par spring, perp REAL, dneb     0.046363    0.648222    0.000000
 NEB: distance to prev, next image, angle between     0.705592    0.714865   67.755595
 NEB: projections on to tangent (spring, REAL)     0.046363    0.001943

 stress matrix after NEB project (eV)
     -0.81957      0.10747      0.25931
      0.10747     -1.06230     -0.12278
      0.25931     -0.12278     -1.10851
  FORCES: max atom, RMS     0.447958    0.265312
  FORCE total and by dimension    0.649878    0.331163
  Stress total and by dimension    1.793520    1.108514
 
 OPT: Flag T
 OPT: FIRE Step
 OPT: FIRE, TIMESTEP      0.10000
 OPT: FIRE, alpha         0.10000


--------------------------------------------------------------------------------------------------------


    WAVPRE:  cpu time    8.6227: real time    8.6161
 FEWALD executed in parallel
    FEWALD:  cpu time    0.0000: real time    0.0003
    ORTHCH:  cpu time    7.0269: real time    7.0229
     LOOP+:  cpu time 2409.9726: real time 2408.1678


----------------------------------------- Iteration    2(   1)  ---------------------------------------


    POTLOK:  cpu time   25.3301: real time   25.3098
    SETDIJ:  cpu time    0.0080: real time    0.0084
     EDDAV:  cpu time   68.7705: real time   68.7143
       DOS:  cpu time    0.0000: real time    0.0002
    CHARGE:  cpu time    6.2401: real time    6.2345
    MIXING:  cpu time    0.6979: real time    0.6983
    --------------------------------------------
      LOOP:  cpu time  101.0476: real time  100.9679

 eigenvalue-minimisations  :    96
 total energy-change (2. order) :-0.1148570E-02  (-0.1599485E-01)
 number of electron      15.9999995 magnetization 
 augmentation part        0.4502818 magnetization 

 Broyden mixing:
  rms(total) = 0.19062E-01    rms(broyden)= 0.19037E-01
  rms(prec ) = 0.19529E-01
  weight for this iteration     100.00

 Free energy of the ion-electron system (eV)
  ---------------------------------------------------
  alpha Z        PSCENC =         0.04144063
  Ewald energy   TEWEN  =       703.64890025
  -Hartree energ DENC   =     -1178.31213229
  -exchange      EXHF   =         0.00000000
  -V(xc)+E(xc)   XCENC  =        54.86518848
  PAW double counting   =      1324.09482241    -1326.95908239
  entropy T*S    EENTRO =         0.00000000
  eigenvalues    EBANDS =      -209.16383978
  atomic energy  EATOM  =       596.16534815
  Solvation  Ediel_sol  =         0.00000000
  ---------------------------------------------------
  free energy    TOTEN  =       -35.61935454 eV

  energy without entropy =      -35.61935454  energy(sigma->0) =      -35.61935454


--------------------------------------------------------------------------------------------------------




----------------------------------------- Iteration    2(   2)  ---------------------------------------


    POTLOK:  cpu time   22.7945: real time   22.7765
    SETDIJ:  cpu time    0.0090: real time    0.0085
     EDDAV:  cpu time   87.2017: real time   87.1335
       DOS:  cpu time    0.0000: real time    0.0002
    CHARGE:  cpu time    7.0019: real time    6.9964
    MIXING:  cpu time    0.7129: real time    0.7115
    --------------------------------------------
      LOOP:  cpu time  117.7231: real time  117.6307

 eigenvalue-minimisations  :   128
 total energy-change (2. order) : 0.3299640E-03  (-0.4331441E-03)
 number of electron      15.9999995 magnetization 
 augmentation part        0.4511694 magnetization 

 Broyden mixing:
  rms(total) = 0.90899E-02    rms(broyden)= 0.90842E-02
  rms(prec ) = 0.93368E-02
  weight for this iteration     100.00

 eigenvalues of (default mixing * dielectric matrix)
  average eigenvalue GAMMA=   1.0368
  1.0368

 Free energy of the ion-electron system (eV)
  ---------------------------------------------------
  alpha Z        PSCENC =         0.04144063
  Ewald energy   TEWEN  =       703.64890025
  -Hartree energ DENC   =     -1178.37759995
  -exchange      EXHF   =         0.00000000
  -V(xc)+E(xc)   XCENC  =        54.87163044
  PAW double counting   =      1327.74474179    -1330.61197118
  entropy T*S    EENTRO =         0.00000000
  eigenvalues    EBANDS =      -209.10151471
  atomic energy  EATOM  =       596.16534815
  Solvation  Ediel_sol  =         0.00000000
  ---------------------------------------------------
  free energy    TOTEN  =       -35.61902457 eV

  energy without entropy =      -35.61902457  energy(sigma->0) =      -35.61902457


--------------------------------------------------------------------------------------------------------




----------------------------------------- Iteration    2(   3)  ---------------------------------------


    POTLOK:  cpu time   22.6726: real time   22.6551
    SETDIJ:  cpu time    0.0080: real time    0.0084
     EDDAV:  cpu time   91.7321: real time   91.6567
       DOS:  cpu time    0.0010: real time    0.0002
    CHARGE:  cpu time    6.3390: real time    6.3349
    MIXING:  cpu time    0.7539: real time    0.7540
    --------------------------------------------
      LOOP:  cpu time  121.5075: real time  121.4135

 eigenvalue-minimisations  :   128
 total energy-change (2. order) : 0.1279604E-03  (-0.6560452E-04)
 number of electron      15.9999995 magnetization 
 augmentation part        0.4508927 magnetization 

 Broyden mixing:
  rms(total) = 0.44475E-02    rms(broyden)= 0.44463E-02
  rms(prec ) = 0.45124E-02
  weight for this iteration     100.00

 eigenvalues of (default mixing * dielectric matrix)
  average eigenvalue GAMMA=   1.3239
  0.8951  1.7526

 Free energy of the ion-electron system (eV)
  ---------------------------------------------------
  alpha Z        PSCENC =         0.04144063
  Ewald energy   TEWEN  =       703.64890025
  -Hartree energ DENC   =     -1178.52013932
  -exchange      EXHF   =         0.00000000
  -V(xc)+E(xc)   XCENC  =        54.87898267
  PAW double counting   =      1329.71503129    -1332.58462612
  entropy T*S    EENTRO =         0.00000000
  eigenvalues    EBANDS =      -208.96383417
  atomic energy  EATOM  =       596.16534815
  Solvation  Ediel_sol  =         0.00000000
  ---------------------------------------------------
  free energy    TOTEN  =       -35.61889661 eV

  energy without entropy =      -35.61889661  energy(sigma->0) =      -35.61889661


--------------------------------------------------------------------------------------------------------




----------------------------------------- Iteration    2(   4)  ---------------------------------------


    POTLOK:  cpu time   21.3997: real time   21.3826
    SETDIJ:  cpu time    0.0080: real time    0.0086
[...]
  ---------------------------------------------------
  free energy    TOTEN  =       -35.64315326 eV

  energy without entropy =      -35.64315326  energy(sigma->0) =      -35.64315326


--------------------------------------------------------------------------------------------------------




----------------------------------------- Iteration  135(   2)  ---------------------------------------


    POTLOK:  cpu time   25.5011: real time   25.4811
    SETDIJ:  cpu time    0.0090: real time    0.0089
     EDDAV:  cpu time   82.2065: real time   82.1398
       DOS:  cpu time    0.0000: real time    0.0002
    CHARGE:  cpu time    6.8310: real time    6.8258
    MIXING:  cpu time    0.7589: real time    0.7575
    --------------------------------------------
      LOOP:  cpu time  115.3075: real time  115.2166

 eigenvalue-minimisations  :   112
 total energy-change (2. order) :-0.1809065E-04  (-0.5253230E-04)
 number of electron      16.0000007 magnetization 
 augmentation part        0.4498163 magnetization 

 Broyden mixing:
  rms(total) = 0.29379E-02    rms(broyden)= 0.29350E-02
  rms(prec ) = 0.29946E-02
  weight for this iteration     100.00

 eigenvalues of (default mixing * dielectric matrix)
  average eigenvalue GAMMA=   1.6245
  1.6245

 Free energy of the ion-electron system (eV)
  ---------------------------------------------------
  alpha Z        PSCENC =         0.04144063
  Ewald energy   TEWEN  =       702.80189475
  -Hartree energ DENC   =     -1177.80666823
  -exchange      EXHF   =         0.00000000
  -V(xc)+E(xc)   XCENC  =        54.86100009
  PAW double counting   =      1328.48501416    -1331.35272989
  entropy T*S    EENTRO =         0.00000000
  eigenvalues    EBANDS =      -208.83847101
  atomic energy  EATOM  =       596.16534815
  Solvation  Ediel_sol  =         0.00000000
  ---------------------------------------------------
  free energy    TOTEN  =       -35.64317135 eV

  energy without entropy =      -35.64317135  energy(sigma->0) =      -35.64317135


--------------------------------------------------------------------------------------------------------




----------------------------------------- Iteration  135(   3)  ---------------------------------------


    POTLOK:  cpu time   23.8654: real time   23.8467
    SETDIJ:  cpu time    0.0080: real time    0.0083
     EDDAV:  cpu time   64.3102: real time   64.2582
       DOS:  cpu time    0.0000: real time    0.0002
    CHARGE:  cpu time    7.2519: real time    7.2459
    MIXING:  cpu time    0.7799: real time    0.7804
    --------------------------------------------
      LOOP:  cpu time   96.2174: real time   96.1436

 eigenvalue-minimisations  :    80
 total energy-change (2. order) :-0.2110682E-05  (-0.2312985E-05)
 number of electron      16.0000007 magnetization 
 augmentation part        0.4498167 magnetization 

 Broyden mixing:
  rms(total) = 0.84575E-03    rms(broyden)= 0.84517E-03
  rms(prec ) = 0.85859E-03
  weight for this iteration     100.00

 eigenvalues of (default mixing * dielectric matrix)
  average eigenvalue GAMMA=   1.5923
  0.9692  2.2154

 Free energy of the ion-electron system (eV)
  ---------------------------------------------------
  alpha Z        PSCENC =         0.04144063
  Ewald energy   TEWEN  =       702.80189475
  -Hartree energ DENC   =     -1177.80847229
  -exchange      EXHF   =         0.00000000
  -V(xc)+E(xc)   XCENC  =        54.86108644
  PAW double counting   =      1328.49275492    -1331.36050248
  entropy T*S    EENTRO =         0.00000000
  eigenvalues    EBANDS =      -208.83672358
  atomic energy  EATOM  =       596.16534815
  Solvation  Ediel_sol  =         0.00000000
  ---------------------------------------------------
  free energy    TOTEN  =       -35.64317346 eV

  energy without entropy =      -35.64317346  energy(sigma->0) =      -35.64317346


--------------------------------------------------------------------------------------------------------




----------------------------------------- Iteration  135(   4)  ---------------------------------------


    POTLOK:  cpu time   24.7572: real time   24.7368
    SETDIJ:  cpu time    0.0080: real time    0.0084
     EDDAV:  cpu time   45.6561: real time   45.6190
       DOS:  cpu time    0.0000: real time    0.0002
    CHARGE:  cpu time    6.8590: real time    6.8537
    MIXING:  cpu time    0.8019: real time    0.8001
    --------------------------------------------
      LOOP:  cpu time   78.0841: real time   78.0223

 eigenvalue-minimisations  :    48
 total energy-change (2. order) :-0.3575930E-05  (-0.1055257E-05)
 number of electron      16.0000007 magnetization 
 augmentation part        0.4498143 magnetization 

 Broyden mixing:
  rms(total) = 0.36116E-03    rms(broyden)= 0.36099E-03
  rms(prec ) = 0.37121E-03
  weight for this iteration     100.00

 eigenvalues of (default mixing * dielectric matrix)
  average eigenvalue GAMMA=   1.6857
  1.1767  2.2207  1.6598

 Free energy of the ion-electron system (eV)
  ---------------------------------------------------
  alpha Z        PSCENC =         0.04144063
  Ewald energy   TEWEN  =       702.80189475
  -Hartree energ DENC   =     -1177.80907108
  -exchange      EXHF   =         0.00000000
  -V(xc)+E(xc)   XCENC  =        54.86111326
  PAW double counting   =      1328.49743952    -1331.36519707
  entropy T*S    EENTRO =         0.00000000
  eigenvalues    EBANDS =      -208.83614520
  atomic energy  EATOM  =       596.16534815
  Solvation  Ediel_sol  =         0.00000000
  ---------------------------------------------------
  free energy    TOTEN  =       -35.64317704 eV

  energy without entropy =      -35.64317704  energy(sigma->0) =      -35.64317704


--------------------------------------------------------------------------------------------------------




----------------------------------------- Iteration  135(   5)  ---------------------------------------


    POTLOK:  cpu time   24.9962: real time   24.9758
    SETDIJ:  cpu time    0.0080: real time    0.0081
     EDDAV:  cpu time   51.5472: real time   51.5055
       DOS:  cpu time    0.0000: real time    0.0002
    CHARGE:  cpu time    6.4430: real time    6.4377
    MIXING:  cpu time    0.8419: real time    0.8407
    --------------------------------------------
      LOOP:  cpu time   83.8373: real time   83.7720

 eigenvalue-minimisations  :    60
 total energy-change (2. order) :-0.1160645E-05  (-0.1880312E-06)
 number of electron      16.0000007 magnetization 
 augmentation part        0.4498145 magnetization 

 Broyden mixing:
  rms(total) = 0.96480E-04    rms(broyden)= 0.96410E-04
  rms(prec ) = 0.10246E-03
  weight for this iteration     100.00

 eigenvalues of (default mixing * dielectric matrix)
  average eigenvalue GAMMA=   1.6001
  2.5578  0.9153  1.4637  1.4637

 Free energy of the ion-electron system (eV)
  ---------------------------------------------------
  alpha Z        PSCENC =         0.04144063
  Ewald energy   TEWEN  =       702.80189475
  -Hartree energ DENC   =     -1177.80856481
  -exchange      EXHF   =         0.00000000
  -V(xc)+E(xc)   XCENC  =        54.86108627
  PAW double counting   =      1328.49997264    -1331.36772286
  entropy T*S    EENTRO =         0.00000000
  eigenvalues    EBANDS =      -208.83663297
  atomic energy  EATOM  =       596.16534815
  Solvation  Ediel_sol  =         0.00000000
  ---------------------------------------------------
  free energy    TOTEN  =       -35.64317820 eV

  energy without entropy =      -35.64317820  energy(sigma->0) =      -35.64317820


--------------------------------------------------------------------------------------------------------




----------------------------------------- Iteration  135(   6)  ---------------------------------------


    POTLOK:  cpu time   22.1446: real time   22.1270
    SETDIJ:  cpu time    0.0080: real time    0.0081
     EDDAV:  cpu time   41.2517: real time   41.2176
       DOS:  cpu time    0.0000: real time    0.0002
    --------------------------------------------
      LOOP:  cpu time   63.4054: real time   63.3560

 eigenvalue-minimisations  :    48
 total energy-change (2. order) :-0.7115580E-06  (-0.3967112E-07)
 number of electron      16.0000007 magnetization 
 augmentation part        0.4498145 magnetization 

 Free energy of the ion-electron system (eV)
  ---------------------------------------------------
  alpha Z        PSCENC =         0.04144063
  Ewald energy   TEWEN  =       702.80189475
  -Hartree energ DENC   =     -1177.80859590
  -exchange      EXHF   =         0.00000000
  -V(xc)+E(xc)   XCENC  =        54.86108562
  PAW double counting   =      1328.49878326    -1331.36653319
  entropy T*S    EENTRO =         0.00000000
  eigenvalues    EBANDS =      -208.83660222
  atomic energy  EATOM  =       596.16534815
  Solvation  Ediel_sol  =         0.00000000
  ---------------------------------------------------
  free energy    TOTEN  =       -35.64317891 eV

  energy without entropy =      -35.64317891  energy(sigma->0) =      -35.64317891


--------------------------------------------------------------------------------------------------------




 average (electrostatic) potential at core
  the test charge radii are     0.5201  0.6991  0.7089
  (the norm of the test charge is              1.0000)
       1 -43.0809       2 -43.0803       3 -43.0802       4 -60.5346       5 -59.3476
       6 -74.8321
 
 
 
 E-fermi :  -6.1642     XC(G=0):  -0.0622     alpha+bet : -0.0137


 k-point     1 :       0.2500    0.2500    0.2500
  band No.  band energies     occupation 
      1     -23.8895      2.00000
      2     -19.2992      2.00000
      3     -13.8855      2.00000
      4     -11.7993      2.00000
      5     -11.7949      2.00000
      6      -8.3032      2.00000
      7      -8.3028      2.00000
      8      -7.1440      2.00000
      9      -0.7623      0.00000
     10      -0.6630      0.00000
     11      -0.6625      0.00000
     12       0.0231      0.00000

 k-point     2 :      -0.2500    0.2500    0.2500
  band No.  band energies     occupation 
      1     -23.8895      2.00000
      2     -19.2992      2.00000
      3     -13.8855      2.00000
      4     -11.7993      2.00000
      5     -11.7949      2.00000
      6      -8.3032      2.00000
      7      -8.3028      2.00000
      8      -7.1440      2.00000
      9      -0.7623      0.00000
     10      -0.6629      0.00000
     11      -0.6625      0.00000
     12       0.0228      0.00000

 k-point     3 :       0.2500   -0.2500    0.2500
  band No.  band energies     occupation 
      1     -23.8895      2.00000
      2     -19.2991      2.00000
      3     -13.8855      2.00000
      4     -11.7993      2.00000
      5     -11.7949      2.00000
      6      -8.3032      2.00000
      7      -8.3028      2.00000
      8      -7.1440      2.00000
      9      -0.7623      0.00000
     10      -0.6629      0.00000
     11      -0.6625      0.00000
     12       0.0230      0.00000

 k-point     4 :      -0.2500   -0.2500    0.2500
  band No.  band energies     occupation 
      1     -23.8895      2.00000
      2     -19.2991      2.00000
      3     -13.8855      2.00000
      4     -11.7993      2.00000
      5     -11.7949      2.00000
      6      -8.3032      2.00000
      7      -8.3028      2.00000
      8      -7.1440      2.00000
      9      -0.7623      0.00000
     10      -0.6629      0.00000
     11      -0.6625      0.00000
     12       0.0227      0.00000


--------------------------------------------------------------------------------------------------------


 soft charge-density along one line, spin component           1
         0         1         2         3         4         5         6         7         8         9
 total charge-density along one line
 
 pseudopotential strength for first ion, spin component:           1
 -2.363  -4.075  -0.001   0.001  -0.001
 -4.075  -6.943  -0.004   0.002  -0.003
 -0.001  -0.004  -0.331  -0.001   0.002
  0.001   0.002  -0.001  -0.334  -0.001
 -0.001  -0.003   0.002  -0.001  -0.332
 total augmentation occupancy for first ion, spin component:           1
  3.522  -0.634   0.341  -0.133   0.253
 -0.634   0.131  -0.063   0.024  -0.046
  0.341  -0.063   0.036  -0.011   0.022
 -0.133   0.024  -0.011   0.013  -0.008
  0.253  -0.046   0.022  -0.008   0.022


------------------------ aborting loop because EDIFF is reached ----------------------------------------


    CHARGE:  cpu time    5.8131: real time    5.8094
    FORLOC:  cpu time    2.8346: real time    2.8319
    FORNL :  cpu time   18.9041: real time   18.8891
    STRESS:  cpu time   56.8294: real time   56.7824
    FORCOR:  cpu time   21.9877: real time   21.9697
    FORHAR:  cpu time    7.5868: real time    7.5813
    MIXING:  cpu time    0.7699: real time    0.7687
    OFIELD:  cpu time    0.0000: real time    0.0000

  FORCE on cell =-STRESS in cart. coord.  units (eV):
  Direction    XX          YY          ZZ          XY          YZ          ZX
  --------------------------------------------------------------------------------------
  Alpha Z     0.04144     0.04144     0.04144
  Ewald     548.87167    96.97182    56.95809  -170.87216    31.91127   -94.95376
  Hartree   557.67151   320.50032   299.63688   -89.24049    16.69512   -49.72704
  E(xc)     -58.94680   -60.05570   -60.15499    -0.42196     0.07854    -0.23331
  Local   -1249.61683  -588.81857  -530.48277   249.34334   -46.60373   138.73587
  n-local   -26.39519   -24.61659   -24.44191     0.68754    -0.12406     0.36994
  augment     0.52770     0.94421     0.98233     0.15822    -0.02938     0.08770
  Kinetic   227.01299   254.03955   256.48805    10.29705    -1.91526     5.69215
  Fock        0.00000     0.00000     0.00000     0.00000     0.00000     0.00000
  -------------------------------------------------------------------------------------
  Total      -0.83352    -0.99353    -0.97288    -0.04847     0.01249    -0.02845
  in kB      -0.04946    -0.05896    -0.05773    -0.00288     0.00074    -0.00169
  external pressure =       -0.06 kB  Pullay stress =        0.00 kB


 VOLUME and BASIS-vectors are now :
 -----------------------------------------------------------------------------
  energy-cutoff  :      400.00
  volume of cell :    27000.00
      direct lattice vectors                 reciprocal lattice vectors
    30.000000000  0.000000000  0.000000000     0.033333333  0.000000000  0.000000000
     0.000000000 30.000000000  0.000000000     0.000000000  0.033333333  0.000000000
     0.000000000  0.000000000 30.000000000     0.000000000  0.000000000  0.033333333

  length of vectors
    30.000000000 30.000000000 30.000000000     0.033333333  0.033333333  0.033333333


 FORCES acting on ions
    electron-ion (+dipol)            ewald-force                    non-local-force                 convergence-correction
 -----------------------------------------------------------------------------------------------
   0.472E+02 0.429E+02 -.206E+02   -.504E+02 -.473E+02 0.223E+02   0.324E+01 0.434E+01 -.170E+01   -.449E-04 0.812E-04 -.143E-03
   0.366E+02 -.281E+02 0.486E+02   -.389E+02 0.303E+02 -.534E+02   0.227E+01 -.222E+01 0.471E+01   0.540E-04 0.843E-04 -.107E-03
   0.124E+02 -.470E+02 -.462E+02   -.124E+02 0.510E+02 0.502E+02   0.324E-01 -.397E+01 -.406E+01   -.967E-06 0.128E-03 -.149E-03
   0.113E+03 -.379E+02 -.212E+02   -.120E+03 0.402E+02 0.226E+02   0.708E+01 -.236E+01 -.134E+01   -.433E-05 0.633E-03 -.862E-03
   -.215E+03 0.726E+02 0.400E+02   0.240E+03 -.810E+02 -.446E+02   -.248E+02 0.840E+01 0.460E+01   0.476E-04 0.510E-03 -.740E-03
   0.152E+02 -.577E+01 -.237E+01   -.180E+02 0.682E+01 0.285E+01   0.287E+01 -.104E+01 -.487E+00   0.180E-04 0.274E-03 -.428E-03
 -----------------------------------------------------------------------------------------------
   0.932E+01 -.315E+01 -.173E+01   0.000E+00 -.142E-13 -.711E-14   -.932E+01 0.315E+01 0.173E+01   0.695E-04 0.171E-02 -.243E-02
 
 
 POSITION                                       TOTAL-FORCE (eV/Angst)
 -----------------------------------------------------------------------------------
     13.92950     14.30583     15.41132        -0.007566     -0.001400      0.002903
     14.11854     15.57931     14.16904         0.000811     -0.000986     -0.008004
     14.55269     15.91906     15.87007         0.005187      0.000760      0.009009
     14.55102     15.15104     15.08403        -0.000029     -0.000732     -0.000644
     16.97501     14.33654     14.63053         0.005637      0.000961     -0.001454
     15.87360     14.70901     14.83491        -0.004040      0.001397     -0.001811
 -----------------------------------------------------------------------------------
    total drift:                               -0.004173      0.003168     -0.005956


--------------------------------------------------------------------------------------------------------



  FREE ENERGIE OF THE ION-ELECTRON SYSTEM (eV)
  ---------------------------------------------------
  free  energy   TOTEN  =       -35.64317891 eV

  energy  without entropy=      -35.64317891  energy(sigma->0) =      -35.64317891
 
 d Force =-0.4179307E-05[-0.226E-05,-0.610E-05]  d Energy =-0.1407937E-05-0.277E-05
 d Force =-0.4682942E-02[-0.347E-02,-0.590E-02]  d Ewald  =-0.4682951E-02 0.924E-08


--------------------------------------------------------------------------------------------------------


    POTLOK:  cpu time   19.2681: real time   19.2525


--------------------------------------------------------------------------------------------------------


 NEB: the previous image is higher in energy: F
 NEB: the next image is higher in energy    : F
 NEB: image is at an extrema
 NEB: diff energy (min, max):     0.000249    0.000260

 NEB: Tangent
 ----------------------------------------------
      0.24094     -0.16022      0.41213
     -0.35404     -0.29652      0.16393
      0.08695      0.01172      0.04843
     -0.00487     -0.08293      0.11695
      0.02085      0.36452     -0.51401
      0.00975      0.16237     -0.22734

 NEB: forces: par spring, perp REAL, dneb     0.156764    0.017272    0.000000
 NEB: distance to prev, next image, angle between     0.579850    0.548497   96.484645
 NEB: projections on to tangent (spring, REAL)    -0.156764    0.000987

 stress matrix after NEB project (eV)
     -0.83352     -0.04847     -0.02845
     -0.04847     -0.99353      0.01249
     -0.02845      0.01249     -0.97288
  FORCES: max atom, RMS     0.097693    0.064386
  FORCE total and by dimension    0.157712    0.079632
  Stress total and by dimension    1.623260    0.993529
 OPT: skip step - force has converged


--------------------------------------------------------------------------------------------------------


  
 reached required accuracy - stopping structural energy minimisation
     LOOP+:  cpu time  680.8685: real time  680.3476
    4ORBIT:  cpu time    0.0000: real time    0.0000

 total amount of memory used by VASP on root node  3203887. kBytes
========================================================================

   base      :      30000. kBytes
   nonlr-proj:        691. kBytes
   fftplans  :     924480. kBytes
   grid      :    1872000. kBytes
   one-center:         18. kBytes
   wavefun   :     376698. kBytes
 
  
  
 General timing and accounting informations for this job:
 ========================================================
  
                  Total CPU time used (sec):    97130.461
                            User time (sec):    95622.208
                          System time (sec):     1508.253
                         Elapsed time (sec):    97129.293
  
                   Maximum memory used (kb):     4751128.
                   Average memory used (kb):           0.
  
                          Minor page faults:    115004421
                          Major page faults:            4
                 Voluntary context switches:        16273
