unknown system                          
           1
    30.000000    0.000000    0.000000
     0.000000   30.000000    0.000000
     0.000000    0.000000   30.000000
   H    C    N 
   3   2   1
Direct configuration=     1
   0.46812745  0.47629010  0.51992354
   0.46818062  0.51562450  0.47500521
   0.48548117  0.53249022  0.52938443
   0.48567824  0.50489351  0.50527643
   0.56299371  0.47870208  0.47742211
   0.52954337  0.49201223  0.49298716
Direct configuration=     2
   0.46812588  0.47628939  0.51992417
   0.46816839  0.51562654  0.47500576
   0.48549491  0.53248720  0.52938369
   0.48568177  0.50489052  0.50527079
   0.56303448  0.47869491  0.47741728
   0.52949913  0.49202409  0.49299719
Direct configuration=     3
   0.46812144  0.47628904  0.51992534
   0.46814355  0.51563152  0.47500668
   0.48552352  0.53248168  0.52938174
   0.48568512  0.50488593  0.50526003
   0.56309625  0.47868706  0.47741864
   0.52943468  0.49203740  0.49300644
Direct configuration=     4
   0.46812050  0.47628944  0.51992541
   0.46814084  0.51563238  0.47500673
   0.48552691  0.53248127  0.52938134
   0.48568397  0.50488600  0.50525912
   0.56309491  0.47868883  0.47742311
   0.52943743  0.49203471  0.49300316
Direct configuration=     5
   0.46811828  0.47629059  0.51992541
   0.46813574  0.51563436  0.47500666
   0.48553383  0.53248068  0.52938039
   0.48568179  0.50488627  0.50525718
   0.56309264  0.47869149  0.47743222
   0.52944229  0.49202926  0.49299701
Direct configuration=     6
   0.46811447  0.47629285  0.51992514
   0.46812859  0.51563774  0.47500628
   0.48554442  0.53248011  0.52937873
   0.48567876  0.50488684  0.50525407
   0.56309031  0.47869400  0.47744602
   0.52944802  0.49202113  0.49298863
Direct configuration=     7
   0.46810874  0.47629652  0.51992436
   0.46811977  0.51564279  0.47500540
   0.48555874  0.53247971  0.52937622
   0.48567515  0.50488777  0.50524961
   0.56308925  0.47869520  0.47746437
   0.52945292  0.49201067  0.49297891
Direct configuration=     8
   0.46810095  0.47630179  0.51992284
   0.46810966  0.51564967  0.47500387
   0.48557667  0.53247955  0.52937276
   0.48567126  0.50488909  0.50524371
   0.56309091  0.47869412  0.47748685
   0.52945513  0.49199847  0.49296884
Direct configuration=     9
   0.46809115  0.47630860  0.51992045
   0.46809848  0.51565836  0.47500165
   0.48559794  0.53247958  0.52936836
   0.48566735  0.50489070  0.50523633
   0.56309651  0.47869025  0.47751286
   0.52945315  0.49198519  0.49295920
Direct configuration=    10
   0.46807828  0.47631766  0.51991687
   0.46808483  0.51566984  0.47499852
   0.48562505  0.53247964  0.52936249
   0.48566314  0.50489271  0.50522655
   0.56310823  0.47868290  0.47754497
   0.52944506  0.49196997  0.49294947
Direct configuration=    11
   0.46806238  0.47632889  0.51991233
   0.46806737  0.51568413  0.47499472
   0.48565924  0.53247937  0.52935501
   0.48565862  0.50489483  0.50521403
   0.56312786  0.47867245  0.47758351
   0.52942914  0.49195308  0.49293926
Direct configuration=    12
   0.46804412  0.47634228  0.51990895
   0.46804330  0.51570054  0.47499140
   0.48570289  0.53247873  0.52934573
   0.48565357  0.50489683  0.50519904
   0.56315578  0.47866020  0.47762734
   0.52940495  0.49193422  0.49292640
Direct configuration=    13
   0.46802314  0.47635734  0.51990567
   0.46801077  0.51571957  0.47498884
   0.48575745  0.53247622  0.52933451
   0.48564694  0.50489834  0.50518095
   0.56319056  0.47864972  0.47768105
   0.52937577  0.49191164  0.49290782
Direct configuration=    14
   0.46799928  0.47637396  0.51990248
   0.46796797  0.51574136  0.47498772
   0.48582438  0.53247096  0.52932111
   0.48563748  0.50489927  0.50515967
   0.56322787  0.47864483  0.47774878
   0.52934766  0.49188249  0.49287909
Direct configuration=    15
   0.46797265  0.47639193  0.51989959
   0.46791299  0.51576586  0.47498903
   0.48590510  0.53246200  0.52930530
   0.48562420  0.50489935  0.50513512
   0.56326481  0.47864907  0.47783358
   0.52932491  0.49184470  0.49283623
Direct configuration=    16
   0.46794335  0.47641101  0.51989734
   0.46784308  0.51579306  0.47499433
   0.48600221  0.53244803  0.52928666
   0.48560684  0.50489782  0.50510636
   0.56330513  0.47866446  0.47793692
   0.52930406  0.49179856  0.49277722
Direct configuration=    17
   0.46791216  0.47643018  0.51989639
   0.46775475  0.51582242  0.47500596
   0.48611829  0.53242709  0.52926500
   0.48558706  0.50489295  0.50507211
   0.56336268  0.47869118  0.47805558
   0.52926974  0.49174914  0.49270381
Direct configuration=    18
   0.46788045  0.47644791  0.51989762
   0.46764527  0.51585296  0.47502646
   0.48625435  0.53239743  0.52924050
   0.48556681  0.50488263  0.50503165
   0.56344872  0.47873057  0.47818543
   0.52920908  0.49170150  0.49261718
Direct configuration=    19
   0.46784980  0.47646206  0.51990257
   0.46750943  0.51588363  0.47505982
   0.48641250  0.53235636  0.52921325
   0.48554434  0.50486514  0.50498544
   0.56355625  0.47879425  0.47833168
   0.52913234  0.49165156  0.49250608
Direct configuration=    20
   0.46782203  0.47647002  0.51991278
   0.46734442  0.51591313  0.47510917
   0.48659170  0.53230205  0.52918377
   0.48551595  0.50484050  0.50493539
   0.56366214  0.47889800  0.47850342
   0.52906843  0.49158927  0.49235431
Direct configuration=    21
   0.46779827  0.47646966  0.51992975
   0.46714657  0.51594148  0.47517846
   0.48679343  0.53223245  0.52915142
   0.48548341  0.50480638  0.50488061
   0.56378315  0.47904413  0.47869834
   0.52899983  0.49151883  0.49216027
Direct configuration=    22
   0.46777926  0.47645986  0.51995366
   0.46691788  0.51596959  0.47526815
   0.48701567  0.53214821  0.52911559
   0.48545375  0.50476027  0.50482035
   0.56396235  0.47921779  0.47890014
   0.52887571  0.49145712  0.49194098
Direct configuration=    23
   0.46776309  0.47644158  0.51998412
   0.46666129  0.51600104  0.47537787
   0.48725497  0.53205207  0.52907511
   0.48541334  0.50470580  0.50475973
   0.56412040  0.47944348  0.47914076
   0.52879150  0.49136876  0.49166128
Direct configuration=    24
   0.46774995  0.47641396  0.52001915
   0.46638412  0.51604085  0.47550583
   0.48750929  0.53194694  0.52902746
   0.48537928  0.50463702  0.50469214
   0.56434511  0.47968651  0.47939300
   0.52863679  0.49128733  0.49136132
Direct configuration=    25
   0.46773445  0.47638679  0.52006179
   0.46610083  0.51608953  0.47564252
   0.48777241  0.53184469  0.52897100
   0.48532852  0.50457200  0.50462624
   0.56447208  0.47996564  0.47969251
   0.52859621  0.49115382  0.49100483
Direct configuration=    26
   0.46773528  0.47638725  0.52006318
   0.46610207  0.51609026  0.47564267
   0.48777385  0.53184576  0.52896944
   0.48533493  0.50457047  0.50462414
   0.56450550  0.47995274  0.47968075
   0.52855287  0.49116599  0.49101871
Direct configuration=    27
   0.46773588  0.47638900  0.52006530
   0.46610548  0.51609282  0.47564243
   0.48777617  0.53184844  0.52896582
   0.48534321  0.50456914  0.50462103
   0.56454482  0.47993369  0.47966727
   0.52849893  0.49117938  0.49103704
Direct configuration=    28
   0.46773579  0.47638939  0.52006572
   0.46610565  0.51609313  0.47564247
   0.48777642  0.53184890  0.52896543
   0.48534227  0.50456959  0.50462135
   0.56453830  0.47993476  0.47966906
   0.52850605  0.49117671  0.49103486
Direct configuration=    29
   0.46773561  0.47639015  0.52006644
   0.46610609  0.51609377  0.47564249
   0.48777684  0.53184976  0.52896466
   0.48534059  0.50457040  0.50462188
   0.56452645  0.47993657  0.47967241
   0.52851891  0.49117183  0.49103102
Direct configuration=    30
   0.46773537  0.47639120  0.52006733
   0.46610687  0.51609479  0.47564245
   0.48777740  0.53185095  0.52896348
   0.48533848  0.50457147  0.50462252
   0.56451135  0.47993854  0.47967677
   0.52853502  0.49116553  0.49102635
Direct configuration=    31
   0.46773520  0.47639275  0.52006855
   0.46610852  0.51609665  0.47564226
   0.48777828  0.53185277  0.52896133
   0.48533655  0.50457267  0.50462303
   0.56449586  0.47993892  0.47968123
   0.52855009  0.49115871  0.49102249
Direct configuration=    32
   0.46773522  0.47639277  0.52006858
   0.46610858  0.51609670  0.47564225
   0.48777830  0.53185281  0.52896127
   0.48533665  0.50457265  0.50462299
   0.56449636  0.47993867  0.47968107
   0.52854938  0.49115888  0.49102275
Direct configuration=    33
   0.46773528  0.47639279  0.52006862
   0.46610870  0.51609680  0.47564223
   0.48777834  0.53185286  0.52896114
   0.48533685  0.50457259  0.50462293
   0.56449732  0.47993821  0.47968074
   0.52854800  0.49115923  0.49102325
Direct configuration=    34
   0.46773540  0.47639278  0.52006866
   0.46610885  0.51609695  0.47564222
   0.48777838  0.53185291  0.52896095
   0.48533713  0.50457249  0.50462283
   0.56449872  0.47993761  0.47968026
   0.52854601  0.49115975  0.49102397
Direct configuration=    35
   0.46773558  0.47639271  0.52006870
   0.46610904  0.51609712  0.47564221
   0.48777840  0.53185292  0.52896074
   0.48533747  0.50457234  0.50462271
   0.56450050  0.47993695  0.47967966
   0.52854350  0.49116045  0.49102487
Direct configuration=    36
   0.46773585  0.47639255  0.52006871
   0.46610925  0.51609731  0.47564222
   0.48777837  0.53185287  0.52896049
   0.48533786  0.50457212  0.50462257
   0.56450257  0.47993633  0.47967897
   0.52854060  0.49116130  0.49102594
Direct configuration=    37
   0.46773624  0.47639224  0.52006866
   0.46610947  0.51609753  0.47564224
   0.48777825  0.53185271  0.52896022
   0.48533827  0.50457183  0.50462241
   0.56450481  0.47993586  0.47967824
   0.52853746  0.49116230  0.49102711
Direct configuration=    38
   0.46773684  0.47639173  0.52006857
   0.46610975  0.51609784  0.47564229
   0.48777802  0.53185243  0.52895986
   0.48533871  0.50457143  0.50462223
   0.56450727  0.47993556  0.47967744
   0.52853391  0.49116349  0.49102851
Direct configuration=    39
   0.46773685  0.47639172  0.52006857
   0.46610976  0.51609785  0.47564229
   0.48777801  0.53185243  0.52895985
   0.48533870  0.50457142  0.50462223
   0.56450724  0.47993557  0.47967745
   0.52853392  0.49116348  0.49102851
Direct configuration=    40
   0.46773687  0.47639171  0.52006858
   0.46610979  0.51609788  0.47564229
   0.48777801  0.53185243  0.52895982
   0.48533870  0.50457142  0.50462223
   0.56450720  0.47993557  0.47967746
   0.52853394  0.49116347  0.49102852
Direct configuration=    41
   0.46773687  0.47639172  0.52006857
   0.46610984  0.51609794  0.47564227
   0.48777801  0.53185246  0.52895977
   0.48533869  0.50457142  0.50462222
   0.56450712  0.47993552  0.47967751
   0.52853395  0.49116342  0.49102856
Direct configuration=    42
   0.46773685  0.47639174  0.52006850
   0.46610997  0.51609804  0.47564222
   0.48777797  0.53185247  0.52895970
   0.48533868  0.50457143  0.50462219
   0.56450705  0.47993545  0.47967765
   0.52853398  0.49116336  0.49102864
Direct configuration=    43
   0.46773678  0.47639175  0.52006830
   0.46611018  0.51609820  0.47564211
   0.48777787  0.53185245  0.52895962
   0.48533866  0.50457144  0.50462212
   0.56450698  0.47993536  0.47967795
   0.52853403  0.49116329  0.49102879
Direct configuration=    44
   0.46773660  0.47639186  0.52006800
   0.46611053  0.51609847  0.47564192
   0.48777778  0.53185248  0.52895950
   0.48533864  0.50457150  0.50462202
   0.56450688  0.47993505  0.47967843
   0.52853406  0.49116312  0.49102903
Direct configuration=    45
   0.46773624  0.47639224  0.52006772
   0.46611106  0.51609893  0.47564166
   0.48777784  0.53185271  0.52895926
   0.48533864  0.50457168  0.50462189
   0.56450665  0.47993422  0.47967903
   0.52853406  0.49116272  0.49102934
Direct configuration=    46
   0.46773563  0.47639308  0.52006764
   0.46611175  0.51609964  0.47564141
   0.48777830  0.53185329  0.52895886
   0.48533869  0.50457204  0.50462176
   0.56450616  0.47993252  0.47967959
   0.52853396  0.49116192  0.49102964
Direct configuration=    47
   0.46773466  0.47639466  0.52006793
   0.46611261  0.51610076  0.47564124
   0.48777945  0.53185439  0.52895824
   0.48533883  0.50457272  0.50462168
   0.56450525  0.47992944  0.47967995
   0.52853370  0.49116052  0.49102986
Direct configuration=    48
   0.46773313  0.47639735  0.52006872
   0.46611369  0.51610261  0.47564127
   0.48778173  0.53185622  0.52895742
   0.48533913  0.50457386  0.50462169
   0.56450367  0.47992427  0.47967990
   0.52853315  0.49115819  0.49102990
Direct configuration=    49
   0.46773067  0.47640163  0.52006992
   0.46611520  0.51610578  0.47564161
   0.48778566  0.53185895  0.52895645
   0.48533964  0.50457570  0.50462179
   0.56450112  0.47991596  0.47967940
   0.52853221  0.49115447  0.49102973
Direct configuration=    50
   0.46772644  0.47640761  0.52006976
   0.46611838  0.51611111  0.47564140
   0.48779044  0.53186221  0.52895530
   0.48534031  0.50457835  0.50462148
   0.56449790  0.47990406  0.47968063
   0.52853101  0.49114917  0.49103033
Direct configuration=    51
   0.46772074  0.47641353  0.52006595
   0.46612407  0.51611799  0.47563943
   0.48779335  0.53186461  0.52895404
   0.48534080  0.50458110  0.50462015
   0.56449540  0.47989167  0.47968636
   0.52853014  0.49114364  0.49103297
Direct configuration=    52
   0.46771327  0.47641938  0.52005782
   0.46613271  0.51612672  0.47563537
   0.48779408  0.53186599  0.52895266
   0.48534109  0.50458395  0.50461764
   0.56449372  0.47987870  0.47969741
   0.52852964  0.49113782  0.49103801
Direct configuration=    53
   0.46770365  0.47642515  0.52004450
   0.46614491  0.51613767  0.47562876
   0.48779217  0.53186615  0.52895111
   0.48534115  0.50458695  0.50461368
   0.56449309  0.47986500  0.47971489
   0.52852955  0.49113166  0.49104595
Direct configuration=    54
   0.46769139  0.47643081  0.52002483
   0.46616144  0.51615137  0.47561900
   0.48778707  0.53186483  0.52894938
   0.48534094  0.50459013  0.50460798
   0.56449378  0.47985041  0.47974023
   0.52852993  0.49112510  0.49105746
Direct configuration=    55
   0.46767585  0.47643631  0.51999739
   0.46618327  0.51616846  0.47560532
   0.48777805  0.53186169  0.52894746
   0.48534039  0.50459353  0.50460014
   0.56449620  0.47983467  0.47977521
   0.52853083  0.49111805  0.49107336
Direct configuration=    56
   0.46765621  0.47644155  0.51996045
   0.46621156  0.51618973  0.47558677
   0.48776423  0.53185635  0.52894531
   0.48533944  0.50459722  0.50458970
   0.56450088  0.47981749  0.47982196
   0.52853231  0.49111046  0.49109468
Direct configuration=    57
   0.46763152  0.47644641  0.51991198
   0.46624765  0.51621612  0.47556215
   0.48774457  0.53184837  0.52894297
   0.48533800  0.50460127  0.50457611
   0.56450850  0.47979849  0.47988303
   0.52853445  0.49110224  0.49112261
Direct configuration=    58
   0.46760054  0.47645070  0.51984963
   0.46629308  0.51624877  0.47553001
   0.48771784  0.53183726  0.52894051
   0.48533597  0.50460580  0.50455873
   0.56451987  0.47977721  0.47996140
   0.52853746  0.49109331  0.49115854
Direct configuration=    59
   0.46756185  0.47645409  0.51977077
   0.46634958  0.51628896  0.47548861
   0.48768267  0.53182252  0.52893804
   0.48533314  0.50461093  0.50453683
   0.56453586  0.47975321  0.48006054
   0.52854176  0.49108351  0.49120400
Direct configuration=    60
   0.46751365  0.47645617  0.51967245
   0.46641902  0.51633821  0.47543582
   0.48763747  0.53180362  0.52893582
   0.48532915  0.50461687  0.50450959
   0.56455754  0.47972591  0.48018441
   0.52854815  0.49107265  0.49126066
Direct configuration=    61
   0.46745378  0.47645639  0.51955148
   0.46650343  0.51639821  0.47536921
   0.48758051  0.53178008  0.52893434
   0.48532344  0.50462384  0.50447603
   0.56458610  0.47969472  0.48033738
   0.52855786  0.49106045  0.49133028
Direct configuration=    62
   0.46737953  0.47645405  0.51940392
   0.46660532  0.51647100  0.47528572
   0.48750965  0.53175131  0.52893422
   0.48531520  0.50463211  0.50443492
   0.56462306  0.47965894  0.48052490
   0.52857253  0.49104660  0.49141496
Direct configuration=    63
   0.46728768  0.47644839  0.51922539
   0.46672748  0.51655880  0.47518188
   0.48742254  0.53171664  0.52893637
   0.48530342  0.50464188  0.50438489
   0.56467078  0.47961771  0.48075289
   0.52859361  0.49103096  0.49151717
Direct configuration=    64
   0.46717468  0.47643875  0.51901122
   0.46687300  0.51666388  0.47505399
   0.48731676  0.53167533  0.52894190
   0.48528682  0.50465352  0.50432403
   0.56473248  0.47956961  0.48102767
   0.52862205  0.49101375  0.49163970
Direct configuration=    65
   0.46703669  0.47642485  0.51875645
   0.46704498  0.51678834  0.47489826
   0.48718970  0.53162627  0.52895190
   0.48526392  0.50466716  0.50425038
   0.56481236  0.47951330  0.48135576
   0.52865846  0.49099547  0.49178566
Direct configuration=    66
   0.46687003  0.47640735  0.51845572
   0.46724674  0.51693391  0.47471127
   0.48703878  0.53156763  0.52896713
   0.48523406  0.50468293  0.50416204
   0.56491146  0.47944794  0.48174439
   0.52870541  0.49097628  0.49195773
Direct configuration=    67
   0.46667148  0.47638880  0.51810328
   0.46748140  0.51710145  0.47449090
   0.48686122  0.53149615  0.52898725
   0.48519808  0.50470023  0.50405836
   0.56502891  0.47937389  0.48220078
   0.52876583  0.49095628  0.49215757
Direct configuration=    68
   0.46643958  0.47637444  0.51769322
   0.46775240  0.51728944  0.47423853
   0.48665469  0.53140632  0.52900990
   0.48516022  0.50471827  0.50393817
   0.56516438  0.47929244  0.48273043
   0.52883616  0.49093675  0.49238771
Direct configuration=    69
   0.46617637  0.47637366  0.51722133
   0.46806315  0.51749179  0.47396359
   0.48641768  0.53128996  0.52903014
   0.48512889  0.50473606  0.50379669
   0.56531379  0.47920785  0.48333544
   0.52890813  0.49091933  0.49265060
Direct configuration=    70
   0.46589393  0.47640208  0.51668936
   0.46841473  0.51769410  0.47368838
   0.48615368  0.53113724  0.52903915
   0.48510971  0.50475383  0.50363411
   0.56544064  0.47913656  0.48401141
   0.52899596  0.49089593  0.49293517
Direct configuration=    71
   0.46589460  0.47640285  0.51668917
   0.46841489  0.51769351  0.47368900
   0.48615395  0.53113690  0.52903888
   0.48511091  0.50475311  0.50363424
   0.56544739  0.47913491  0.48400928
   0.52898691  0.49089846  0.49293701
Direct configuration=    72
   0.46589419  0.47640427  0.51668407
   0.46841824  0.51769411  0.47368827
   0.48615202  0.53113505  0.52903821
   0.48511249  0.50475201  0.50363326
   0.56545781  0.47913256  0.48401169
   0.52897390  0.49090175  0.49294208
Direct configuration=    73
   0.46589044  0.47640627  0.51666880
   0.46842830  0.51769829  0.47368388
   0.48614521  0.53113049  0.52903705
   0.48511328  0.50475120  0.50362985
   0.56546668  0.47913053  0.48402658
   0.52896476  0.49090300  0.49295141
Direct configuration=    74
   0.46588161  0.47640779  0.51663726
   0.46844858  0.51770801  0.47367336
   0.48612978  0.53112125  0.52903541
   0.48511244  0.50475081  0.50362241
   0.56547176  0.47913084  0.48406200
   0.52896452  0.49090112  0.49296712
Direct configuration=    75
   0.46586581  0.47640779  0.51658249
   0.46848318  0.51772573  0.47365404
   0.48610171  0.53110515  0.52903329
   0.48510978  0.50475081  0.50360907
   0.56547474  0.47913403  0.48412584
   0.52897353  0.49089641  0.49299281
Direct configuration=    76
   0.46584227  0.47640658  0.51650542
   0.46853192  0.51775203  0.47362568
   0.48606207  0.53108304  0.52903090
   0.48510606  0.50475149  0.50358973
   0.56547960  0.47913715  0.48421649
   0.52898691  0.49088976  0.49302931
Direct configuration=    77
   0.46580757  0.47640230  0.51639500
   0.46860131  0.51779035  0.47358331
   0.48600437  0.53105161  0.52902850
   0.48510181  0.50475238  0.50356132
   0.56549529  0.47913977  0.48434539
   0.52899860  0.49088383  0.49308398
Direct configuration=    78
   0.46575858  0.47639341  0.51624531
   0.46869496  0.51784348  0.47352305
   0.48592531  0.53100969  0.52902690
   0.48509771  0.50475339  0.50352197
   0.56553086  0.47913938  0.48451833
   0.52900167  0.49088114  0.49316189
Direct configuration=    79
   0.46568975  0.47638035  0.51605088
   0.46881711  0.51791644  0.47344005
   0.48582346  0.53095801  0.52902719
   0.48509253  0.50475571  0.50347021
   0.56558498  0.47913195  0.48474400
   0.52900146  0.49087837  0.49326504
Direct configuration=    80
   0.46559365  0.47636588  0.51580894
   0.46897105  0.51801560  0.47332960
   0.48570009  0.53089966  0.52903086
   0.48508222  0.50476219  0.50340562
   0.56564112  0.47911308  0.48503206
   0.52902140  0.49086488  0.49339022
Direct configuration=    81
   0.46546206  0.47635599  0.51552131
   0.46915856  0.51814764  0.47318814
   0.48556123  0.53084004  0.52903929
   0.48506430  0.50477527  0.50332874
   0.56569513  0.47906947  0.48538363
   0.52906857  0.49083342  0.49353610
Direct configuration=    82
   0.46529306  0.47635365  0.51519391
   0.46937759  0.51831200  0.47301548
   0.48541276  0.53078110  0.52905342
   0.48504282  0.50479278  0.50323946
   0.56579049  0.47898260  0.48578401
   0.52909346  0.49080036  0.49371082
Direct configuration=    83
   0.46508855  0.47636187  0.51483898
   0.46962008  0.51849766  0.47281956
   0.48525808  0.53071639  0.52907383
   0.48500719  0.50481549  0.50314101
   0.56586671  0.47888075  0.48623273
   0.52916997  0.49075110  0.49389089
Direct configuration=    84
   0.46508958  0.47636233  0.51484072
   0.46961911  0.51849579  0.47282113
   0.48525881  0.53071523  0.52907356
   0.48500906  0.50481477  0.50314078
   0.56587294  0.47888015  0.48622922
   0.52916108  0.49075498  0.49389158
Direct configuration=    85
   0.46509143  0.47636354  0.51484430
   0.46961715  0.51849220  0.47282427
   0.48526045  0.53071307  0.52907299
   0.48501222  0.50481360  0.50314046
   0.56588182  0.47887964  0.48622289
   0.52914750  0.49076119  0.49389208
Direct configuration=    86
   0.46509156  0.47636374  0.51484469
   0.46961695  0.51849187  0.47282458
   0.48526065  0.53071287  0.52907293
   0.48501230  0.50481356  0.50314049
   0.56588127  0.47887997  0.48622254
   0.52914785  0.49076123  0.49389176
Direct configuration=    87
   0.46509180  0.47636415  0.51484537
   0.46961659  0.51849124  0.47282518
   0.48526102  0.53071245  0.52907280
   0.48501246  0.50481350  0.50314052
   0.56588021  0.47888058  0.48622193
   0.52914848  0.49076132  0.49389118
Direct configuration=    88
   0.46509209  0.47636479  0.51484623
   0.46961619  0.51849037  0.47282601
   0.48526150  0.53071177  0.52907260
   0.48501273  0.50481340  0.50314052
   0.56587876  0.47888142  0.48622120
   0.52914930  0.49076149  0.49389043
Direct configuration=    89
   0.46509235  0.47636572  0.51484708
   0.46961587  0.51848936  0.47282702
   0.48526205  0.53071078  0.52907229
   0.48501312  0.50481328  0.50314043
   0.56587704  0.47888235  0.48622055
   0.52915015  0.49076174  0.49388963
Direct configuration=    90
   0.46509242  0.47636699  0.51484763
   0.46961586  0.51848837  0.47282805
   0.48526256  0.53070948  0.52907189
   0.48501365  0.50481315  0.50314017
   0.56587529  0.47888315  0.48622027
   0.52915080  0.49076208  0.49388898
Direct configuration=    91
   0.46509220  0.47636856  0.51484766
   0.46961630  0.51848762  0.47282895
   0.48526295  0.53070795  0.52907139
   0.48501429  0.50481306  0.50313971
   0.56587372  0.47888360  0.48622062
   0.52915111  0.49076244  0.49388866
Direct configuration=    92
   0.46509146  0.47637068  0.51484682
   0.46961751  0.51848728  0.47282963
   0.48526319  0.53070604  0.52907074
   0.48501511  0.50481305  0.50313892
   0.56587231  0.47888342  0.48622203
   0.52915100  0.49076276  0.49388884
Direct configuration=    93
   0.46508986  0.47637350  0.51484444
   0.46962002  0.51848774  0.47282981
   0.48526304  0.53070366  0.52906989
   0.48501610  0.50481319  0.50313762
   0.56587122  0.47888221  0.48622531
   0.52915033  0.49076293  0.49388992
Direct configuration=    94
   0.46508679  0.47637744  0.51483954
   0.46962466  0.51848970  0.47282905
   0.48526233  0.53070075  0.52906876
   0.48501729  0.50481364  0.50313552
   0.56587052  0.47887912  0.48623169
   0.52914900  0.49076261  0.49389244
Direct configuration=    95
   0.46508135  0.47638296  0.51483052
   0.46963271  0.51849417  0.47282668
   0.48526062  0.53069714  0.52906722
   0.48501866  0.50481464  0.50313220
   0.56587020  0.47887306  0.48624314
   0.52914706  0.49076129  0.49389723
Direct configuration=    96
   0.46507225  0.47639080  0.51481521
   0.46964595  0.51850264  0.47282171
   0.48525737  0.53069270  0.52906510
   0.48502015  0.50481657  0.50312707
   0.56587009  0.47886247  0.48626247
   0.52914479  0.49075814  0.49390542
Direct configuration=    97
   0.46505794  0.47640160  0.51479046
   0.46966677  0.51851696  0.47281278
   0.48525155  0.53068707  0.52906224
   0.48502163  0.50481981  0.50311930
   0.56586990  0.47884577  0.48629365
   0.52914286  0.49075216  0.49391856
Direct configuration=    98
   0.46503646  0.47641699  0.51475519
   0.46969672  0.51853918  0.47279896
   0.48524398  0.53068107  0.52905852
   0.48502307  0.50482522  0.50310860
   0.56586868  0.47881946  0.48633851
   0.52914177  0.49074154  0.49393718
Direct configuration=    99
   0.46500589  0.47643823  0.51470805
   0.46973742  0.51857127  0.47277910
   0.48523515  0.53067540  0.52905402
   0.48502447  0.50483353  0.50309455
   0.56586597  0.47878043  0.48639919
   0.52914181  0.49072471  0.49396205
Direct configuration=   100
   0.46496454  0.47646562  0.51464670
   0.46979073  0.51861498  0.47275160
   0.48522452  0.53067013  0.52904901
   0.48502581  0.50484517  0.50307645
   0.56586273  0.47872680  0.48647859
   0.52914246  0.49070104  0.49399459
Direct configuration=   101
   0.46491065  0.47649960  0.51456949
   0.46985823  0.51867205  0.47271483
   0.48521219  0.53066576  0.52904390
   0.48502733  0.50486060  0.50305363
   0.56586043  0.47865590  0.48657900
   0.52914204  0.49067003  0.49403607
Direct configuration=   102
   0.46484253  0.47654042  0.51447534
   0.46994111  0.51874390  0.47266737
   0.48519850  0.53066292  0.52903942
   0.48502902  0.50488023  0.50302562
   0.56586015  0.47856579  0.48670178
   0.52913966  0.49063094  0.49408737
Direct configuration=   103
   0.46475919  0.47658801  0.51436430
   0.47003975  0.51883089  0.47260837
   0.48518415  0.53066209  0.52903662
   0.48502990  0.50490447  0.50299189
   0.56585908  0.47845709  0.48684791
   0.52913902  0.49058195  0.49414778
Direct configuration=   104
   0.46466078  0.47664222  0.51423797
   0.47015326  0.51893143  0.47253800
   0.48517041  0.53066270  0.52903668
   0.48502787  0.50493344  0.50295298
   0.56585617  0.47833296  0.48701576
   0.52914275  0.49052211  0.49421546
Direct configuration=   105
   0.46455812  0.47670166  0.51410974
   0.47027249  0.51903019  0.47246409
   0.48516410  0.53065787  0.52904107
   0.48502495  0.50496232  0.50291380
   0.56587353  0.47820611  0.48718193
   0.52911820  0.49046705  0.49428619
Direct configuration=   106
   0.46455921  0.47670122  0.51411132
   0.47027110  0.51902870  0.47246510
   0.48516440  0.53065743  0.52904109
   0.48502407  0.50496227  0.50291449
   0.56586636  0.47821058  0.48718123
   0.52912624  0.49046501  0.49428359
Direct configuration=   107
   0.46456141  0.47670037  0.51411443
   0.47026839  0.51902574  0.47246708
   0.48516506  0.53065655  0.52904111
   0.48502283  0.50496199  0.50291577
   0.56585511  0.47821844  0.48717930
   0.52913858  0.49046212  0.49427913
Direct configuration=   108
   0.46456484  0.47669910  0.51411918
   0.47026435  0.51902118  0.47247010
   0.48516622  0.53065517  0.52904113
   0.48502225  0.50496111  0.50291743
   0.56584586  0.47822780  0.48717480
   0.52914784  0.49046083  0.49427418
Direct configuration=   109
   0.46456504  0.47669904  0.51411943
   0.47026416  0.51902093  0.47247026
   0.48516632  0.53065509  0.52904113
   0.48502248  0.50496097  0.50291746
   0.56584695  0.47822778  0.48717425
   0.52914642  0.49046139  0.49427428
Direct configuration=   110
   0.46456538  0.47669895  0.51411985
   0.47026384  0.51902048  0.47247055
   0.48516650  0.53065493  0.52904112
   0.48502291  0.50496072  0.50291751
   0.56584901  0.47822771  0.48717328
   0.52914374  0.49046240  0.49427450
Direct configuration=   111
   0.46456579  0.47669889  0.51412033
   0.47026350  0.51901994  0.47247093
   0.48516674  0.53065468  0.52904108
   0.48502350  0.50496039  0.50291755
   0.56585178  0.47822754  0.48717208
   0.52914005  0.49046374  0.49427484
Direct configuration=   112
   0.46456614  0.47669896  0.51412070
   0.47026330  0.51901943  0.47247133
   0.48516704  0.53065435  0.52904100
   0.48502422  0.50496005  0.50291754
   0.56585495  0.47822722  0.48717091
   0.52913572  0.49046517  0.49427533
Direct configuration=   113
   0.46456619  0.47669934  0.51412061
   0.47026354  0.51901921  0.47247163
   0.48516735  0.53065391  0.52904083
   0.48502497  0.50495980  0.50291740
   0.56585787  0.47822662  0.48717034
   0.52913145  0.49046630  0.49427602
Direct configuration=   114
   0.46456613  0.47669940  0.51412052
   0.47026363  0.51901928  0.47247160
   0.48516734  0.53065390  0.52904081
   0.48502496  0.50495982  0.50291737
   0.56585779  0.47822656  0.48717047
   0.52913151  0.49046622  0.49427605
Direct configuration=   115
   0.46456597  0.47669953  0.51412026
   0.47026387  0.51901945  0.47247152
   0.48516731  0.53065386  0.52904077
   0.48502496  0.50495988  0.50291730
   0.56585763  0.47822640  0.48717082
   0.52913163  0.49046605  0.49427616
Direct configuration=   116
   0.46456567  0.47669977  0.51411976
   0.47026431  0.51901979  0.47247135
   0.48516724  0.53065381  0.52904070
   0.48502495  0.50495998  0.50291716
   0.56585740  0.47822607  0.48717147
   0.52913179  0.49046576  0.49427638
Direct configuration=   117
   0.46456517  0.47670015  0.51411894
   0.47026504  0.51902035  0.47247106