   6   6   0   0
  0.4500000E+04  0.3000000E-08  0.3000000E-08  0.3000000E-08  0.0000000E+00
  1.000000000000000E-004
  CAR 
 unknown system                          
      2.02372651    -25.88799535  301     -6.16334847      1.00000000
    -25.888  0.0000E+00  0.0000E+00
    -25.795  0.0000E+00  0.0000E+00
    -25.702  0.0000E+00  0.0000E+00
    -25.609  0.0000E+00  0.0000E+00
    -25.516  0.0000E+00  0.0000E+00
    -25.423  0.0000E+00  0.0000E+00
    -25.330  0.0000E+00  0.0000E+00
    -25.237  0.0000E+00  0.0000E+00
    -25.144  0.0000E+00  0.0000E+00
    -25.051  0.7955E-17  0.7401E-18
    -24.958  0.1400E-14  0.1310E-15
    -24.865  0.1780E-12  0.1669E-13
    -24.772  0.1476E-10  0.1390E-11
    -24.678  0.8003E-09  0.7585E-10
    -24.585  0.2838E-07  0.2717E-08
    -24.492  0.6591E-06  0.6404E-07
    -24.399  0.1003E-04  0.9974E-06
    -24.306  0.1002E-03  0.1032E-04
    -24.213  0.6571E-03  0.7146E-04
    -24.120  0.2834E-02  0.3351E-03
    -24.027  0.8039E-02  0.1083E-02
    -23.934  0.1502E-01  0.2480E-02
    -23.841  0.1847E-01  0.4199E-02
    -23.748  0.1497E-01  0.5591E-02
    -23.655  0.7990E-02  0.6335E-02
    -23.562  0.2808E-02  0.6596E-02
    -23.469  0.6492E-03  0.6657E-02
    -23.376  0.9867E-04  0.6666E-02
    -23.283  0.9850E-05  0.6667E-02
    -23.190  0.6452E-06  0.6667E-02
    -23.097  0.2770E-07  0.6667E-02
    -23.004  0.7786E-09  0.6667E-02
    -22.911  0.1432E-10  0.6667E-02
    -22.818  0.1720E-12  0.6667E-02
    -22.725  0.1344E-14  0.6667E-02
    -22.632  0.7955E-17  0.6667E-02
    -22.539  0.0000E+00  0.6667E-02
    -22.446  0.0000E+00  0.6667E-02
    -22.353  0.0000E+00  0.6667E-02
    -22.259  0.0000E+00  0.6667E-02
    -22.166  0.0000E+00  0.6667E-02
    -22.073  0.0000E+00  0.6667E-02
    -21.980  0.0000E+00  0.6667E-02
    -21.887  0.0000E+00  0.6667E-02
    -21.794  0.0000E+00  0.6667E-02
    -21.701  0.0000E+00  0.6667E-02
    -21.608  0.0000E+00  0.6667E-02
    -21.515  0.0000E+00  0.6667E-02
    -21.422  0.0000E+00  0.6667E-02
    -21.329  0.0000E+00  0.6667E-02
    -21.236  0.0000E+00  0.6667E-02
    -21.143  0.0000E+00  0.6667E-02
    -21.050  0.0000E+00  0.6667E-02
    -20.957  0.0000E+00  0.6667E-02
    -20.864  0.0000E+00  0.6667E-02
    -20.771  0.0000E+00  0.6667E-02
    -20.678  0.0000E+00  0.6667E-02
    -20.585  0.0000E+00  0.6667E-02
    -20.492  0.0000E+00  0.6667E-02
    -20.399  0.2466E-15  0.6667E-02
    -20.306  0.3625E-13  0.6667E-02
    -20.213  0.3473E-11  0.6667E-02
    -20.120  0.2174E-09  0.6667E-02
    -20.027  0.8900E-08  0.6667E-02
    -19.933  0.2385E-06  0.6667E-02
    -19.840  0.4187E-05  0.6667E-02
    -19.747  0.4821E-04  0.6672E-02
    -19.654  0.3645E-03  0.6705E-02
    -19.561  0.1811E-02  0.6874E-02
    -19.468  0.5920E-02  0.7425E-02
    -19.375  0.1274E-01  0.8610E-02
    -19.282  0.1805E-01  0.1029E-01
    -19.189  0.1684E-01  0.1186E-01
    -19.096  0.1035E-01  0.1282E-01
    -19.003  0.4191E-02  0.1321E-01
    -18.910  0.1117E-02  0.1331E-01
    -18.817  0.1956E-03  0.1333E-01
    -18.724  0.2251E-04  0.1333E-01
    -18.631  0.1701E-05  0.1333E-01
    -18.538  0.8424E-07  0.1333E-01
    -18.445  0.2733E-08  0.1333E-01
    -18.352  0.5802E-10  0.1333E-01
    -18.259  0.8052E-12  0.1333E-01
    -18.166  0.7295E-14  0.1333E-01
    -18.073  0.4773E-16  0.1333E-01
    -17.980  0.0000E+00  0.1333E-01
    -17.887  0.0000E+00  0.1333E-01
    -17.794  0.0000E+00  0.1333E-01
    -17.701  0.0000E+00  0.1333E-01
    -17.608  0.0000E+00  0.1333E-01
    -17.514  0.0000E+00  0.1333E-01
    -17.421  0.0000E+00  0.1333E-01
    -17.328  0.0000E+00  0.1333E-01
    -17.235  0.0000E+00  0.1333E-01
    -17.142  0.0000E+00  0.1333E-01
    -17.049  0.0000E+00  0.1333E-01
    -16.956  0.0000E+00  0.1333E-01
    -16.863  0.0000E+00  0.1333E-01
    -16.770  0.0000E+00  0.1333E-01
    -16.677  0.0000E+00  0.1333E-01
    -16.584  0.0000E+00  0.1333E-01
    -16.491  0.0000E+00  0.1333E-01
    -16.398  0.0000E+00  0.1333E-01
    -16.305  0.0000E+00  0.1333E-01
    -16.212  0.0000E+00  0.1333E-01
    -16.119  0.0000E+00  0.1333E-01
    -16.026  0.0000E+00  0.1333E-01
    -15.933  0.0000E+00  0.1333E-01
    -15.840  0.0000E+00  0.1333E-01
    -15.747  0.0000E+00  0.1333E-01
    -15.654  0.0000E+00  0.1333E-01
    -15.561  0.0000E+00  0.1333E-01
    -15.468  0.0000E+00  0.1333E-01
    -15.375  0.0000E+00  0.1333E-01
    -15.282  0.0000E+00  0.1333E-01
    -15.189  0.0000E+00  0.1333E-01
    -15.095  0.0000E+00  0.1333E-01
    -15.002  0.8751E-16  0.1333E-01
    -14.909  0.1398E-13  0.1333E-01
    -14.816  0.1457E-11  0.1333E-01
    -14.723  0.9921E-10  0.1333E-01
    -14.630  0.4417E-08  0.1333E-01
    -14.537  0.1287E-06  0.1333E-01
    -14.444  0.2456E-05  0.1333E-01
    -14.351  0.3074E-04  0.1334E-01
    -14.258  0.2526E-03  0.1336E-01
    -14.165  0.1364E-02  0.1349E-01
    -14.072  0.4842E-02  0.1394E-01
    -13.979  0.1131E-01  0.1499E-01
    -13.886  0.1741E-01  0.1661E-01
    -13.793  0.1765E-01  0.1825E-01
    -13.700  0.1178E-01  0.1935E-01
    -13.607  0.5181E-02  0.1983E-01
    -13.514  0.1499E-02  0.1997E-01
    -13.421  0.2854E-03  0.2000E-01
    -13.328  0.3570E-04  0.2000E-01
    -13.235  0.2931E-05  0.2000E-01
    -13.142  0.1578E-06  0.2000E-01
    -13.049  0.5568E-08  0.2000E-01
    -12.956  0.1286E-09  0.2000E-01
    -12.863  0.1944E-11  0.2000E-01
    -12.769  0.4313E-12  0.2000E-01
    -12.676  0.3373E-10  0.2000E-01
    -12.583  0.1804E-08  0.2000E-01
    -12.490  0.6312E-07  0.2000E-01
    -12.397  0.1446E-05  0.2000E-01
    -12.304  0.2172E-04  0.2000E-01
    -12.211  0.2140E-03  0.2002E-01
    -12.118  0.1385E-02  0.2015E-01
    -12.025  0.5895E-02  0.2070E-01
    -11.932  0.1650E-01  0.2223E-01
    -11.839  0.3042E-01  0.2507E-01
    -11.746  0.3694E-01  0.2850E-01
    -11.653  0.2954E-01  0.3125E-01
    -11.560  0.1556E-01  0.3270E-01
    -11.467  0.5396E-02  0.3320E-01
    -11.374  0.1231E-02  0.3331E-01
    -11.281  0.1847E-03  0.3333E-01
    -11.188  0.1819E-04  0.3333E-01
    -11.095  0.1176E-05  0.3333E-01
    -11.002  0.4982E-07  0.3333E-01
    -10.909  0.1382E-08  0.3333E-01
    -10.816  0.2507E-10  0.3333E-01
    -10.723  0.2973E-12  0.3333E-01
    -10.630  0.2305E-14  0.3333E-01
    -10.537  0.7955E-17  0.3333E-01
    -10.444  0.0000E+00  0.3333E-01
    -10.350  0.0000E+00  0.3333E-01
    -10.257  0.0000E+00  0.3333E-01
    -10.164  0.0000E+00  0.3333E-01
    -10.071  0.0000E+00  0.3333E-01
     -9.978  0.0000E+00  0.3333E-01
     -9.885  0.0000E+00  0.3333E-01
     -9.792  0.0000E+00  0.3333E-01
     -9.699  0.0000E+00  0.3333E-01
     -9.606  0.0000E+00  0.3333E-01
     -9.513  0.0000E+00  0.3333E-01
     -9.420  0.2148E-15  0.3333E-01
     -9.327  0.3333E-13  0.3333E-01
     -9.234  0.3421E-11  0.3333E-01
     -9.141  0.2294E-09  0.3333E-01
     -9.048  0.1006E-07  0.3333E-01
     -8.955  0.2885E-06  0.3333E-01
     -8.862  0.5423E-05  0.3333E-01
     -8.769  0.6685E-04  0.3334E-01
     -8.676  0.5409E-03  0.3339E-01
     -8.583  0.2876E-02  0.3366E-01
     -8.490  0.1006E-01  0.3459E-01
     -8.397  0.2315E-01  0.3675E-01
     -8.304  0.3509E-01  0.4001E-01
     -8.211  0.3504E-01  0.4327E-01
     -8.118  0.2304E-01  0.4542E-01
     -8.024  0.9980E-02  0.4635E-01
     -7.931  0.2845E-02  0.4661E-01
     -7.838  0.5333E-03  0.4666E-01
     -7.745  0.6641E-04  0.4667E-01
     -7.652  0.1597E-04  0.4667E-01
     -7.559  0.1056E-03  0.4668E-01
     -7.466  0.6839E-03  0.4674E-01
     -7.373  0.2920E-02  0.4701E-01
     -7.280  0.8200E-02  0.4778E-01
     -7.187  0.1516E-01  0.4919E-01
     -7.094  0.1847E-01  0.5091E-01
     -7.001  0.1482E-01  0.5228E-01
     -6.908  0.7830E-02  0.5301E-01
     -6.815  0.2724E-02  0.5327E-01
     -6.722  0.6235E-03  0.5332E-01
     -6.629  0.9382E-04  0.5333E-01
     -6.536  0.9272E-05  0.5333E-01
     -6.443  0.6012E-06  0.5333E-01
     -6.350  0.2555E-07  0.5333E-01
     -6.257  0.7109E-09  0.5333E-01
     -6.164  0.1294E-10  0.5333E-01
     -6.071  0.1539E-12  0.5333E-01
     -5.978  0.1193E-14  0.5333E-01
     -5.885  0.7955E-17  0.5333E-01
     -5.792  0.0000E+00  0.5333E-01
     -5.699  0.0000E+00  0.5333E-01
     -5.605  0.0000E+00  0.5333E-01
     -5.512  0.0000E+00  0.5333E-01
     -5.419  0.0000E+00  0.5333E-01
     -5.326  0.0000E+00  0.5333E-01
     -5.233  0.0000E+00  0.5333E-01
     -5.140  0.0000E+00  0.5333E-01
     -5.047  0.0000E+00  0.5333E-01
     -4.954  0.0000E+00  0.5333E-01
     -4.861  0.0000E+00  0.5333E-01
     -4.768  0.0000E+00  0.5333E-01
     -4.675  0.0000E+00  0.5333E-01
     -4.582  0.0000E+00  0.5333E-01
     -4.489  0.0000E+00  0.5333E-01
     -4.396  0.0000E+00  0.5333E-01
     -4.303  0.0000E+00  0.5333E-01
     -4.210  0.0000E+00  0.5333E-01
     -4.117  0.0000E+00  0.5333E-01
     -4.024  0.0000E+00  0.5333E-01
     -3.931  0.0000E+00  0.5333E-01
     -3.838  0.0000E+00  0.5333E-01
     -3.745  0.0000E+00  0.5333E-01
     -3.652  0.0000E+00  0.5333E-01
     -3.559  0.0000E+00  0.5333E-01
     -3.466  0.0000E+00  0.5333E-01
     -3.373  0.0000E+00  0.5333E-01
     -3.280  0.0000E+00  0.5333E-01
     -3.186  0.0000E+00  0.5333E-01
     -3.093  0.0000E+00  0.5333E-01
     -3.000  0.0000E+00  0.5333E-01
     -2.907  0.0000E+00  0.5333E-01
     -2.814  0.0000E+00  0.5333E-01
     -2.721  0.0000E+00  0.5333E-01
     -2.628  0.0000E+00  0.5333E-01
     -2.535  0.0000E+00  0.5333E-01
     -2.442  0.0000E+00  0.5333E-01
     -2.349  0.0000E+00  0.5333E-01
     -2.256  0.0000E+00  0.5333E-01
     -2.163  0.0000E+00  0.5333E-01
     -2.070  0.0000E+00  0.5333E-01
     -1.977  0.0000E+00  0.5333E-01
     -1.884  0.8353E-16  0.5333E-01
     -1.791  0.1356E-13  0.5333E-01
     -1.698  0.1424E-11  0.5333E-01
     -1.605  0.9799E-10  0.5333E-01
     -1.512  0.4426E-08  0.5333E-01
     -1.419  0.1317E-06  0.5333E-01
     -1.326  0.2590E-05  0.5333E-01
     -1.233  0.3390E-04  0.5334E-01
     -1.140  0.2973E-03  0.5336E-01
     -1.047  0.1764E-02  0.5353E-01
     -0.954  0.7143E-02  0.5419E-01
     -0.860  0.1993E-01  0.5605E-01
     -0.767  0.3854E-01  0.5963E-01
     -0.674  0.5165E-01  0.6444E-01
     -0.581  0.4777E-01  0.6888E-01
     -0.488  0.3026E-01  0.7170E-01
     -0.395  0.1310E-01  0.7292E-01
     -0.302  0.4408E-02  0.7333E-01
     -0.209  0.3537E-02  0.7366E-01
     -0.116  0.8090E-02  0.7441E-01
     -0.023  0.1498E-01  0.7580E-01
      0.070  0.1847E-01  0.7752E-01
      0.163  0.1501E-01  0.7892E-01
      0.256  0.8031E-02  0.7967E-01
      0.349  0.2830E-02  0.7993E-01
      0.442  0.6559E-03  0.7999E-01
      0.535  0.9995E-04  0.8000E-01
      0.628  0.1000E-04  0.8000E-01
      0.721  0.6570E-06  0.8000E-01
      0.814  0.2828E-07  0.8000E-01
      0.907  0.7970E-09  0.8000E-01
      1.000  0.1469E-10  0.8000E-01
      1.093  0.1770E-12  0.8000E-01
      1.186  0.1390E-14  0.8000E-01
      1.279  0.7955E-17  0.8000E-01
      1.372  0.0000E+00  0.8000E-01
      1.465  0.0000E+00  0.8000E-01
      1.559  0.0000E+00  0.8000E-01
      1.652  0.0000E+00  0.8000E-01
      1.745  0.0000E+00  0.8000E-01
      1.838  0.0000E+00  0.8000E-01
      1.931  0.0000E+00  0.8000E-01
      2.024  0.0000E+00  0.8000E-01
