    6    6  300    1
  0.4500000E+04  0.3000000E-08  0.3000000E-08  0.3000000E-08  0.0000000E+00
  1.000000000000000E-004
  CAR 
 unknown system                          
     16      4     12
 
  0.2500000E+00  0.2500000E+00  0.2500000E+00  0.2500000E+00
    1      -23.887995   1.000000
    2      -19.297605   1.000000
    3      -13.882940   1.000000
    4      -11.796526   1.000000
    5      -11.795185   1.000000
    6       -8.304102   1.000000
    7       -8.303834   1.000000
    8       -7.143193   1.000000
    9       -0.763696   0.000000
   10       -0.661997   0.000000
   11       -0.661833   0.000000
   12        0.023688   0.000000
 
 -0.2500000E+00  0.2500000E+00  0.2500000E+00  0.2500000E+00
    1      -23.887994   1.000000
    2      -19.297608   1.000000
    3      -13.882938   1.000000
    4      -11.796529   1.000000
    5      -11.795181   1.000000
    6       -8.304084   1.000000
    7       -8.303832   1.000000
    8       -7.143194   1.000000
    9       -0.763696   0.000000
   10       -0.662003   0.000000
   11       -0.661843   0.000000
   12        0.023584   0.000000
 
  0.2500000E+00 -0.2500000E+00  0.2500000E+00  0.2500000E+00
    1      -23.887994   1.000000
    2      -19.297604   1.000000
    3      -13.882937   1.000000
    4      -11.796529   1.000000
    5      -11.795181   1.000000
    6       -8.304088   1.000000
    7       -8.303827   1.000000
    8       -7.143193   1.000000
    9       -0.763696   0.000000
   10       -0.662002   0.000000
   11       -0.661848   0.000000
   12        0.023727   0.000000
 
 -0.2500000E+00 -0.2500000E+00  0.2500000E+00  0.2500000E+00
    1      -23.887995   1.000000
    2      -19.297610   1.000000
    3      -13.882934   1.000000
    4      -11.796527   1.000000
    5      -11.795181   1.000000
    6       -8.304088   1.000000
    7       -8.303835   1.000000
    8       -7.143196   1.000000
    9       -0.763696   0.000000
   10       -0.661998   0.000000
   11       -0.661846   0.000000
   12        0.023488   0.000000
