       N       E                     dE             d eps       ncg     rms          rms(c)
DAV:   1     0.112642210638E+03    0.11264E+03   -0.21496E+03   160   0.366E+02
DAV:   2    -0.229486755022E+01   -0.11494E+03   -0.11243E+03   192   0.109E+02
DAV:   3    -0.345307638892E+02   -0.32236E+02   -0.32137E+02   136   0.866E+01
DAV:   4    -0.389408731566E+02   -0.44101E+01   -0.43578E+01   128   0.310E+01
DAV:   5    -0.390948901038E+02   -0.15402E+00   -0.15177E+00   112   0.597E+00    0.104E+01
DAV:   6    -0.364101432037E+02    0.26847E+01   -0.43873E+00   124   0.146E+01    0.562E+00
DAV:   7    -0.357066787680E+02    0.70346E+00   -0.18630E+00   124   0.934E+00    0.222E+00
DAV:   8    -0.356384185548E+02    0.68260E-01   -0.13241E-01   128   0.278E+00    0.871E-01
DAV:   9    -0.356201627356E+02    0.18256E-01   -0.20939E-02   128   0.122E+00    0.214E-01
DAV:  10    -0.356200049556E+02    0.15778E-03   -0.42449E-03   128   0.504E-01    0.130E-01
DAV:  11    -0.356217166143E+02   -0.17117E-02   -0.16768E-03   128   0.334E-01    0.805E-02
DAV:  12    -0.356273902365E+02   -0.56736E-02   -0.30283E-03   124   0.420E-01    0.456E-02
DAV:  13    -0.356334777623E+02   -0.60875E-02   -0.16560E-03   128   0.250E-01    0.286E-02
DAV:  14    -0.356373486671E+02   -0.38709E-02   -0.46347E-04   128   0.117E-01    0.186E-02
DAV:  15    -0.356407085113E+02   -0.33598E-02   -0.36444E-04   128   0.890E-02    0.121E-02
DAV:  16    -0.356418992060E+02   -0.11907E-02   -0.10618E-04   128   0.534E-02    0.664E-03
DAV:  17    -0.356426873089E+02   -0.78810E-03   -0.24277E-05    88   0.356E-02    0.398E-03
DAV:  18    -0.356430952067E+02   -0.40790E-03   -0.28405E-05    76   0.244E-02    0.270E-03
DAV:  19    -0.356433232262E+02   -0.22802E-03   -0.99019E-06    80   0.209E-02    0.268E-03
DAV:  20    -0.356433675953E+02   -0.44369E-04   -0.27630E-06    96   0.117E-02
   1 F= -.35643368E+02 E0= -.35643368E+02  d E =-.356434E+02
       N       E                     dE             d eps       ncg     rms          rms(c)
DAV:   1    -0.356434145549E+02   -0.91329E-04   -0.85675E-05    68   0.893E-02    0.275E-03
DAV:   2    -0.356434233603E+02   -0.88053E-05   -0.50294E-06    96   0.226E-02    0.211E-03
DAV:   3    -0.356434313532E+02   -0.79930E-05   -0.67577E-07    64   0.837E-03    0.114E-03
DAV:   4    -0.356434410701E+02   -0.97169E-05   -0.46059E-07    64   0.642E-03    0.513E-04
DAV:   5    -0.356434440379E+02   -0.29678E-05   -0.11095E-07    76   0.328E-03    0.356E-04
DAV:   6    -0.356434492174E+02   -0.51795E-05   -0.48595E-08    64   0.156E-03
   2 F= -.35643449E+02 E0= -.35643449E+02  d E =-.816221E-04
       N       E                     dE             d eps       ncg     rms          rms(c)
DAV:   1    -0.356434540809E+02   -0.10043E-04   -0.30441E-04   104   0.159E-01    0.329E-03
DAV:   2    -0.356434556989E+02   -0.16180E-05   -0.33486E-06    52   0.160E-02    0.215E-03
DAV:   3    -0.356434575708E+02   -0.18719E-05   -0.51249E-07    88   0.654E-03    0.786E-04
DAV:   4    -0.356434590963E+02   -0.15255E-05   -0.16878E-07    64   0.334E-03    0.307E-04
DAV:   5    -0.356434603016E+02   -0.12052E-05   -0.53455E-08    64   0.164E-03    0.126E-04
DAV:   6    -0.356434611196E+02   -0.81804E-06   -0.28706E-08    72   0.885E-04
   3 F= -.35643461E+02 E0= -.35643461E+02  d E =-.119022E-04
       N       E                     dE             d eps       ncg     rms          rms(c)
DAV:   1    -0.356434623414E+02   -0.20398E-05   -0.12540E-03    96   0.319E-01    0.704E-03
DAV:   2    -0.356434631836E+02   -0.84216E-06   -0.13886E-05    48   0.324E-02    0.453E-03
DAV:   3    -0.356434636817E+02   -0.49817E-06   -0.20397E-06    88   0.131E-02    0.154E-03
DAV:   4    -0.356434640413E+02   -0.35952E-06   -0.60018E-07    64   0.634E-03    0.570E-04
DAV:   5    -0.356434642819E+02   -0.24060E-06   -0.17302E-07    48   0.304E-03    0.218E-04
DAV:   6    -0.356434644449E+02   -0.16303E-06   -0.72090E-08    72   0.162E-03
   4 F= -.35643464E+02 E0= -.35643464E+02  d E =-.332527E-05
       N       E                     dE             d eps       ncg     rms          rms(c)
DAV:   1    -0.356434637792E+02    0.50270E-06   -0.39804E-03    96   0.565E-01    0.130E-02
DAV:   2    -0.356434651720E+02   -0.13928E-05   -0.42978E-05    64   0.576E-02    0.834E-03
DAV:   3    -0.356434657722E+02   -0.60018E-06   -0.64707E-06    80   0.237E-02    0.240E-03
DAV:   4    -0.356434661033E+02   -0.33114E-06   -0.18222E-06    48   0.111E-02    0.944E-04
DAV:   5    -0.356434662192E+02   -0.11588E-06   -0.50275E-07    48   0.531E-03    0.374E-04
DAV:   6    -0.356434663077E+02   -0.88546E-07   -0.19278E-07    48   0.292E-03
   5 F= -.35643466E+02 E0= -.35643466E+02  d E =-.186282E-05
       N       E                     dE             d eps       ncg     rms          rms(c)
DAV:   1    -0.356434614177E+02    0.48015E-05   -0.88581E-03    96   0.843E-01    0.199E-02
DAV:   2    -0.356434642682E+02   -0.28505E-05   -0.95124E-05    80   0.855E-02    0.127E-02
DAV:   3    -0.356434657338E+02   -0.14657E-05   -0.14427E-05    68   0.351E-02    0.333E-03
DAV:   4    -0.356434663694E+02   -0.63552E-06   -0.38415E-06    48   0.159E-02    0.133E-03
DAV:   5    -0.356434665868E+02   -0.21742E-06   -0.10766E-06    48   0.770E-03    0.482E-04
DAV:   6    -0.356434667478E+02   -0.16099E-06   -0.39696E-07    48   0.425E-03
   6 F= -.35643467E+02 E0= -.35643467E+02  d E =-.440056E-06
       N       E                     dE             d eps       ncg     rms          rms(c)
DAV:   1    -0.356434551556E+02    0.11431E-04   -0.15068E-02    96   0.110E+00    0.263E-02
DAV:   2    -0.356434625651E+02   -0.74096E-05   -0.18859E-04   112   0.112E-01    0.174E-02
DAV:   3    -0.356434626557E+02   -0.90606E-07   -0.78678E-06    84   0.298E-02    0.543E-03
DAV:   4    -0.356434637877E+02   -0.11319E-05   -0.37157E-06    48   0.159E-02    0.210E-03
DAV:   5    -0.356434641024E+02   -0.31473E-06   -0.68719E-07    48   0.734E-03    0.611E-04
DAV:   6    -0.356434643430E+02   -0.24058E-06   -0.14434E-07    48   0.287E-03
   7 F= -.35643464E+02 E0= -.35643464E+02  d E =0.240479E-05
       N       E                     dE             d eps       ncg     rms          rms(c)
DAV:   1    -0.356434431569E+02    0.20946E-04   -0.25849E-02    96   0.145E+00    0.346E-02
DAV:   2    -0.356434561991E+02   -0.13042E-04   -0.32525E-04   112   0.148E-01    0.229E-02
DAV:   3    -0.356434563072E+02   -0.10807E-06   -0.13251E-05    64   0.390E-02    0.736E-03
DAV:   4    -0.356434584329E+02   -0.21257E-05   -0.63891E-06    52   0.212E-02    0.273E-03
DAV:   5    -0.356434590584E+02   -0.62542E-06   -0.12261E-06    56   0.101E-02    0.791E-04
DAV:   6    -0.356434594752E+02   -0.41683E-06   -0.24723E-07    48   0.393E-03
   8 F= -.35643459E+02 E0= -.35643459E+02  d E =0.486779E-05
       N       E                     dE             d eps       ncg     rms          rms(c)
DAV:   1    -0.356434244893E+02    0.34569E-04   -0.37443E-02    96   0.176E+00    0.419E-02
DAV:   2    -0.356434439964E+02   -0.19507E-04   -0.48196E-04    96   0.182E-01    0.278E-02
DAV:   3    -0.356434424509E+02    0.15455E-05   -0.21169E-05    96   0.503E-02    0.101E-02
DAV:   4    -0.356434460254E+02   -0.35745E-05   -0.11316E-05    64   0.297E-02    0.356E-03
DAV:   5    -0.356434468051E+02   -0.77967E-06   -0.22799E-06    56   0.145E-02    0.132E-03
DAV:   6    -0.356434474963E+02   -0.69125E-06   -0.51596E-07    48   0.592E-03
   9 F= -.35643447E+02 E0= -.35643447E+02  d E =0.119789E-04
       N       E                     dE             d eps       ncg     rms          rms(c)
DAV:   1    -0.356434583312E+02   -0.11526E-04   -0.26067E-04    80   0.153E-01    0.806E-03
DAV:   2    -0.356434580085E+02    0.32265E-06   -0.59015E-06    64   0.238E-02    0.382E-03
DAV:   3    -0.356434582660E+02   -0.25752E-06   -0.17371E-06    48   0.130E-02    0.164E-03
DAV:   4    -0.356434588791E+02   -0.61309E-06   -0.84007E-07    64   0.854E-03    0.602E-04
DAV:   5    -0.356434592776E+02   -0.39850E-06   -0.18334E-07    48   0.396E-03    0.331E-04
DAV:   6    -0.356434596252E+02   -0.34756E-06   -0.60945E-08    48   0.189E-03
  10 F= -.35643460E+02 E0= -.35643460E+02  d E =-.121289E-04
       N       E                     dE             d eps       ncg     rms          rms(c)
DAV:   1    -0.356434567655E+02    0.25121E-05   -0.33594E-04    80   0.175E-01    0.890E-03
DAV:   2    -0.356434559857E+02    0.77984E-06   -0.79086E-06    96   0.271E-02    0.427E-03
DAV:   3    -0.356434559011E+02    0.84604E-07   -0.22639E-06    64   0.146E-02    0.186E-03
DAV:   4    -0.356434561415E+02   -0.24041E-06   -0.96385E-07    96   0.917E-03    0.714E-04
DAV:   5    -0.356434562861E+02   -0.14454E-06   -0.20785E-07    48   0.418E-03    0.396E-04
DAV:   6    -0.356434564186E+02   -0.13252E-06   -0.69883E-08    48   0.207E-03
  11 F= -.35643456E+02 E0= -.35643456E+02  d E =0.320661E-05
       N       E                     dE             d eps       ncg     rms          rms(c)
DAV:   1    -0.356434586867E+02   -0.24006E-05   -0.96780E-06    48   0.303E-02    0.146E-03
DAV:   2    -0.356434588057E+02   -0.11900E-06   -0.61113E-07    48   0.754E-03    0.726E-04
DAV:   3    -0.356434588735E+02   -0.67826E-07   -0.90563E-08    48   0.249E-03    0.469E-04
DAV:   4    -0.356434590027E+02   -0.12917E-06   -0.72750E-08    68   0.225E-03    0.145E-04
DAV:   5    -0.356434590471E+02   -0.44465E-07   -0.39624E-08    48   0.107E-03    0.108E-04
DAV:   6    -0.356434590976E+02   -0.50430E-07   -0.31143E-08    48   0.468E-04
  12 F= -.35643459E+02 E0= -.35643459E+02  d E =-.267899E-05
       N       E                     dE             d eps       ncg     rms          rms(c)
DAV:   1    -0.356434618308E+02   -0.27837E-05   -0.31046E-05    48   0.543E-02    0.258E-03
DAV:   2    -0.356434619722E+02   -0.14142E-06   -0.18963E-06    72   0.136E-02    0.129E-03
DAV:   3    -0.356434619881E+02   -0.15827E-07   -0.23288E-07    48   0.445E-03    0.829E-04
DAV:   4    -0.356434620328E+02   -0.44785E-07   -0.17081E-07    80   0.403E-03    0.251E-04
DAV:   5    -0.356434620489E+02   -0.16033E-07   -0.66827E-08    48   0.194E-03    0.188E-04
DAV:   6    -0.356434620645E+02   -0.15671E-07   -0.37349E-08    48   0.810E-04
  13 F= -.35643462E+02 E0= -.35643462E+02  d E =-.296698E-05
       N       E                     dE             d eps       ncg     rms          rms(c)
DAV:   1    -0.356434632298E+02   -0.11809E-05   -0.47143E-05    48   0.671E-02    0.312E-03
DAV:   2    -0.356434633567E+02   -0.12692E-06   -0.28631E-06    96   0.168E-02    0.158E-03
DAV:   3    -0.356434633279E+02    0.28813E-07   -0.34303E-07    48   0.551E-03    0.101E-03
DAV:   4    -0.356434633151E+02    0.12752E-07   -0.25008E-07    48   0.502E-03    0.310E-04
DAV:   5    -0.356434633189E+02   -0.37987E-08   -0.88344E-08    48   0.242E-03    0.239E-04
DAV:   6    -0.356434633240E+02   -0.51032E-08   -0.42160E-08    48   0.101E-03
  14 F= -.35643463E+02 E0= -.35643463E+02  d E =-.125948E-05
       N       E                     dE             d eps       ncg     rms          rms(c)
DAV:   1    -0.356434625933E+02    0.72561E-06   -0.37814E-05    48   0.603E-02    0.259E-03
DAV:   2    -0.356434626799E+02   -0.86542E-07   -0.22437E-06    64   0.151E-02    0.136E-03
DAV:   3    -0.356434626579E+02    0.21930E-07   -0.28018E-07    48   0.493E-03    0.849E-04
DAV:   4    -0.356434626500E+02    0.79019E-08   -0.20822E-07    48   0.448E-03    0.277E-04
DAV:   5    -0.356434626538E+02   -0.37978E-08   -0.77724E-08    48   0.215E-03    0.230E-04
DAV:   6    -0.356434626591E+02   -0.53101E-08   -0.40786E-08    48   0.904E-04
  15 F= -.35643463E+02 E0= -.35643463E+02  d E =0.664899E-06
       N       E                     dE             d eps       ncg     rms          rms(c)
DAV:   1    -0.356434627989E+02   -0.14511E-06   -0.15944E-07    48   0.351E-03    0.119E-04
DAV:   2    -0.356434628075E+02   -0.85449E-08   -0.39624E-08    48   0.811E-04    0.742E-05
DAV:   3    -0.356434628179E+02   -0.10412E-07   -0.33675E-08    48   0.258E-04    0.451E-05
DAV:   4    -0.356434628376E+02   -0.19709E-07   -0.33235E-08    48   0.168E-04    0.128E-05
DAV:   5    -0.356434628451E+02   -0.74706E-08   -0.33005E-08    48   0.801E-05    0.963E-06
DAV:   6    -0.356434628603E+02   -0.15197E-07   -0.33244E-08    48   0.613E-05
  16 F= -.35643463E+02 E0= -.35643463E+02  d E =-.201133E-06
       N       E                     dE             d eps       ncg     rms          rms(c)
DAV:   1    -0.356434630883E+02   -0.24321E-06   -0.57775E-07    48   0.721E-03    0.284E-04
DAV:   2    -0.356434630907E+02   -0.24513E-08   -0.64634E-08    48   0.174E-03    0.157E-04
DAV:   3    -0.356434630929E+02   -0.21782E-08   -0.36870E-08    48   0.573E-04    0.101E-04
DAV:   4    -0.356434630977E+02   -0.48308E-08   -0.35692E-08    48   0.482E-04    0.308E-05
DAV:   5    -0.356434630994E+02   -0.16812E-08   -0.34331E-08    48   0.225E-04    0.255E-05
DAV:   6    -0.356434631010E+02   -0.16262E-08   -0.34041E-08    48   0.104E-04
  17 F= -.35643463E+02 E0= -.35643463E+02  d E =-.240781E-06
       N       E                     dE             d eps       ncg     rms          rms(c)
DAV:   1    -0.356434633726E+02   -0.27320E-06   -0.12696E-06    48   0.108E-02    0.393E-04
DAV:   2    -0.356434633712E+02    0.14109E-08   -0.10414E-07    48   0.261E-03    0.228E-04
DAV:   3    -0.356434633698E+02    0.13795E-08   -0.42251E-08    48   0.857E-04    0.148E-04
DAV:   4    -0.356434633694E+02    0.38494E-09   -0.38737E-08    48   0.689E-04    0.444E-05
DAV:   5    -0.356434633700E+02   -0.53706E-09   -0.35744E-08    48   0.321E-04    0.377E-05
DAV:   6    -0.356434633704E+02   -0.44543E-09   -0.34939E-08    48   0.150E-04
  18 F= -.35643463E+02 E0= -.35643463E+02  d E =-.269385E-06
       N       E                     dE             d eps       ncg     rms          rms(c)
DAV:   1    -0.356434636289E+02   -0.25892E-06   -0.22834E-06    48   0.145E-02    0.472E-04
DAV:   2    -0.356434636284E+02    0.47089E-09   -0.15884E-07    48   0.349E-03    0.289E-04
DAV:   3    -0.356434636262E+02    0.22569E-08   -0.48922E-08    48   0.113E-03    0.194E-04
DAV:   4    -0.356434636250E+02    0.11723E-08   -0.41293E-08    48   0.848E-04    0.574E-05
DAV:   5    -0.356434636253E+02   -0.27558E-09   -0.36826E-08    48   0.398E-04    0.484E-05
DAV:   6    -0.356434636256E+02   -0.34061E-09   -0.35408E-08    48   0.188E-04
  19 F= -.35643464E+02 E0= -.35643464E+02  d E =-.255190E-06
       N       E                     dE             d eps       ncg     rms          rms(c)
DAV:   1    -0.356434638188E+02   -0.19356E-06   -0.38073E-06    48   0.186E-02    0.540E-04
DAV:   2    -0.356434638231E+02   -0.42949E-08   -0.23780E-07    48   0.447E-03    0.345E-04
DAV:   3    -0.356434638211E+02    0.19941E-08   -0.58334E-08    48   0.143E-03    0.239E-04
DAV:   4    -0.356434638199E+02    0.12110E-08   -0.43659E-08    48   0.976E-04    0.732E-05
DAV:   5    -0.356434638207E+02   -0.78626E-09   -0.37890E-08    48   0.470E-04    0.572E-05
DAV:   6    -0.356434638213E+02   -0.53160E-09   -0.35633E-08    48   0.226E-04
  20 F= -.35643464E+02 E0= -.35643464E+02  d E =-.195629E-06
       N       E                     dE             d eps       ncg     rms          rms(c)
DAV:   1    -0.356434639099E+02   -0.89202E-07   -0.63067E-06    48   0.237E-02    0.621E-04
DAV:   2    -0.356434639244E+02   -0.14430E-07   -0.36334E-07    48   0.569E-03    0.403E-04
DAV:   3    -0.356434639235E+02    0.83332E-09   -0.73143E-08    48   0.178E-03    0.282E-04
DAV:   4    -0.356434639230E+02    0.49567E-09   -0.46856E-08    48   0.111E-03    0.888E-05
DAV:   5    -0.356434639240E+02   -0.98066E-09   -0.39146E-08    48   0.545E-04    0.648E-05
DAV:   6    -0.356434639250E+02   -0.95474E-09   -0.35862E-08    48   0.268E-04
  21 F= -.35643464E+02 E0= -.35643464E+02  d E =-.103707E-06
       N       E                     dE             d eps       ncg     rms          rms(c)
DAV:   1    -0.356434638631E+02    0.60923E-07   -0.13506E-05    48   0.343E-02    0.826E-04
DAV:   2    -0.356434639068E+02   -0.43751E-07   -0.72166E-07    48   0.826E-03    0.535E-04
DAV:   3    -0.356434639099E+02   -0.31023E-08   -0.11507E-07    48   0.253E-03    0.358E-04
DAV:   4    -0.356434639106E+02   -0.62073E-09   -0.57069E-08    48   0.143E-03    0.106E-04
DAV:   5    -0.356434639120E+02   -0.14509E-08   -0.42290E-08    48   0.693E-04    0.813E-05
DAV:   6    -0.356434639131E+02   -0.11346E-08   -0.36517E-08    48   0.351E-04
  22 F= -.35643464E+02 E0= -.35643464E+02  d E =0.118181E-07
       N       E                     dE             d eps       ncg     rms          rms(c)
DAV:   1    -0.356434635994E+02    0.31259E-06   -0.28233E-05    48   0.493E-02    0.113E-03
DAV:   2    -0.356434637067E+02   -0.10727E-06   -0.14559E-06    48   0.119E-02    0.723E-04
DAV:   3    -0.356434637201E+02   -0.13362E-07   -0.20120E-07    48   0.360E-03    0.439E-04
DAV:   4    -0.356434637236E+02   -0.35618E-08   -0.77901E-08    48   0.188E-03    0.113E-04
DAV:   5    -0.356434637261E+02   -0.24475E-08   -0.48475E-08    48   0.899E-04    0.101E-04
DAV:   6    -0.356434637276E+02   -0.15534E-08   -0.38168E-08    48   0.473E-04
  23 F= -.35643464E+02 E0= -.35643464E+02  d E =0.185524E-06
       N       E                     dE             d eps       ncg     rms          rms(c)
DAV:   1    -0.356434631214E+02    0.60465E-06   -0.59762E-05    48   0.713E-02    0.158E-03
DAV:   2    -0.356434633609E+02   -0.23947E-06   -0.30027E-06    48   0.173E-02    0.101E-03
DAV:   3    -0.356434633955E+02   -0.34655E-07   -0.38016E-07    48   0.515E-03    0.559E-04
DAV:   4    -0.356434634037E+02   -0.81257E-08   -0.12053E-07    48   0.253E-03    0.140E-04
DAV:   5    -0.356434634082E+02   -0.44990E-08   -0.61830E-08    48   0.122E-03    0.126E-04
DAV:   6    -0.356434634103E+02   -0.21166E-08   -0.41985E-08    48   0.668E-04
  24 F= -.35643463E+02 E0= -.35643463E+02  d E =0.317338E-06
       N       E                     dE             d eps       ncg     rms          rms(c)
DAV:   1    -0.356434624007E+02    0.10075E-05   -0.11609E-04    64   0.993E-02    0.218E-03
DAV:   2    -0.356434628811E+02   -0.48047E-06   -0.57898E-06    48   0.241E-02    0.138E-03
DAV:   3    -0.356434629573E+02   -0.76213E-07   -0.70386E-07    48   0.716E-03    0.714E-04
DAV:   4    -0.356434629732E+02   -0.15882E-07   -0.19827E-07    48   0.340E-03    0.175E-04
DAV:   5    -0.356434629806E+02   -0.74201E-08   -0.86895E-08    48   0.166E-03    0.157E-04
DAV:   6    -0.356434629832E+02   -0.26002E-08   -0.49314E-08    48   0.928E-04
  25 F= -.35643463E+02 E0= -.35643463E+02  d E =0.427035E-06
       N       E                     dE             d eps       ncg     rms          rms(c)
DAV:   1    -0.356434623583E+02    0.62231E-06   -0.22870E-04    96   0.136E-01    0.312E-03
DAV:   2    -0.356434624002E+02   -0.41856E-07   -0.25889E-06    48   0.140E-02    0.199E-03
DAV:   3    -0.356434624304E+02   -0.30202E-07   -0.40720E-07    48   0.567E-03    0.566E-04
DAV:   4    -0.356434624486E+02   -0.18218E-07   -0.12977E-07    48   0.259E-03    0.216E-04
DAV:   5    -0.356434624583E+02   -0.96843E-08   -0.57939E-08    48   0.126E-03    0.773E-05
DAV:   6    -0.356434624666E+02   -0.83512E-08   -0.40181E-08    48   0.685E-04
  26 F= -.35643462E+02 E0= -.35643462E+02  d E =0.516598E-06
       N       E                     dE             d eps       ncg     rms          rms(c)
DAV:   1    -0.356434616356E+02    0.82267E-06   -0.41172E-04    96   0.183E-01    0.418E-03
DAV:   2    -0.356434617347E+02   -0.99075E-07   -0.46289E-06    48   0.188E-02    0.267E-03
DAV:   3    -0.356434617928E+02   -0.58114E-07   -0.69735E-07    48   0.756E-03    0.777E-04
DAV:   4    -0.356434618269E+02   -0.34113E-07   -0.20404E-07    48   0.346E-03    0.294E-04
DAV:   5    -0.356434618418E+02   -0.14843E-07   -0.76399E-08    48   0.167E-03    0.108E-04
DAV:   6    -0.356434618552E+02   -0.13449E-07   -0.45520E-08    48   0.903E-04
  27 F= -.35643462E+02 E0= -.35643462E+02  d E =0.611430E-06
       N       E                     dE             d eps       ncg     rms          rms(c)
DAV:   1    -0.356434607564E+02    0.10854E-05   -0.71123E-04    96   0.240E-01    0.551E-03
DAV:   2    -0.356434609472E+02   -0.19085E-06   -0.80037E-06    64   0.247E-02    0.351E-03
DAV:   3    -0.356434610394E+02   -0.92176E-07   -0.11910E-06    48   0.997E-03    0.104E-03
DAV:   4    -0.356434610971E+02   -0.57761E-07   -0.33549E-07    48   0.459E-03    0.401E-04
DAV:   5    -0.356434611198E+02   -0.22655E-07   -0.10986E-07    48   0.222E-03    0.150E-04
DAV:   6    -0.356434611400E+02   -0.20174E-07   -0.55742E-08    48   0.120E-03
  28 F= -.35643461E+02 E0= -.35643461E+02  d E =0.715238E-06
       N       E                     dE             d eps       ncg     rms          rms(c)
DAV:   1    -0.356434592607E+02    0.18591E-05   -0.11855E-03    96   0.309E-01    0.711E-03
DAV:   2    -0.356434596081E+02   -0.34742E-06   -0.13291E-05    64   0.319E-02    0.453E-03
DAV:   3    -0.356434597557E+02   -0.14761E-06   -0.19656E-06    48   0.129E-02    0.134E-03
DAV:   4    -0.356434598517E+02   -0.95955E-07   -0.54147E-07    48   0.593E-03    0.519E-04
DAV:   5    -0.356434598892E+02   -0.37577E-07   -0.16385E-07    48   0.286E-03    0.195E-04
DAV:   6    -0.356434599222E+02   -0.33018E-07   -0.73236E-08    48   0.155E-03
  29 F= -.35643460E+02 E0= -.35643460E+02  d E =0.121773E-05
       N       E                     dE             d eps       ncg     rms          rms(c)
DAV:   1    -0.356434568277E+02    0.30616E-05   -0.19130E-03    96   0.393E-01    0.901E-03
DAV:   2    -0.356434574250E+02   -0.59735E-06   -0.21250E-05    64   0.402E-02    0.574E-03
DAV:   3    -0.356434576650E+02   -0.24003E-06   -0.31308E-06    48   0.163E-02    0.165E-03
DAV:   4    -0.356434578168E+02   -0.15172E-06   -0.84735E-07    48   0.745E-03    0.639E-04
DAV:   5    -0.356434578796E+02   -0.62857E-07   -0.24689E-07    48   0.359E-03    0.238E-04
DAV:   6    -0.356434579314E+02   -0.51745E-07   -0.10154E-07    48   0.195E-03
  30 F= -.35643458E+02 E0= -.35643458E+02  d E =0.199088E-05
       N       E                     dE             d eps       ncg     rms          rms(c)
DAV:   1    -0.356434532607E+02    0.46189E-05   -0.30057E-03    96   0.491E-01    0.112E-02
DAV:   2    -0.356434542447E+02   -0.98396E-06   -0.33079E-05    64   0.500E-02    0.719E-03
DAV:   3    -0.356434546217E+02   -0.37702E-06   -0.48657E-06    60   0.203E-02    0.201E-03
DAV:   4    -0.356434548552E+02   -0.23349E-06   -0.13020E-06    48   0.923E-03    0.771E-04
DAV:   5    -0.356434549558E+02   -0.10061E-06   -0.37232E-07    48   0.443E-03    0.283E-04
DAV:   6    -0.356434550341E+02   -0.78270E-07   -0.14529E-07    48   0.241E-03
  31 F= -.35643455E+02 E0= -.35643455E+02  d E =0.289729E-05
       N       E                     dE             d eps       ncg     rms          rms(c)
DAV:   1    -0.356434485586E+02    0.63972E-05   -0.46135E-03    96   0.607E-01    0.139E-02
DAV:   2    -0.356434501178E+02   -0.15593E-05   -0.50515E-05    64   0.617E-02    0.891E-03
DAV:   3    -0.356434506818E+02   -0.56396E-06   -0.74350E-06    64   0.251E-02    0.247E-03
DAV:   4    -0.356434510375E+02   -0.35567E-06   -0.19866E-06    48   0.114E-02    0.940E-04
DAV:   5    -0.356434511907E+02   -0.15324E-06   -0.55992E-07    48   0.546E-03    0.341E-04
DAV:   6    -0.356434513035E+02   -0.11278E-06   -0.21132E-07    48   0.297E-03
  32 F= -.35643451E+02 E0= -.35643451E+02  d E =0.373059E-05
       N       E                     dE             d eps       ncg     rms          rms(c)
DAV:   1    -0.356434433699E+02    0.78209E-05   -0.69150E-03    96   0.742E-01    0.170E-02
DAV:   2    -0.356434457675E+02   -0.23977E-05   -0.75596E-05    64   0.753E-02    0.109E-02
DAV:   3    -0.356434466038E+02   -0.83625E-06   -0.11123E-05    64   0.307E-02    0.301E-03
DAV:   4    -0.356434471403E+02   -0.53658E-06   -0.29755E-06    48   0.140E-02    0.114E-03
DAV:   5    -0.356434473640E+02   -0.22369E-06   -0.83089E-07    48   0.667E-03    0.412E-04
DAV:   6    -0.356434475214E+02   -0.15733E-06   -0.30675E-07    48   0.363E-03
  33 F= -.35643448E+02 E0= -.35643448E+02  d E =0.378213E-05
       N       E                     dE             d eps       ncg     rms          rms(c)
DAV:   1    -0.356434382381E+02    0.91259E-05   -0.10092E-02    96   0.895E-01    0.205E-02
DAV:   2    -0.356434418810E+02   -0.36428E-05   -0.11019E-04    64   0.907E-02    0.131E-02
DAV:   3    -0.356434431296E+02   -0.12486E-05   -0.16146E-05    64   0.370E-02    0.361E-03
DAV:   4    -0.356434439128E+02   -0.78320E-06   -0.43072E-06    48   0.168E-02    0.136E-03
DAV:   5    -0.356434442338E+02   -0.32099E-06   -0.12010E-06    48   0.800E-03    0.489E-04
DAV:   6    -0.356434444456E+02   -0.21179E-06   -0.43704E-07    48   0.436E-03
  34 F= -.35643444E+02 E0= -.35643444E+02  d E =0.307576E-05
       N       E                     dE             d eps       ncg     rms          rms(c)
DAV:   1    -0.356434324006E+02    0.11833E-04   -0.14313E-02    96   0.106E+00    0.245E-02
DAV:   2    -0.356434401501E+02   -0.77495E-05   -0.18077E-04    96   0.108E-01    0.164E-02
DAV:   3    -0.356434395939E+02    0.55613E-06   -0.71359E-06    64   0.282E-02    0.530E-03
DAV:   4    -0.356434406968E+02   -0.11029E-05   -0.35811E-06    48   0.156E-02    0.196E-03
DAV:   5    -0.356434410558E+02   -0.35895E-06   -0.71153E-07    48   0.730E-03    0.566E-04
DAV:   6    -0.356434412810E+02   -0.22523E-06   -0.15003E-07    48   0.285E-03
  35 F= -.35643441E+02 E0= -.35643441E+02  d E =0.316461E-05
       N       E                     dE             d eps       ncg     rms          rms(c)
DAV:   1    -0.356434232731E+02    0.17783E-04   -0.19659E-02    96   0.125E+00    0.286E-02
DAV:   2    -0.356434339548E+02   -0.10682E-04   -0.24735E-04    96   0.126E-01    0.191E-02
DAV:   3    -0.356434332337E+02    0.72106E-06   -0.97728E-06    64   0.330E-02    0.622E-03
DAV:   4    -0.356434347787E+02   -0.15450E-05   -0.48701E-06    48   0.182E-02    0.228E-03
DAV:   5    -0.356434353180E+02   -0.53925E-06   -0.96886E-07    48   0.852E-03    0.661E-04
DAV:   6    -0.356434356504E+02   -0.33239E-06   -0.20045E-07    48   0.335E-03
  36 F= -.35643436E+02 E0= -.35643436E+02  d E =0.563063E-05
       N       E                     dE             d eps       ncg     rms          rms(c)
DAV:   1    -0.356434108075E+02    0.24510E-04   -0.25867E-02    96   0.143E+00    0.329E-02
DAV:   2    -0.356434250152E+02   -0.14208E-04   -0.32791E-04   112   0.146E-01    0.220E-02
DAV:   3    -0.356434240352E+02    0.98003E-06   -0.12872E-05    64   0.379E-02    0.731E-03
DAV:   4    -0.356434261460E+02   -0.21108E-05   -0.65434E-06    48   0.213E-02    0.263E-03
DAV:   5    -0.356434268864E+02   -0.74038E-06   -0.13373E-06    56   0.101E-02    0.776E-04
DAV:   6    -0.356434273116E+02   -0.42523E-06   -0.26546E-07    48   0.395E-03
  37 F= -.35643427E+02 E0= -.35643427E+02  d E =0.833874E-05
       N       E                     dE             d eps       ncg     rms          rms(c)
DAV:   1    -0.356433982177E+02    0.28669E-04   -0.31232E-02    96   0.158E+00    0.362E-02
DAV:   2    -0.356434151517E+02   -0.16934E-04   -0.39613E-04    96   0.160E-01    0.243E-02
DAV:   3    -0.356434140122E+02    0.11395E-05   -0.16311E-05    64   0.423E-02    0.822E-03
DAV:   4    -0.356434166003E+02   -0.25880E-05   -0.78110E-06    72   0.235E-02    0.293E-03
DAV:   5    -0.356434174304E+02   -0.83012E-06   -0.15404E-06    48   0.108E-02    0.104E-03
DAV:   6    -0.356434180714E+02   -0.64101E-06   -0.33215E-07    48   0.448E-03
  38 F= -.35643418E+02 E0= -.35643418E+02  d E =0.924024E-05
       N       E                     dE             d eps       ncg     rms          rms(c)
DAV:   1    -0.356434196757E+02   -0.22453E-05   -0.72697E-06    48   0.262E-02    0.115E-03
DAV:   2    -0.356434200760E+02   -0.40037E-06   -0.50556E-07    48   0.670E-03    0.638E-04
DAV:   3    -0.356434204234E+02   -0.34736E-06   -0.86840E-08    48   0.235E-03    0.421E-04
DAV:   4    -0.356434210860E+02   -0.66257E-06   -0.72187E-08    64   0.208E-03    0.136E-04
DAV:   5    -0.356434213091E+02   -0.22315E-06   -0.35421E-08    48   0.105E-03    0.115E-04
DAV:   6    -0.356434215830E+02   -0.27386E-06   -0.28097E-08    48   0.574E-04
  39 F= -.35643422E+02 E0= -.35643422E+02  d E =-.351158E-05
       N       E                     dE             d eps       ncg     rms          rms(c)
DAV:   1    -0.356434229369E+02   -0.16278E-05   -0.20346E-05    68   0.441E-02    0.189E-03
DAV:   2    -0.356434231272E+02   -0.19031E-06   -0.12529E-06    48   0.109E-02    0.100E-03
DAV:   3    -0.356434232390E+02   -0.11180E-06   -0.16036E-07    48   0.358E-03    0.650E-04
DAV:   4    -0.356434234586E+02   -0.21954E-06   -0.11460E-07    96   0.323E-03    0.196E-04
DAV:   5    -0.356434235243E+02   -0.65710E-07   -0.48514E-08    48   0.154E-03    0.168E-04
DAV:   6    -0.356434235851E+02   -0.60822E-07   -0.29180E-08    48   0.690E-04
  40 F= -.35643424E+02 E0= -.35643424E+02  d E =-.200215E-05
       N       E                     dE             d eps       ncg     rms          rms(c)
DAV:   1    -0.356434237208E+02   -0.19652E-06   -0.22303E-05    48   0.462E-02    0.188E-03
DAV:   2    -0.356434238084E+02   -0.87604E-07   -0.13632E-06    48   0.114E-02    0.102E-03
DAV:   3    -0.356434238335E+02   -0.25110E-07   -0.17861E-07    48   0.375E-03    0.663E-04
DAV:   4    -0.356434238990E+02   -0.65452E-07   -0.11440E-07    88   0.319E-03    0.188E-04
DAV:   5    -0.356434239257E+02   -0.26701E-07   -0.52793E-08    48   0.152E-03    0.170E-04
DAV:   6    -0.356434239489E+02   -0.23186E-07   -0.33236E-08    48   0.687E-04
  41 F= -.35643424E+02 E0= -.35643424E+02  d E =-.363749E-06
       N       E                     dE             d eps       ncg     rms          rms(c)
DAV:   1    -0.356434240662E+02   -0.14050E-06   -0.10291E-07    48   0.266E-03    0.942E-05
DAV:   2    -0.356434240868E+02   -0.20656E-07   -0.34343E-08    48   0.632E-04    0.542E-05
DAV:   3    -0.356434241048E+02   -0.17927E-07   -0.31205E-08    48   0.203E-04    0.376E-05
DAV:   4    -0.356434241394E+02   -0.34631E-07   -0.31925E-08    52   0.135E-04    0.943E-06
DAV:   5    -0.356434241521E+02   -0.12725E-07   -0.32030E-08    48   0.676E-05    0.743E-06
DAV:   6    -0.356434241650E+02   -0.12912E-07   -0.32350E-08    48   0.470E-05
  42 F= -.35643424E+02 E0= -.35643424E+02  d E =-.216161E-06
       N       E                     dE             d eps       ncg     rms          rms(c)
DAV:   1    -0.356434242836E+02   -0.13153E-06   -0.32140E-07    48   0.524E-03    0.233E-04
DAV:   2    -0.356434242920E+02   -0.83103E-08   -0.50787E-08    48   0.132E-03    0.126E-04
DAV:   3    -0.356434242962E+02   -0.42710E-08   -0.35014E-08    48   0.434E-04    0.814E-05
DAV:   4    -0.356434243025E+02   -0.63208E-08   -0.35029E-08    48   0.408E-04    0.264E-05
DAV:   5    -0.356434243040E+02   -0.14470E-08   -0.33994E-08    48   0.194E-04    0.212E-05
DAV:   6    -0.356434243055E+02   -0.15493E-08   -0.33834E-08    48   0.860E-05
  43 F= -.35643424E+02 E0= -.35643424E+02  d E =-.140518E-06
       N       E                     dE             d eps       ncg     rms          rms(c)
DAV:   1    -0.356434244208E+02   -0.11678E-06   -0.58024E-07    48   0.721E-03    0.321E-04
DAV:   2    -0.356434244267E+02   -0.59556E-08   -0.67932E-08    48   0.182E-03    0.174E-04
DAV:   3    -0.356434244275E+02   -0.75579E-09   -0.37870E-08    48   0.599E-04    0.112E-04
DAV:   4    -0.356434244288E+02   -0.12903E-08   -0.37168E-08    48   0.568E-04    0.366E-05
DAV:   5    -0.356434244288E+02    0.22510E-10   -0.35127E-08    48   0.272E-04    0.299E-05
DAV:   6    -0.356434244290E+02   -0.24988E-09   -0.34560E-08    48   0.118E-04
  44 F= -.35643424E+02 E0= -.35643424E+02  d E =-.123464E-06
       N       E                     dE             d eps       ncg     rms          rms(c)
DAV:   1    -0.356434245165E+02   -0.87775E-07   -0.80460E-07    48   0.858E-03    0.360E-04
DAV:   2    -0.356434245219E+02   -0.54174E-08   -0.81405E-08    48   0.216E-03    0.201E-04
DAV:   3    -0.356434245224E+02   -0.46157E-09   -0.39722E-08    48   0.708E-04    0.130E-04
DAV:   4    -0.356434245228E+02   -0.34311E-09   -0.38290E-08    48   0.659E-04    0.421E-05
DAV:   5    -0.356434245226E+02    0.11391E-09   -0.35523E-08    48   0.316E-04    0.359E-05
DAV:   6    -0.356434245228E+02   -0.11391E-09   -0.34717E-08    48   0.140E-04
  45 F= -.35643425E+02 E0= -.35643425E+02  d E =-.937475E-07
       N       E                     dE             d eps       ncg     rms          rms(c)
DAV:   1    -0.356434245605E+02   -0.37863E-07   -0.99650E-07    48   0.957E-03    0.344E-04
DAV:   2    -0.356434245665E+02   -0.59870E-08   -0.90827E-08    48   0.239E-03    0.208E-04
DAV:   3    -0.356434245669E+02   -0.42769E-09   -0.40786E-08    48   0.772E-04    0.140E-04
DAV:   4    -0.356434245670E+02   -0.62528E-10   -0.38166E-08    48   0.653E-04    0.423E-05
DAV:   5    -0.356434245671E+02   -0.15143E-09   -0.35417E-08    48   0.313E-04    0.383E-05
DAV:   6    -0.356434245672E+02   -0.93451E-10   -0.34645E-08    48   0.150E-04
  46 F= -.35643425E+02 E0= -.35643425E+02  d E =-.444713E-07
       N       E                     dE             d eps       ncg     rms          rms(c)
DAV:   1    -0.356434245484E+02    0.18775E-07   -0.13142E-06    48   0.109E-02    0.320E-04
DAV:   2    -0.356434245554E+02   -0.70953E-08   -0.10561E-07    48   0.269E-03    0.207E-04
DAV:   3    -0.356434245562E+02   -0.74851E-09   -0.42348E-08    48   0.846E-04    0.147E-04
DAV:   4    -0.356434245565E+02   -0.29672E-09   -0.37499E-08    48   0.599E-04    0.472E-05
DAV:   5    -0.356434245566E+02   -0.10755E-09   -0.35320E-08    48   0.296E-04    0.383E-05
DAV:   6    -0.356434245568E+02   -0.19531E-09   -0.34462E-08    48   0.148E-04
  47 F= -.35643425E+02 E0= -.35643425E+02  d E =0.104254E-07
       N       E                     dE             d eps       ncg     rms          rms(c)
DAV:   1    -0.356434244727E+02    0.83886E-07   -0.26130E-06    48   0.150E-02    0.379E-04
DAV:   2    -0.356434244847E+02   -0.11992E-07   -0.16855E-07    48   0.368E-03    0.243E-04
DAV:   3    -0.356434244865E+02   -0.17453E-08   -0.49809E-08    48   0.113E-03    0.160E-04
DAV:   4    -0.356434244871E+02   -0.68462E-09   -0.38813E-08    48   0.662E-04    0.481E-05
DAV:   5    -0.356434244873E+02   -0.14006E-09   -0.35550E-08    48   0.321E-04    0.410E-05
DAV:   6    -0.356434244874E+02   -0.14893E-09   -0.34410E-08    48   0.169E-04
  48 F= -.35643424E+02 E0= -.35643424E+02  d E =0.693705E-07
       N       E                     dE             d eps       ncg     rms          rms(c)
DAV:   1    -0.356434243207E+02    0.16658E-06   -0.61270E-06    48   0.226E-02    0.526E-04
DAV:   2    -0.356434243460E+02   -0.25305E-07   -0.33700E-07    48   0.552E-03    0.331E-04
DAV:   3    -0.356434243502E+02   -0.41566E-08   -0.69348E-08    48   0.164E-03    0.176E-04
DAV:   4    -0.356434243512E+02   -0.10016E-08   -0.42962E-08    48   0.818E-04    0.467E-05
DAV:   5    -0.356434243517E+02   -0.52114E-09   -0.36628E-08    48   0.393E-04    0.440E-05
DAV:   6    -0.356434243520E+02   -0.29399E-09   -0.34500E-08    48   0.219E-04
  49 F= -.35643424E+02 E0= -.35643424E+02  d E =0.135448E-06
       N       E                     dE             d eps       ncg     rms          rms(c)
DAV:   1    -0.356434240901E+02    0.26154E-06   -0.13327E-05    48   0.332E-02    0.759E-04
DAV:   2    -0.356434241425E+02   -0.52348E-07   -0.68653E-07    48   0.807E-03    0.476E-04
DAV:   3    -0.356434241510E+02   -0.85083E-08   -0.10956E-07    48   0.238E-03    0.229E-04
DAV:   4    -0.356434241529E+02   -0.19418E-08   -0.52242E-08    48   0.112E-03    0.602E-05
DAV:   5    -0.356434241539E+02   -0.91018E-09   -0.39379E-08    48   0.547E-04    0.530E-05
DAV:   6    -0.356434241544E+02   -0.56775E-09   -0.35107E-08    48   0.313E-04
  50 F= -.35643424E+02 E0= -.35643424E+02  d E =0.197554E-06
       N       E                     dE             d eps       ncg     rms          rms(c)
DAV:   1    -0.356434237470E+02    0.40682E-06   -0.26955E-05    48   0.472E-02    0.109E-03
DAV:   2    -0.356434238524E+02   -0.10535E-06   -0.13554E-06    48   0.115E-02    0.683E-04
DAV:   3    -0.356434238685E+02   -0.16145E-07   -0.18770E-07    48   0.339E-03    0.339E-04
DAV:   4    -0.356434238717E+02   -0.32096E-08   -0.71299E-08    48   0.160E-03    0.889E-05
DAV:   5    -0.356434238739E+02   -0.21660E-08   -0.45318E-08    48   0.785E-04    0.761E-05
DAV:   6    -0.356434238745E+02   -0.57821E-09   -0.36560E-08    48   0.444E-04
  51 F= -.35643424E+02 E0= -.35643424E+02  d E =0.279942E-06
       N       E                     dE             d eps       ncg     rms          rms(c)
DAV:   1    -0.356434232028E+02    0.67113E-06   -0.50830E-05    48   0.648E-02    0.150E-03
DAV:   2    -0.356434234026E+02   -0.19983E-06   -0.25322E-06    48   0.157E-02    0.947E-04
DAV:   3    -0.356434234320E+02   -0.29433E-07   -0.32591E-07    48   0.467E-03    0.487E-04
DAV:   4    -0.356434234380E+02   -0.60127E-08   -0.10596E-07    48   0.224E-03    0.127E-04
DAV:   5    -0.356434234418E+02   -0.37044E-08   -0.56371E-08    48   0.109E-03    0.109E-04
DAV:   6    -0.356434234429E+02   -0.11833E-08   -0.39573E-08    48   0.612E-04
  52 F= -.35643423E+02 E0= -.35643423E+02  d E =0.431547E-06
       N       E                     dE             d eps       ncg     rms          rms(c)
DAV:   1    -0.356434223278E+02    0.11140E-05   -0.90141E-05    48   0.863E-02    0.200E-03
DAV:   2    -0.356434226871E+02   -0.35935E-06   -0.44626E-06    48   0.209E-02    0.126E-03
DAV:   3    -0.356434227419E+02   -0.54715E-07   -0.55213E-07    48   0.621E-03    0.640E-04
DAV:   4    -0.356434227526E+02   -0.10694E-07   -0.16245E-07    48   0.298E-03    0.167E-04
DAV:   5    -0.356434227585E+02   -0.59142E-08   -0.74560E-08    48   0.146E-03    0.144E-04
DAV:   6    -0.356434227607E+02   -0.22003E-08   -0.44836E-08    48   0.816E-04
  53 F= -.35643423E+02 E0= -.35643423E+02  d E =0.682272E-06
       N       E                     dE             d eps       ncg     rms          rms(c)
DAV:   1    -0.356434217683E+02    0.99013E-06   -0.15919E-04    96   0.112E-01    0.267E-03
DAV:   2    -0.356434217801E+02   -0.11812E-07   -0.17896E-06    48   0.114E-02    0.169E-03
DAV:   3    -0.356434217936E+02   -0.13438E-07   -0.30133E-07    48   0.477E-03    0.461E-04
DAV:   4    -0.356434218069E+02   -0.13343E-07   -0.10192E-07    48   0.218E-03    0.192E-04
DAV:   5    -0.356434218158E+02   -0.88678E-08   -0.49529E-08    48   0.104E-03    0.702E-05
DAV:   6    -0.356434218233E+02   -0.74824E-08   -0.37002E-08    48   0.570E-04
  54 F= -.35643422E+02 E0= -.35643422E+02  d E =0.937387E-06
       N       E                     dE             d eps       ncg     rms          rms(c)
DAV:   1    -0.356434206414E+02    0.11744E-05   -0.26035E-04    96   0.143E-01    0.339E-03
DAV:   2    -0.356434206851E+02   -0.43697E-07   -0.28774E-06    48   0.145E-02    0.215E-03
DAV:   3    -0.356434207185E+02   -0.33406E-07   -0.45756E-07    48   0.599E-03    0.573E-04
DAV:   4    -0.356434207403E+02   -0.21871E-07   -0.14005E-07    48   0.270E-03    0.233E-04
DAV:   5    -0.356434207530E+02   -0.12630E-07   -0.59068E-08    48   0.129E-03    0.852E-05
DAV:   6    -0.356434207639E+02   -0.10987E-07   -0.39541E-08    48   0.709E-04
  55 F= -.35643421E+02 E0= -.35643421E+02  d E =0.105933E-05
       N       E                     dE             d eps       ncg     rms          rms(c)
DAV:   1    -0.356434193535E+02    0.13994E-05   -0.41637E-04    96   0.181E-01    0.431E-03
DAV:   2    -0.356434194386E+02   -0.85117E-07   -0.46162E-06    48   0.184E-02    0.273E-03
DAV:   3    -0.356434194925E+02   -0.53846E-07   -0.71986E-07    48   0.763E-03    0.754E-04
DAV:   4    -0.356434195271E+02   -0.34631E-07   -0.21010E-07    48   0.348E-03    0.311E-04
DAV:   5    -0.356434195435E+02   -0.16429E-07   -0.76331E-08    48   0.165E-03    0.117E-04
DAV:   6    -0.356434195588E+02   -0.15273E-07   -0.44762E-08    48   0.914E-04
  56 F= -.35643420E+02 E0= -.35643420E+02  d E =0.120513E-05
       N       E                     dE             d eps       ncg     rms          rms(c)
DAV:   1    -0.356434177716E+02    0.17720E-05   -0.64712E-04    96   0.226E-01    0.537E-03
DAV:   2    -0.356434179169E+02   -0.14528E-06   -0.71317E-06    52   0.229E-02    0.340E-03
DAV:   3    -0.356434179999E+02   -0.83072E-07   -0.10999E-06    48   0.951E-03    0.935E-04
DAV:   4    -0.356434180523E+02   -0.52345E-07   -0.31020E-07    48   0.434E-03    0.386E-04
DAV:   5    -0.356434180766E+02   -0.24329E-07   -0.10200E-07    48   0.205E-03    0.145E-04
DAV:   6    -0.356434180991E+02   -0.22528E-07   -0.53097E-08    48   0.114E-03
  57 F= -.35643418E+02 E0= -.35643418E+02  d E =0.145969E-05
       N       E                     dE             d eps       ncg     rms          rms(c)
DAV:   1    -0.356434157658E+02    0.23108E-05   -0.97532E-04    96   0.277E-01    0.656E-03
DAV:   2    -0.356434160075E+02   -0.24178E-06   -0.10610E-05    52   0.279E-02    0.416E-03
DAV:   3    -0.356434161392E+02   -0.13167E-06   -0.16151E-06    60   0.116E-02    0.108E-03
DAV:   4    -0.356434162149E+02   -0.75735E-07   -0.43982E-07    48   0.521E-03    0.431E-04
DAV:   5    -0.356434162521E+02   -0.37103E-07   -0.13860E-07    48   0.248E-03    0.154E-04
DAV:   6    -0.356434162831E+02   -0.31033E-07   -0.65159E-08    48   0.137E-03
  58 F= -.35643416E+02 E0= -.35643416E+02  d E =0.181604E-05
       N       E                     dE             d eps       ncg     rms          rms(c)
DAV:   1    -0.356434134399E+02    0.28121E-05   -0.14435E-03    96   0.337E-01    0.799E-03
DAV:   2    -0.356434138254E+02   -0.38542E-06   -0.15765E-05    64   0.341E-02    0.507E-03
DAV:   3    -0.356434140174E+02   -0.19204E-06   -0.23853E-06    48   0.141E-02    0.135E-03
DAV:   4    -0.356434141319E+02   -0.11451E-06   -0.64652E-07    48   0.641E-03    0.528E-04
DAV:   5    -0.356434141838E+02   -0.51925E-07   -0.19487E-07    48   0.306E-03    0.192E-04
DAV:   6    -0.356434142252E+02   -0.41326E-07   -0.84504E-08    48   0.167E-03
  59 F= -.35643414E+02 E0= -.35643414E+02  d E =0.205793E-05
       N       E                     dE             d eps       ncg     rms          rms(c)
DAV:   1    -0.356434107787E+02    0.34051E-05   -0.20844E-03    96   0.405E-01    0.958E-03
DAV:   2    -0.356434113847E+02   -0.60598E-06   -0.22709E-05    64   0.409E-02    0.608E-03
DAV:   3    -0.356434116714E+02   -0.28666E-06   -0.34243E-06    48   0.169E-02    0.160E-03
DAV:   4    -0.356434118321E+02   -0.16072E-06   -0.91294E-07    48   0.765E-03    0.629E-04
DAV:   5    -0.356434119024E+02   -0.70309E-07   -0.26861E-07    48   0.365E-03    0.230E-04
DAV:   6    -0.356434119573E+02   -0.54886E-07   -0.11015E-07    48   0.200E-03
  60 F= -.35643412E+02 E0= -.35643412E+02  d E =0.226788E-05
       N       E                     dE             d eps       ncg     rms          rms(c)
DAV:   1    -0.356434083660E+02    0.35364E-05   -0.29327E-03    96   0.480E-01    0.114E-02
DAV:   2    -0.356434092463E+02   -0.88025E-06   -0.31949E-05    64   0.485E-02    0.725E-03
DAV:   3    -0.356434096531E+02   -0.40685E-06   -0.48431E-06    64   0.201E-02    0.190E-03
DAV:   4    -0.356434098768E+02   -0.22371E-06   -0.12755E-06    48   0.907E-03    0.771E-04
DAV:   5    -0.356434099708E+02   -0.94024E-07   -0.36393E-07    48   0.430E-03    0.283E-04
DAV:   6    -0.356434100460E+02   -0.75155E-07   -0.14404E-07    48   0.237E-03
  61 F= -.35643410E+02 E0= -.35643410E+02  d E =0.191129E-05
       N       E                     dE             d eps       ncg     rms          rms(c)
DAV:   1    -0.356434058252E+02    0.41456E-05   -0.40201E-03    96   0.561E-01    0.134E-02
DAV:   2    -0.356434070343E+02   -0.12091E-05   -0.43881E-05    64   0.568E-02    0.848E-03
DAV:   3    -0.356434075712E+02   -0.53690E-06   -0.66197E-06    64   0.235E-02    0.222E-03
DAV:   4    -0.356434078807E+02   -0.30945E-06   -0.17369E-06    48   0.106E-02    0.877E-04
DAV:   5    -0.356434080183E+02   -0.13759E-06   -0.49342E-07    48   0.506E-03    0.322E-04
DAV:   6    -0.356434081230E+02   -0.10475E-06   -0.18847E-07    48   0.276E-03
  62 F= -.35643408E+02 E0= -.35643408E+02  d E =0.192296E-05
       N       E                     dE             d eps       ncg     rms          rms(c)
DAV:   1    -0.356434026660E+02    0.53523E-05   -0.53769E-03    96   0.648E-01    0.155E-02
DAV:   2    -0.356434042843E+02   -0.16183E-05   -0.58707E-05    64   0.657E-02    0.985E-03
DAV:   3    -0.356434050027E+02   -0.71838E-06   -0.88707E-06    64   0.272E-02    0.255E-03
DAV:   4    -0.356434054212E+02   -0.41847E-06   -0.23162E-06    48   0.123E-02    0.101E-03
DAV:   5    -0.356434056079E+02   -0.18669E-06   -0.65304E-07    48   0.584E-03    0.366E-04
DAV:   6    -0.356434057430E+02   -0.13514E-06   -0.24560E-07    48   0.319E-03
  63 F= -.35643406E+02 E0= -.35643406E+02  d E =0.238004E-05
       N       E                     dE             d eps       ncg     rms          rms(c)
DAV:   1    -0.356433987800E+02    0.68278E-05   -0.69414E-03    96   0.736E-01    0.178E-02
DAV:   2    -0.356434008359E+02   -0.20558E-05   -0.76300E-05    64   0.747E-02    0.113E-02
DAV:   3    -0.356434017145E+02   -0.87868E-06   -0.11659E-05    64   0.313E-02    0.305E-03
DAV:   4    -0.356434022797E+02   -0.56518E-06   -0.30651E-06    48   0.142E-02    0.127E-03
DAV:   5    -0.356434025120E+02   -0.23225E-06   -0.83587E-07    48   0.669E-03    0.473E-04
DAV:   6    -0.356434026899E+02   -0.17791E-06   -0.31439E-07    48   0.371E-03
  64 F= -.35643403E+02 E0= -.35643403E+02  d E =0.305311E-05
       N       E                     dE             d eps       ncg     rms          rms(c)
DAV:   1    -0.356433912014E+02    0.11311E-04   -0.84122E-03    96   0.815E-01    0.205E-02
DAV:   2    -0.356433930425E+02   -0.18411E-05   -0.97822E-05    64   0.860E-02    0.128E-02
DAV:   3    -0.356433935971E+02   -0.55456E-06   -0.15347E-05    80   0.364E-02    0.443E-03
DAV:   4    -0.356433944762E+02   -0.87908E-06   -0.45260E-06    48   0.182E-02    0.177E-03
DAV:   5    -0.356433947953E+02   -0.31912E-06   -0.11272E-06    48   0.843E-03    0.676E-04
DAV:   6    -0.356433950328E+02   -0.23745E-06   -0.39371E-07    48   0.440E-03
  65 F= -.35643395E+02 E0= -.35643395E+02  d E =0.765713E-05
       N       E                     dE             d eps       ncg     rms          rms(c)
DAV:   1    -0.356433782257E+02    0.16570E-04   -0.10778E-02    96   0.937E-01    0.257E-02
DAV:   2    -0.356433816103E+02   -0.33847E-05   -0.16972E-04    96   0.106E-01    0.167E-02
DAV:   3    -0.356433790699E+02    0.25405E-05   -0.92602E-06    96   0.322E-02    0.842E-03
DAV:   4    -0.356433803151E+02   -0.12452E-05   -0.70276E-06    96   0.251E-02    0.248E-03
DAV:   5    -0.356433805692E+02   -0.25406E-06   -0.14380E-06    56   0.117E-02    0.122E-03
DAV:   6    -0.356433808122E+02   -0.24307E-06   -0.34185E-07    48   0.500E-03
  66 F= -.35643381E+02 E0= -.35643381E+02  d E =0.142205E-04
       N       E                     dE             d eps       ncg     rms          rms(c)
DAV:   1    -0.356433956402E+02   -0.15071E-04   -0.35788E-04    80   0.180E-01    0.987E-03
DAV:   2    -0.356433948058E+02    0.83445E-06   -0.81511E-06    80   0.284E-02    0.448E-03
DAV:   3    -0.356433947181E+02    0.87616E-07   -0.24006E-06    64   0.156E-02    0.201E-03
DAV:   4    -0.356433950188E+02   -0.30063E-06   -0.10916E-06    80   0.981E-03    0.708E-04
DAV:   5    -0.356433952483E+02   -0.22956E-06   -0.23086E-07    48   0.439E-03    0.322E-04
DAV:   6    -0.356433954336E+02   -0.18531E-06   -0.57583E-08    48   0.191E-03
  67 F= -.35643395E+02 E0= -.35643395E+02  d E =-.146214E-04
       N       E                     dE             d eps       ncg     rms          rms(c)
DAV:   1    -0.356433903847E+02    0.48636E-05   -0.51821E-04   112   0.216E-01    0.116E-02
DAV:   2    -0.356433889096E+02    0.14751E-05   -0.12091E-05    64   0.341E-02    0.531E-03
DAV:   3    -0.356433885393E+02    0.37032E-06   -0.34581E-06    96   0.185E-02    0.234E-03
DAV:   4    -0.356433886455E+02   -0.10618E-06   -0.15413E-06    64   0.117E-02    0.823E-04
DAV:   5    -0.356433887110E+02   -0.65561E-07   -0.31581E-07    48   0.516E-03    0.390E-04
DAV:   6    -0.356433887676E+02   -0.56612E-07   -0.77425E-08    56   0.221E-03
  68 F= -.35643389E+02 E0= -.35643389E+02  d E =0.666600E-05
       N       E                     dE             d eps       ncg     rms          rms(c)
DAV:   1    -0.356433913078E+02   -0.25967E-05   -0.11025E-05    48   0.324E-02    0.148E-03
DAV:   2    -0.356433914102E+02   -0.10245E-06   -0.68601E-07    48   0.793E-03    0.753E-04
DAV:   3    -0.356433914609E+02   -0.50664E-07   -0.10051E-07    48   0.261E-03    0.483E-04
DAV:   4    -0.356433915605E+02   -0.99582E-07   -0.77243E-08    76   0.231E-03    0.148E-04
DAV:   5    -0.356433915932E+02   -0.32739E-07   -0.42512E-08    48   0.108E-03    0.121E-04
DAV:   6    -0.356433916299E+02   -0.36733E-07   -0.33578E-08    48   0.494E-04
  69 F= -.35643392E+02 E0= -.35643392E+02  d E =-.286229E-05
       N       E                     dE             d eps       ncg     rms          rms(c)
DAV:   1    -0.356433947096E+02   -0.31164E-05   -0.37022E-05    48   0.593E-02    0.258E-03
DAV:   2    -0.356433948743E+02   -0.16473E-06   -0.22639E-06    68   0.147E-02    0.137E-03
DAV:   3    -0.356433948875E+02   -0.13168E-07   -0.27386E-07    48   0.482E-03    0.893E-04
DAV:   4    -0.356433949244E+02   -0.36980E-07   -0.19271E-07    88   0.434E-03    0.270E-04
DAV:   5    -0.356433949373E+02   -0.12820E-07   -0.72803E-08    48   0.207E-03    0.222E-04
DAV:   6    -0.356433949485E+02   -0.11281E-07   -0.38640E-08    48   0.909E-04
  70 F= -.35643395E+02 E0= -.35643395E+02  d E =-.331862E-05
       N       E                     dE             d eps       ncg     rms          rms(c)
DAV:   1    -0.356433962131E+02   -0.12758E-05   -0.59991E-05    48   0.754E-02    0.303E-03
DAV:   2    -0.356433963936E+02   -0.18058E-06   -0.36163E-06    92   0.187E-02    0.169E-03
DAV:   3    -0.356433963682E+02    0.25454E-07   -0.42813E-07    48   0.612E-03    0.111E-03
DAV:   4    -0.356433963514E+02    0.16761E-07   -0.27208E-07    72   0.529E-03    0.329E-04
DAV:   5    -0.356433963546E+02   -0.31384E-08   -0.96765E-08    48   0.253E-03    0.285E-04
DAV:   6    -0.356433963594E+02   -0.48540E-08   -0.44158E-08    48   0.115E-03
  71 F= -.35643396E+02 E0= -.35643396E+02  d E =-.141087E-05
       N       E                     dE             d eps       ncg     rms          rms(c)
DAV:   1    -0.356433951164E+02    0.12382E-05   -0.66061E-05    48   0.787E-02    0.270E-03
DAV:   2    -0.356433953249E+02   -0.20846E-06   -0.38578E-06    48   0.194E-02    0.163E-03
DAV:   3    -0.356433953142E+02    0.10665E-07   -0.46309E-07    48   0.625E-03    0.111E-03
DAV:   4    -0.356433953040E+02    0.10144E-07   -0.23824E-07    48   0.487E-03    0.326E-04
DAV:   5    -0.356433953098E+02   -0.57853E-08   -0.94609E-08    48   0.235E-03    0.284E-04
DAV:   6    -0.356433953173E+02   -0.74442E-08   -0.44146E-08    48   0.113E-03
  72 F= -.35643395E+02 E0= -.35643395E+02  d E =0.104214E-05
       N       E                     dE             d eps       ncg     rms          rms(c)
DAV:   1    -0.356433930621E+02    0.22477E-05   -0.58960E-05    48   0.727E-02    0.204E-03
DAV:   2    -0.356433932905E+02   -0.22835E-06   -0.32139E-06    48   0.178E-02    0.128E-03
DAV:   3    -0.356433933121E+02   -0.21663E-07   -0.40270E-07    48   0.555E-03    0.882E-04
DAV:   4    -0.356433933210E+02   -0.88976E-08   -0.15571E-07    48   0.360E-03    0.263E-04
DAV:   5    -0.356433933313E+02   -0.10241E-07   -0.75016E-08    48   0.178E-03    0.213E-04
DAV:   6    -0.356433933406E+02   -0.93253E-08   -0.40402E-08    48   0.891E-04
  73 F= -.35643393E+02 E0= -.35643393E+02  d E =0.197669E-05
       N       E                     dE             d eps       ncg     rms          rms(c)
DAV:   1    -0.356433921004E+02    0.12309E-05   -0.59996E-05    48   0.706E-02    0.163E-03
DAV:   2    -0.356433923521E+02   -0.25178E-06   -0.29672E-06    48   0.171E-02    0.101E-03
DAV:   3    -0.356433924010E+02   -0.48852E-07   -0.37700E-07    48   0.509E-03    0.506E-04
DAV:   4    -0.356433924209E+02   -0.19909E-07   -0.11867E-07    48   0.247E-03    0.130E-04
DAV:   5    -0.356433924301E+02   -0.91793E-08   -0.58861E-08    48   0.121E-03    0.122E-04
DAV:   6    -0.356433924376E+02   -0.75404E-08   -0.38788E-08    48   0.679E-04
  74 F= -.35643392E+02 E0= -.35643392E+02  d E =0.902971E-06
