 vasp.5.4.1 24Jun15 (build Jan 13 2020 12:58:22) complex                        
  
 executed on           IFC91_ompi date 2020.02.05  18:18:08
 running on   15 total cores
 each image running on    1 cores
 distrk:  each k-point on    1 cores,    1 groups
 distr:  one band on NCORES_PER_BAND=   1 cores,    1 groups


--------------------------------------------------------------------------------------------------------


 INCAR:
 POTCAR:    PAW_PBE H 15Jun2001                   
 POTCAR:    PAW_PBE C 08Apr2002                   
 POTCAR:    PAW_PBE N 08Apr2002                   
 POTCAR:    PAW_PBE H 15Jun2001                   
   VRHFIN =H: ultrasoft test                                                    
   LEXCH  = PE                                                                  
   EATOM  =    12.4884 eV,    0.9179 Ry                                         
                                                                                
   TITEL  = PAW_PBE H 15Jun2001                                                 
   LULTRA =        F    use ultrasoft PP ?                                      
   IUNSCR =        0    unscreen: 0-lin 1-nonlin 2-no                           
   RPACOR =    0.000    partial core radius                                     
   POMASS =    1.000; ZVAL   =    1.000    mass and valenz                      
   RCORE  =    1.100    outmost cutoff radius                                   
   RWIGS  =    0.700; RWIGS  =    0.370    wigner-seitz radius (au A)           
   ENMAX  =  250.000; ENMIN  =  200.000 eV                                      
   RCLOC  =    0.701    cutoff for local pot                                    
   LCOR   =        T    correct aug charges                                     
   LPAW   =        T    paw PP                                                  
   EAUG   =  400.000                                                            
   RMAX   =    1.123    core radius for proj-oper                               
   RAUG   =    1.200    factor for augmentation sphere                          
   RDEP   =    1.112    radius for radial grids                                 
   RDEPT  =    0.926    core radius for aug-charge                              
                                                                                
   Atomic configuration                                                         
    2 entries                                                                   
     n  l   j            E        occ.                                          
     1  0  0.50        -6.4927   1.0000                                         
     2  1  0.50        -3.4015   0.0000                                         
   Description                                                                  
     l       E           TYP  RCUT    TYP  RCUT                                 
     0     -6.4927494     23  1.100                                             
     0      6.8029130     23  1.100                                             
     1     -4.0817478     23  1.100                                             
  local pseudopotential read in
  atomic valenz-charges read in
  non local Contribution for L=           0  read in
    real space projection operators read in
  non local Contribution for L=           0  read in
    real space projection operators read in
  non local Contribution for L=           1  read in
    real space projection operators read in
    PAW grid and wavefunctions read in
 
   number of l-projection  operators is LMAX  =           3
   number of lm-projection operators is LMMAX =           5
 
 POTCAR:    PAW_PBE C 08Apr2002                   
   VRHFIN =C: s2p2                                                              
   LEXCH  = PE                                                                  
   EATOM  =   147.1560 eV,   10.8157 Ry                                         
                                                                                
   TITEL  = PAW_PBE C 08Apr2002                                                 
   LULTRA =        F    use ultrasoft PP ?                                      
   IUNSCR =        1    unscreen: 0-lin 1-nonlin 2-no                           
   RPACOR =    1.200    partial core radius                                     
   POMASS =   12.011; ZVAL   =    4.000    mass and valenz                      
   RCORE  =    1.500    outmost cutoff radius                                   
   RWIGS  =    1.630; RWIGS  =    0.863    wigner-seitz radius (au A)           
   ENMAX  =  400.000; ENMIN  =  300.000 eV                                      
   ICORE  =        2    local potential                                         
   LCOR   =        T    correct aug charges                                     
   LPAW   =        T    paw PP                                                  
   EAUG   =  644.873                                                            
   DEXC   =    0.000                                                            
   RMAX   =    1.529    core radius for proj-oper                               
   RAUG   =    1.300    factor for augmentation sphere                          
   RDEP   =    1.501    radius for radial grids                                 
   RDEPT  =    1.300    core radius for aug-charge                              
                                                                                
   Atomic configuration                                                         
    4 entries                                                                   
     n  l   j            E        occ.                                          
     1  0  0.50      -273.3789   2.0000                                         
     2  0  0.50       -13.7508   2.0000                                         
     2  1  0.50        -5.2854   2.0000                                         
     3  2  1.50        -5.4423   0.0000                                         
   Description                                                                  
     l       E           TYP  RCUT    TYP  RCUT                                 
     0    -13.7508458     23  1.200                                             
     0     -8.2022199     23  1.200                                             
     1     -5.2854383     23  1.500                                             
     1     34.0145650     23  1.500                                             
     2     -5.4423304      7  1.500                                             
  local pseudopotential read in
  partial core-charges read in
  partial kinetic energy density read in
  atomic valenz-charges read in
  non local Contribution for L=           0  read in
    real space projection operators read in
  non local Contribution for L=           0  read in
    real space projection operators read in
  non local Contribution for L=           1  read in
    real space projection operators read in
  non local Contribution for L=           1  read in
    real space projection operators read in
    PAW grid and wavefunctions read in
 
   number of l-projection  operators is LMAX  =           4
   number of lm-projection operators is LMMAX =           8
 
 POTCAR:    PAW_PBE N 08Apr2002                   
   VRHFIN =N: s2p3                                                              
   LEXCH  = PE                                                                  
   EATOM  =   264.5486 eV,   19.4438 Ry                                         
                                                                                
   TITEL  = PAW_PBE N 08Apr2002                                                 
   LULTRA =        F    use ultrasoft PP ?                                      
   IUNSCR =        1    unscreen: 0-lin 1-nonlin 2-no                           
   RPACOR =    1.200    partial core radius                                     
   POMASS =   14.001; ZVAL   =    5.000    mass and valenz                      
   RCORE  =    1.500    outmost cutoff radius                                   
   RWIGS  =    1.400; RWIGS  =    0.741    wigner-seitz radius (au A)           
   ENMAX  =  400.000; ENMIN  =  300.000 eV                                      
   ICORE  =        2    local potential                                         
   LCOR   =        T    correct aug charges                                     
   LPAW   =        T    paw PP                                                  
   EAUG   =  627.112                                                            
   DEXC   =    0.000                                                            
   RMAX   =    1.529    core radius for proj-oper                               
   RAUG   =    1.300    factor for augmentation sphere                          
   RDEP   =    1.514    radius for radial grids                                 
   RDEPT  =    1.338    core radius for aug-charge                              
                                                                                
   Atomic configuration                                                         
    4 entries                                                                   
     n  l   j            E        occ.                                          
     1  0  0.50      -384.7179   2.0000                                         
     2  0  0.50       -18.5828   2.0000                                         
     2  1  0.50        -7.0898   3.0000                                         
     3  2  1.50        -6.8029   0.0000                                         
   Description                                                                  
     l       E           TYP  RCUT    TYP  RCUT                                 
     0    -18.5828119     23  1.200                                             
     0    -13.5018863     23  1.200                                             
     1     -7.0897853     23  1.500                                             
     1      9.5240782     23  1.500                                             
     2     -6.8029130      7  1.500                                             
  local pseudopotential read in
  partial core-charges read in
  partial kinetic energy density read in
  atomic valenz-charges read in
  non local Contribution for L=           0  read in
    real space projection operators read in
  non local Contribution for L=           0  read in
    real space projection operators read in
  non local Contribution for L=           1  read in
    real space projection operators read in
  non local Contribution for L=           1  read in
    real space projection operators read in
    PAW grid and wavefunctions read in
 
   number of l-projection  operators is LMAX  =           4
   number of lm-projection operators is LMMAX =           8
 

 ----------------------------------------------------------------------------- 
|                                                                             |
|  ADVICE TO THIS USER RUNNING 'VASP/VAMP'   (HEAR YOUR MASTER'S VOICE ...):  |
|                                                                             |
|      You have a (more or less) 'small supercell' and for smaller cells      |
|      it is recommended  to use the reciprocal-space projection scheme!      |
|      The real space optimization is not  efficient for small cells and it   |
|      is also less accurate ...                                              |
|      Therefore set LREAL=.FALSE. in the  INCAR file                         |
|                                                                             |
 ----------------------------------------------------------------------------- 

 Optimization of the real space projectors (new method)

 maximal supplied QI-value         = 34.20
 optimisation between [QCUT,QGAM] = [  9.92, 20.18] = [ 27.55,114.04] Ry 
 Optimized for a Real-space Cutoff    1.26 Angstroem

   l    n(q)    QCUT    max X(q) W(low)/X(q) W(high)/X(q)  e(spline) 
   0      8     9.919    19.460    0.50E-03    0.23E-03    0.29E-06
   0      8     9.919    12.209    0.48E-03    0.23E-03    0.28E-06
   1      7     9.919     4.655    0.17E-03    0.75E-03    0.30E-06
 Optimization of the real space projectors (new method)

 maximal supplied QI-value         = 25.13
 optimisation between [QCUT,QGAM] = [ 10.05, 20.36] = [ 28.30,116.06] Ry 
 Optimized for a Real-space Cutoff    1.30 Angstroem

   l    n(q)    QCUT    max X(q) W(low)/X(q) W(high)/X(q)  e(spline) 
   0      8    10.053   115.676    0.49E-03    0.72E-03    0.18E-06
   0      8    10.053    87.132    0.49E-03    0.71E-03    0.18E-06
   1      7    10.053     4.429    0.32E-03    0.31E-03    0.18E-06
   1      7    10.053     2.733    0.23E-03    0.19E-03    0.20E-06
 Optimization of the real space projectors (new method)

 maximal supplied QI-value         = 25.13
 optimisation between [QCUT,QGAM] = [ 10.05, 20.36] = [ 28.30,116.06] Ry 
 Optimized for a Real-space Cutoff    1.65 Angstroem

   l    n(q)    QCUT    max X(q) W(low)/X(q) W(high)/X(q)  e(spline) 
   0     10    10.053    79.467    0.76E-04    0.72E-04    0.56E-06
   0     10    10.053    66.151    0.76E-04    0.72E-04    0.55E-06
   1     10    10.053     8.350    0.25E-03    0.92E-03    0.41E-05
   1     10    10.053     5.531    0.27E-03    0.10E-02    0.45E-05
  PAW_PBE H 15Jun2001                   :
 energy of atom  1       EATOM=  -12.4884
 kinetic energy error for atom=    0.0098 (will be added to EATOM!!)
  PAW_PBE C 08Apr2002                   :
 energy of atom  2       EATOM= -147.1560
 kinetic energy error for atom=    0.0288 (will be added to EATOM!!)
  PAW_PBE N 08Apr2002                   :
 energy of atom  3       EATOM= -264.5486
 kinetic energy error for atom=    0.0736 (will be added to EATOM!!)
 
 
 POSCAR: H3 C2 N1                                
  positions in direct lattice
  velocities in cartesian coordinates
 exchange correlation table for  LEXCH =        8
   RHO(1)=    0.500       N(1)  =     2000
   RHO(2)=  100.500       N(2)  =     4000

 VTST: version 3.2, (02/03/18)

 CHAIN: initializing optimizer
 
 OPT: Using FIRE optimizer
 OPT: FIRE, Init
 OPT: FIRE, MAXMOVE       0.20000
 OPT: FIRE, TIMESTEP      0.10000
 OPT: FIRE, FTIMEMAX      1.00000
 OPT: FIRE, FTIMEINC      1.10000
 OPT: FIRE, FTIMEDEC      0.50000
 OPT: FIRE, FALPHADEC     0.99000
 OPT: FIRE, FALPHA        0.10000
 OPT: FIRE, FNMIN         5
 
 CHAIN: Read ICHAIN            0
 CHAIN: Running the NEB
 NEB:          SPRING     -5.000000
 NEB:          LCLIMB      T
 NEB:     LTANGENTOLD      F
 NEB:           LDNEB      F
 NEB:        LDNEBORG      F
 NEB:        LNEBCELL      F
 NEB:          EFIRST      0.000000
 NEB:           ELAST      0.000000
 
 POSCAR: H3 C2 N1                                
  positions in direct lattice
  No initial velocities read in
 
 POSCAR: H3 C2 N1                                
  positions in direct lattice
  No initial velocities read in
 


--------------------------------------------------------------------------------------------------------


 ion  position               nearest neighbor table
   1  0.482  0.456  0.513-   4 1.10
   2  0.462  0.506  0.487-   4 1.10
   3  0.484  0.508  0.543-   4 1.10
   4  0.488  0.492  0.510-   1 1.10   2 1.10   3 1.10   6 1.42
   5  0.567  0.507  0.478-   6 1.18
   6  0.531  0.500  0.493-   5 1.18   4 1.42
 
  LATTYP: Found a simple cubic cell.
 ALAT       =    30.0000000000
  
  Lattice vectors:
  
 A1 = (  30.0000000000,   0.0000000000,   0.0000000000)
 A2 = (   0.0000000000,  30.0000000000,   0.0000000000)
 A3 = (   0.0000000000,   0.0000000000,  30.0000000000)


Analysis of symmetry for initial positions (statically):
=====================================================================
 Subroutine PRICEL returns:
 Original cell was already a primitive cell.
 

 Routine SETGRP: Setting up the symmetry group for a 
 simple cubic supercell.


 Subroutine GETGRP returns: Found  1 space group operations
 (whereof  1 operations were pure point group operations)
 out of a pool of 48 trial point group operations.


The static configuration has the point symmetry C_1 .


Analysis of symmetry for dynamics (positions and initial velocities):
=====================================================================
 Subroutine PRICEL returns:
 Original cell was already a primitive cell.
 

 Routine SETGRP: Setting up the symmetry group for a 
 simple cubic supercell.


 Subroutine GETGRP returns: Found  1 space group operations
 (whereof  1 operations were pure point group operations)
 out of a pool of 48 trial point group operations.


The dynamic configuration has the point symmetry C_1 .
 
 
 KPOINTS: Mo2C                                    

Automatic generation of k-mesh.
Space group operators:
 irot       det(A)        alpha          n_x          n_y          n_z        tau_x        tau_y        tau_z
    1     1.000000     0.000000     1.000000     0.000000     0.000000     0.000000     0.000000     0.000000
 
 Subroutine IBZKPT returns following result:
 ===========================================
 
 Found      4 irreducible k-points:
 
 Following reciprocal coordinates:
            Coordinates               Weight
  0.250000  0.250000  0.250000      2.000000
 -0.250000  0.250000  0.250000      2.000000
  0.250000 -0.250000  0.250000      2.000000
 -0.250000 -0.250000  0.250000      2.000000
 
 Following cartesian coordinates:
            Coordinates               Weight
  0.008333  0.008333  0.008333      2.000000
 -0.008333  0.008333  0.008333      2.000000
  0.008333 -0.008333  0.008333      2.000000
 -0.008333 -0.008333  0.008333      2.000000
 


--------------------------------------------------------------------------------------------------------




 Dimension of arrays:
   k-points           NKPTS =      4   k-points in BZ     NKDIM =      4   number of bands    NBANDS=     12
   number of dos      NEDOS =    301   number of ions     NIONS =      6
   non local maximal  LDIM  =      4   non local SUM 2l+1 LMDIM =      8
   total plane-waves  NPLWV = ******
   max r-space proj   IRMAX =   2395   max aug-charges    IRDMAX=   1738
   dimension x,y,z NGX =   150 NGY =  150 NGZ =  150
   dimension x,y,z NGXF=   300 NGYF=  300 NGZF=  300
   support grid    NGXF=   300 NGYF=  300 NGZF=  300
   ions per type =               3   2   1
 NGX,Y,Z   is equivalent  to a cutoff of   8.31,  8.31,  8.31 a.u.
 NGXF,Y,Z  is equivalent  to a cutoff of  16.62, 16.62, 16.62 a.u.


 I would recommend the setting:
   dimension x,y,z NGX =   147 NGY =  147 NGZ =  147
 SYSTEM =  unknown system                          
 POSCAR =  H3 C2 N1                                

 Startparameter for this run:
   NWRITE =      2    write-flag & timer
   PREC   = normal    normal or accurate (medium, high low for compatibility)
   ISTART =      0    job   : 0-new  1-cont  2-samecut
   ICHARG =      2    charge: 1-file 2-atom 10-const
   ISPIN  =      1    spin polarized calculation?
   LNONCOLLINEAR =      F non collinear calculations
   LSORBIT =      F    spin-orbit coupling
   INIWAV =      1    electr: 0-lowe 1-rand  2-diag
   LASPH  =      F    aspherical Exc in radial PAW
   METAGGA=      F    non-selfconsistent MetaGGA calc.

 Electronic Relaxation 1
   ENCUT  =  400.0 eV  29.40 Ry    5.42 a.u.  48.92 48.92 48.92*2*pi/ulx,y,z
   ENINI  =  400.0     initial cutoff
   ENAUG  =  644.9 eV  augmentation charge cutoff
   NELM   =    500;   NELMIN=  6; NELMDL= -5     # of ELM steps 
   EDIFF  = 0.1E-03   stopping-criterion for ELM
   LREAL  =      T    real-space projection
   NLSPLINE    = F    spline interpolate recip. space projectors
   LCOMPAT=      F    compatible to vasp.4.4
   GGA_COMPAT  = T    GGA compatible to vasp.4.4-vasp.4.6
   LMAXPAW     = -100 max onsite density
   LMAXMIX     =    2 max onsite mixed and CHGCAR
   VOSKOWN=      0    Vosko Wilk Nusair interpolation
   ROPT   =   -0.00050  -0.00050  -0.00050
 Ionic relaxation
   EDIFFG = -.1E+00   stopping-criterion for IOM
   NSW    =    300    number of steps for IOM
   NBLOCK =      1;   KBLOCK =    300    inner block; outer block 
   IBRION =      3    ionic relax: 0-MD 1-quasi-New 2-CG
   NFREE  =      0    steps in history (QN), initial steepest desc. (CG)
   ISIF   =      2    stress and relaxation
   IWAVPR =     11    prediction:  0-non 1-charg 2-wave 3-comb
   ISYM   =      2    0-nonsym 1-usesym 2-fastsym
   LCORR  =      T    Harris-Foulkes like correction to forces

   POTIM  = 0.0000    time-step for ionic-motion
   TEIN   =    0.0    initial temperature
   TEBEG  =    0.0;   TEEND  =   0.0 temperature during run
   SMASS  =   2.00    Nose mass-parameter (am)
   estimated Nose-frequenzy (Omega)   =  0.12E+10 period in steps =  0.00 mass=   0.137E-25a.u.
   SCALEE = 1.0000    scale energy and forces
   NPACO  =    256;   APACO  = 16.0  distance and # of slots for P.C.
   PSTRESS=    0.0 pullay stress

  Mass of Ions in am
   POMASS =   1.00 12.01 14.00
  Ionic Valenz
   ZVAL   =   1.00  4.00  5.00
  Atomic Wigner-Seitz radii
   RWIGS  =  -1.00 -1.00 -1.00
  virtual crystal weights 
   VCA    =   1.00  1.00  1.00
   NELECT =      16.0000    total number of electrons
   NUPDOWN=      -1.0000    fix difference up-down

 DOS related values:
   EMIN   =  10.00;   EMAX   =-10.00  energy-range for DOS
   EFERMI =   0.00
   ISMEAR =     0;   SIGMA  =   0.20  broadening in eV -4-tet -1-fermi 0-gaus

 Electronic relaxation 2 (details)
   IALGO  =     38    algorithm
   LDIAG  =      T    sub-space diagonalisation (order eigenvalues)
   LSUBROT=      F    optimize rotation matrix (better conditioning)
   TURBO    =      0    0=normal 1=particle mesh
   IRESTART =      0    0=no restart 2=restart with 2 vectors
   NREBOOT  =      0    no. of reboots
   NMIN     =      0    reboot dimension
   EREF     =   0.00    reference energy to select bands
   IMIX   =      4    mixing-type and parameters
     AMIX     =   0.40;   BMIX     =  1.00
     AMIX_MAG =   1.60;   BMIX_MAG =  1.00
     AMIN     =   0.10
     WC   =   100.;   INIMIX=   1;  MIXPRE=   1;  MAXMIX= -45

 Intra band minimization:
   WEIMIN = 0.0010     energy-eigenvalue tresh-hold
   EBREAK =  0.21E-05  absolut break condition
   DEPER  =   0.30     relativ break condition  

   TIME   =   0.40     timestep for ELM

  volume/ion in A,a.u.               =    4500.00     30367.50
  Fermi-wavevector in a.u.,A,eV,Ry     =   0.137508  0.259852  0.257264  0.018908
  Thomas-Fermi vector in A             =   0.790710
 
 Write flags
   LWAVE  =      F    write WAVECAR
   LCHARG =      F    write CHGCAR
   LVTOT  =      F    write LOCPOT, total local potential
   LVHAR  =      F    write LOCPOT, Hartree potential only
   LELF   =      F    write electronic localiz. function (ELF)
   LORBIT =      0    0 simple, 1 ext, 2 COOP (PROOUT)


 Dipole corrections
   LMONO  =      F    monopole corrections only (constant potential shift)
   LDIPOL =      F    correct potential (dipole corrections)
   IDIPOL =      0    1-x, 2-y, 3-z, 4-all directions 
   EPSILON=  1.0000000 bulk dielectric constant

 Exchange correlation treatment:
   GGA     =    PE    GGA type
   LEXCH   =     8    internal setting for exchange type
   VOSKOWN=      0    Vosko Wilk Nusair interpolation
   LHFCALC =     F    Hartree Fock is set to
   LHFONE  =     F    Hartree Fock one center treatment
   AEXX    =    0.0000 exact exchange contribution

 Linear response parameters
   LEPSILON=     F    determine dielectric tensor
   LRPA    =     F    only Hartree local field effects (RPA)
   LNABLA  =     F    use nabla operator in PAW spheres
   LVEL    =     F    velocity operator in full k-point grid
   LINTERFAST=   F  fast interpolation
   KINTER  =     0    interpolate to denser k-point grid
   CSHIFT  =0.1000    complex shift for real part using Kramers Kronig
   OMEGAMAX=  -1.0    maximum frequency
   DEG_THRESHOLD= 0.2000000E-02 threshold for treating states as degnerate
   RTIME   =    0.100 relaxation time in fs

 Orbital magnetization related:
   ORBITALMAG=     F  switch on orbital magnetization
   LCHIMAG   =     F  perturbation theory with respect to B field
   DQ        =  0.001000  dq finite difference perturbation B field



--------------------------------------------------------------------------------------------------------


 quickmin algorithm: (dynamic with friction)
 charge density and potential will be updated during run
 non-spin polarized calculation
 Variant of blocked Davidson
 Davidson routine will perform the subspace rotation
 perform sub-space diagonalisation
    after iterative eigenvector-optimisation
 modified Broyden-mixing scheme, WC =      100.0
 initial mixing is a Kerker type mixing with AMIX =  0.4000 and BMIX =      1.0000
 Hartree-type preconditioning will be used
 using additional bands            4
 real space projection scheme for non local part
 use partial core corrections
 calculate Harris-corrections to forces 
   (improved forces if not selfconsistent)
 use gradient corrections 
 use of overlap-Matrix (Vanderbilt PP)
 Gauss-broadening in eV      SIGMA  =   0.20


--------------------------------------------------------------------------------------------------------


  energy-cutoff  :      400.00
  volume of cell :    27000.00
      direct lattice vectors                 reciprocal lattice vectors
    30.000000000  0.000000000  0.000000000     0.033333333  0.000000000  0.000000000
     0.000000000 30.000000000  0.000000000     0.000000000  0.033333333  0.000000000
     0.000000000  0.000000000 30.000000000     0.000000000  0.000000000  0.033333333

  length of vectors
    30.000000000 30.000000000 30.000000000     0.033333333  0.033333333  0.033333333


 
 k-points in units of 2pi/SCALE and weight: Mo2C                                    
   0.00833333  0.00833333  0.00833333       0.250
  -0.00833333  0.00833333  0.00833333       0.250
   0.00833333 -0.00833333  0.00833333       0.250
  -0.00833333 -0.00833333  0.00833333       0.250
 
 k-points in reciprocal lattice and weights: Mo2C                                    
   0.25000000  0.25000000  0.25000000       0.250
  -0.25000000  0.25000000  0.25000000       0.250
   0.25000000 -0.25000000  0.25000000       0.250
  -0.25000000 -0.25000000  0.25000000       0.250
 
 position of ions in fractional coordinates (direct lattice) 
   0.48184010  0.45606177  0.51297886
   0.46244116  0.50618555  0.48716481
   0.48425630  0.50773551  0.54265750
   0.48764897  0.49208558  0.50970424
   0.56700422  0.50655259  0.47826489
   0.53091566  0.49996957  0.49250334
 
 position of ions in cartesian coordinates  (Angst):
  14.45520292 13.68185304 15.38936568
  13.87323491 15.18556636 14.61494441
  14.52768889 15.23206540 16.27972513
  14.62946897 14.76256744 15.29112709
  17.01012674 15.19657780 14.34794680
  15.92746976 14.99908719 14.77510011
 


--------------------------------------------------------------------------------------------------------


 k-point  1 :   0.2500 0.2500 0.2500  plane waves:  490454
 k-point  2 :  -0.2500 0.2500 0.2500  plane waves:  490454
 k-point  3 :   0.2500-0.2500 0.2500  plane waves:  490454
 k-point  4 :  -0.2500-0.2500 0.2500  plane waves:  490454

 maximum and minimum number of plane-waves per node :    490454   490454

 maximum number of plane-waves:    490454
 maximum index in each direction: 
   IXMAX=   49   IYMAX=   49   IZMAX=   48
   IXMIN=  -49   IYMIN=  -49   IZMIN=  -49

 WARNING: aliasing errors must be expected set NGX to 198 to avoid them
 WARNING: aliasing errors must be expected set NGY to 198 to avoid them
 WARNING: aliasing errors must be expected set NGZ to 196 to avoid them
 aliasing errors are usually negligible using standard VASP settings
 and one can safely disregard these warnings

 serial   3D FFT for wavefunctions
 parallel 3D FFT for charge:
    minimum data exchange during FFTs selected (reduces bandwidth)


 total amount of memory used by VASP on root node  3203890. kBytes
========================================================================

   base      :      30000. kBytes
   nonlr-proj:        694. kBytes
   fftplans  :     924480. kBytes
   grid      :    1872000. kBytes
   one-center:         18. kBytes
   wavefun   :     376698. kBytes
 
     INWAV:  cpu time    0.0000: real time    0.0002
 Broyden mixing: mesh for mixing (old mesh)
   NGX = 97   NGY = 97   NGZ = 97
  (NGX  =300   NGY  =300   NGZ  =300)
  gives a total of 912673 points

 initial charge density was supplied:
 charge density of overlapping atoms calculated
 number of electron      16.0000000 magnetization 
 keeping initial charge density in first step


--------------------------------------------------------------------------------------------------------


 Maximum index for non-local projection operator         2273
 Maximum index for augmentation-charges         1491 (set IRDMAX)


--------------------------------------------------------------------------------------------------------


 First call to EWALD:  gamma=   0.059
 Maximum number of real-space cells 3x 3x 3
 Maximum number of reciprocal cells 3x 3x 3

 FEWALD executed in parallel
    FEWALD:  cpu time    0.0020: real time    0.0019


----------------------------------------- Iteration    1(   1)  ---------------------------------------


    POTLOK:  cpu time   30.0204: real time   30.0856
    SETDIJ:  cpu time    0.0070: real time    0.0065
     EDDAV:  cpu time  139.1378: real time  139.4460
       DOS:  cpu time    0.0000: real time    0.0002
    --------------------------------------------
      LOOP:  cpu time  169.1693: real time  169.5440

 eigenvalue-minimisations  :   160
 total energy-change (2. order) : 0.1126422E+03  (-0.2149581E+03)
 number of electron      16.0000000 magnetization 
 augmentation part       16.0000000 magnetization 

 Free energy of the ion-electron system (eV)
  ---------------------------------------------------
  alpha Z        PSCENC =         0.04144063
  Ewald energy   TEWEN  =       702.74481005
  -Hartree energ DENC   =     -1117.07703207
  -exchange      EXHF   =         0.00000000
  -V(xc)+E(xc)   XCENC  =        51.41817576
  PAW double counting   =       428.37890668     -430.73533574
  entropy T*S    EENTRO =        -0.19331399
  eigenvalues    EBANDS =      -118.10078883
  atomic energy  EATOM  =       596.16534815
  Solvation  Ediel_sol  =         0.00000000
  ---------------------------------------------------
  free energy    TOTEN  =       112.64221064 eV

  energy without entropy =      112.83552462  energy(sigma->0) =      112.73886763


--------------------------------------------------------------------------------------------------------




----------------------------------------- Iteration    1(   2)  ---------------------------------------


     EDDAV:  cpu time  161.1215: real time  161.4770
       DOS:  cpu time    0.0000: real time    0.0001
    --------------------------------------------
      LOOP:  cpu time  161.1225: real time  161.4799

 eigenvalue-minimisations  :   192
 total energy-change (2. order) :-0.1149371E+03  (-0.1124308E+03)
 number of electron      16.0000000 magnetization 
 augmentation part       16.0000000 magnetization 

 Free energy of the ion-electron system (eV)
  ---------------------------------------------------
  alpha Z        PSCENC =         0.04144063
  Ewald energy   TEWEN  =       702.74481005
  -Hartree energ DENC   =     -1117.07703207
  -exchange      EXHF   =         0.00000000
  -V(xc)+E(xc)   XCENC  =        51.41817576
  PAW double counting   =       428.37890668     -430.73533574
  entropy T*S    EENTRO =         0.00000000
  eigenvalues    EBANDS =      -233.23118100
  atomic energy  EATOM  =       596.16534815
  Solvation  Ediel_sol  =         0.00000000
  ---------------------------------------------------
  free energy    TOTEN  =        -2.29486755 eV

  energy without entropy =       -2.29486755  energy(sigma->0) =       -2.29486755


--------------------------------------------------------------------------------------------------------




----------------------------------------- Iteration    1(   3)  ---------------------------------------


     EDDAV:  cpu time  127.3336: real time  127.6130
       DOS:  cpu time    0.0000: real time    0.0001
    --------------------------------------------
      LOOP:  cpu time  127.3356: real time  127.6182

 eigenvalue-minimisations  :   136
 total energy-change (2. order) :-0.3223590E+02  (-0.3213656E+02)
 number of electron      16.0000000 magnetization 
 augmentation part       16.0000000 magnetization 

 Free energy of the ion-electron system (eV)
  ---------------------------------------------------
  alpha Z        PSCENC =         0.04144063
  Ewald energy   TEWEN  =       702.74481005
  -Hartree energ DENC   =     -1117.07703207
  -exchange      EXHF   =         0.00000000
  -V(xc)+E(xc)   XCENC  =        51.41817576
  PAW double counting   =       428.37890668     -430.73533574
  entropy T*S    EENTRO =         0.00000000
  eigenvalues    EBANDS =      -265.46707734
  atomic energy  EATOM  =       596.16534815
  Solvation  Ediel_sol  =         0.00000000
  ---------------------------------------------------
  free energy    TOTEN  =       -34.53076389 eV

  energy without entropy =      -34.53076389  energy(sigma->0) =      -34.53076389


--------------------------------------------------------------------------------------------------------




----------------------------------------- Iteration    1(   4)  ---------------------------------------


     EDDAV:  cpu time  115.8644: real time  116.1217
       DOS:  cpu time    0.0000: real time    0.0001
    --------------------------------------------
      LOOP:  cpu time  115.8654: real time  116.1260

 eigenvalue-minimisations  :   128
 total energy-change (2. order) :-0.4410109E+01  (-0.4357821E+01)
 number of electron      16.0000000 magnetization 
 augmentation part       16.0000000 magnetization 

 Free energy of the ion-electron system (eV)
  ---------------------------------------------------
  alpha Z        PSCENC =         0.04144063
  Ewald energy   TEWEN  =       702.74481005
  -Hartree energ DENC   =     -1117.07703207
  -exchange      EXHF   =         0.00000000
  -V(xc)+E(xc)   XCENC  =        51.41817576
  PAW double counting   =       428.37890668     -430.73533574
  entropy T*S    EENTRO =         0.00000000
  eigenvalues    EBANDS =      -269.87718661
  atomic energy  EATOM  =       596.16534815
  Solvation  Ediel_sol  =         0.00000000
  ---------------------------------------------------
  free energy    TOTEN  =       -38.94087316 eV

  energy without entropy =      -38.94087316  energy(sigma->0) =      -38.94087316


--------------------------------------------------------------------------------------------------------




----------------------------------------- Iteration    1(   5)  ---------------------------------------


     EDDAV:  cpu time  103.3883: real time  103.6182
       DOS:  cpu time    0.0000: real time    0.0001
    CHARGE:  cpu time    9.4766: real time    9.4997
    MIXING:  cpu time    0.8259: real time    0.8283
    --------------------------------------------
      LOOP:  cpu time  113.6937: real time  113.9505

 eigenvalue-minimisations  :   112
 total energy-change (2. order) :-0.1540169E+00  (-0.1517701E+00)
 number of electron      16.0000011 magnetization 
 augmentation part        0.5192611 magnetization 

 Broyden mixing:
  rms(total) = 0.10364E+01    rms(broyden)= 0.10358E+01
  rms(prec ) = 0.10727E+01
  weight for this iteration     100.00

 Free energy of the ion-electron system (eV)
  ---------------------------------------------------
  alpha Z        PSCENC =         0.04144063
  Ewald energy   TEWEN  =       702.74481005
  -Hartree energ DENC   =     -1117.07703207
  -exchange      EXHF   =         0.00000000
  -V(xc)+E(xc)   XCENC  =        51.41817576
  PAW double counting   =       428.37890668     -430.73533574
  entropy T*S    EENTRO =         0.00000000
  eigenvalues    EBANDS =      -270.03120356
  atomic energy  EATOM  =       596.16534815
  Solvation  Ediel_sol  =         0.00000000
  ---------------------------------------------------
  free energy    TOTEN  =       -39.09489010 eV

  energy without entropy =      -39.09489010  energy(sigma->0) =      -39.09489010


--------------------------------------------------------------------------------------------------------




----------------------------------------- Iteration    1(   6)  ---------------------------------------


    POTLOK:  cpu time   30.4574: real time   30.5258
    SETDIJ:  cpu time    0.0070: real time    0.0066
     EDDAV:  cpu time  106.5248: real time  106.7552
       DOS:  cpu time    0.0000: real time    0.0002
    CHARGE:  cpu time    9.4806: real time    9.5009
    MIXING:  cpu time    0.9948: real time    0.9986
    --------------------------------------------
      LOOP:  cpu time  147.4666: real time  147.7915

 eigenvalue-minimisations  :   124
 total energy-change (2. order) : 0.2684747E+01  (-0.4387305E+00)
 number of electron      16.0000009 magnetization 
 augmentation part        0.4739644 magnetization 

 Broyden mixing:
  rms(total) = 0.56227E+00    rms(broyden)= 0.56219E+00
  rms(prec ) = 0.57780E+00
  weight for this iteration     100.00

 eigenvalues of (default mixing * dielectric matrix)
  average eigenvalue GAMMA=   1.6209
  1.6209

 Free energy of the ion-electron system (eV)
  ---------------------------------------------------
  alpha Z        PSCENC =         0.04144063
  Ewald energy   TEWEN  =       702.74481005
  -Hartree energ DENC   =     -1146.13756172
  -exchange      EXHF   =         0.00000000
  -V(xc)+E(xc)   XCENC  =        53.01636046
  PAW double counting   =       719.57881497     -722.27010559
  entropy T*S    EENTRO =         0.00000000
  eigenvalues    EBANDS =      -239.54925016
  atomic energy  EATOM  =       596.16534815
  Solvation  Ediel_sol  =         0.00000000
  ---------------------------------------------------
  free energy    TOTEN  =       -36.41014320 eV

  energy without entropy =      -36.41014320  energy(sigma->0) =      -36.41014320


--------------------------------------------------------------------------------------------------------




----------------------------------------- Iteration    1(   7)  ---------------------------------------


    POTLOK:  cpu time   31.2233: real time   31.2924
    SETDIJ:  cpu time    0.0060: real time    0.0065
     EDDAV:  cpu time  118.1930: real time  118.4504
       DOS:  cpu time    0.0000: real time    0.0002
    CHARGE:  cpu time    9.2506: real time    9.2718
    MIXING:  cpu time    0.9659: real time    0.9680
    --------------------------------------------
      LOOP:  cpu time  159.6417: real time  160.0091

 eigenvalue-minimisations  :   124
 total energy-change (2. order) : 0.7034644E+00  (-0.1863024E+00)
 number of electron      16.0000009 magnetization 
 augmentation part        0.4575596 magnetization 

 Broyden mixing:
  rms(total) = 0.22208E+00    rms(broyden)= 0.22201E+00
  rms(prec ) = 0.22713E+00
  weight for this iteration     100.00

 eigenvalues of (default mixing * dielectric matrix)
  average eigenvalue GAMMA=   1.5796
  1.1007  2.0585

 Free energy of the ion-electron system (eV)
  ---------------------------------------------------
  alpha Z        PSCENC =         0.04144063
  Ewald energy   TEWEN  =       702.74481005
  -Hartree energ DENC   =     -1166.27667315
  -exchange      EXHF   =         0.00000000
  -V(xc)+E(xc)   XCENC  =        54.29902717
  PAW double counting   =      1100.53789990    -1103.42217984
  entropy T*S    EENTRO =         0.00000000
  eigenvalues    EBANDS =      -219.79635166
  atomic energy  EATOM  =       596.16534815
  Solvation  Ediel_sol  =         0.00000000
  ---------------------------------------------------
  free energy    TOTEN  =       -35.70667877 eV

  energy without entropy =      -35.70667877  energy(sigma->0) =      -35.70667877


--------------------------------------------------------------------------------------------------------




----------------------------------------- Iteration    1(   8)  ---------------------------------------


    POTLOK:  cpu time   30.8133: real time   30.8812
    SETDIJ:  cpu time    0.0060: real time    0.0067
     EDDAV:  cpu time  121.9995: real time  122.2653
       DOS:  cpu time    0.0000: real time    0.0002
    CHARGE:  cpu time    9.1806: real time    9.2006
    MIXING:  cpu time    1.0738: real time    1.0756
    --------------------------------------------
      LOOP:  cpu time  163.0752: real time  163.4343

 eigenvalue-minimisations  :   128
 total energy-change (2. order) : 0.6826021E-01  (-0.1324102E-01)
 number of electron      16.0000009 magnetization 
 augmentation part        0.4493097 magnetization 

 Broyden mixing:
  rms(total) = 0.87127E-01    rms(broyden)= 0.87106E-01
  rms(prec ) = 0.91403E-01
  weight for this iteration     100.00

 eigenvalues of (default mixing * dielectric matrix)
  average eigenvalue GAMMA=   1.5947
  2.3190  0.8289  1.6362

 Free energy of the ion-electron system (eV)
  ---------------------------------------------------
  alpha Z        PSCENC =         0.04144063
  Ewald energy   TEWEN  =       702.74481005
  -Hartree energ DENC   =     -1172.40745188
  -exchange      EXHF   =         0.00000000
  -V(xc)+E(xc)   XCENC  =        54.69918091
  PAW double counting   =      1273.74668623    -1276.64905894
  entropy T*S    EENTRO =         0.00000000
  eigenvalues    EBANDS =      -213.97937370
  atomic energy  EATOM  =       596.16534815
  Solvation  Ediel_sol  =         0.00000000
  ---------------------------------------------------
  free energy    TOTEN  =       -35.63841855 eV

  energy without entropy =      -35.63841855  energy(sigma->0) =      -35.63841855


--------------------------------------------------------------------------------------------------------




----------------------------------------- Iteration    1(   9)  ---------------------------------------


    POTLOK:  cpu time   30.7143: real time   30.7828
    SETDIJ:  cpu time    0.0070: real time    0.0064
     EDDAV:  cpu time  117.2672: real time  117.5247
       DOS:  cpu time    0.0000: real time    0.0002
    CHARGE:  cpu time    9.6435: real time    9.6657
    MIXING:  cpu time    1.1578: real time    1.1605
    --------------------------------------------
      LOOP:  cpu time  158.7919: real time  159.1446

 eigenvalue-minimisations  :   128
 total energy-change (2. order) : 0.1825582E-01  (-0.2093906E-02)
 number of electron      16.0000009 magnetization 
 augmentation part        0.4499278 magnetization 

 Broyden mixing:
  rms(total) = 0.21402E-01    rms(broyden)= 0.21391E-01
  rms(prec ) = 0.27660E-01
  weight for this iteration     100.00

 eigenvalues of (default mixing * dielectric matrix)
  average eigenvalue GAMMA=   1.5501
  2.0123  2.0123  0.8494  1.3264

 Free energy of the ion-electron system (eV)
  ---------------------------------------------------
  alpha Z        PSCENC =         0.04144063
  Ewald energy   TEWEN  =       702.74481005
  -Hartree energ DENC   =     -1173.65577637
  -exchange      EXHF   =         0.00000000
  -V(xc)+E(xc)   XCENC  =        54.78475835
  PAW double counting   =      1339.23656569    -1342.11186266
  entropy T*S    EENTRO =         0.00000000
  eigenvalues    EBANDS =      -212.82544656
  atomic energy  EATOM  =       596.16534815
  Solvation  Ediel_sol  =         0.00000000
  ---------------------------------------------------
  free energy    TOTEN  =       -35.62016274 eV

  energy without entropy =      -35.62016274  energy(sigma->0) =      -35.62016274


--------------------------------------------------------------------------------------------------------




----------------------------------------- Iteration    1(  10)  ---------------------------------------


    POTLOK:  cpu time   30.5494: real time   30.6181
    SETDIJ:  cpu time    0.0060: real time    0.0064
     EDDAV:  cpu time  121.3366: real time  121.6084
       DOS:  cpu time    0.0000: real time    0.0002
    CHARGE:  cpu time    9.1426: real time    9.1648
    MIXING:  cpu time    1.3308: real time    1.3326
    --------------------------------------------
      LOOP:  cpu time  162.3683: real time  162.7352

 eigenvalue-minimisations  :   128
 total energy-change (2. order) : 0.1577801E-03  (-0.4244931E-03)
 number of electron      16.0000009 magnetization 
 augmentation part        0.4506991 magnetization 

 Broyden mixing:
  rms(total) = 0.12985E-01    rms(broyden)= 0.12978E-01
  rms(prec ) = 0.18663E-01
  weight for this iteration     100.00

 eigenvalues of (default mixing * dielectric matrix)
  average eigenvalue GAMMA=   1.5137
  2.1919  2.1919  0.8860  0.8860  1.4128

 Free energy of the ion-electron system (eV)
  ---------------------------------------------------
  alpha Z        PSCENC =         0.04144063
  Ewald energy   TEWEN  =       702.74481005
  -Hartree energ DENC   =     -1174.66959015
  -exchange      EXHF   =         0.00000000
  -V(xc)+E(xc)   XCENC  =        54.80881302
  PAW double counting   =      1333.72743542    -1336.59842366
  entropy T*S    EENTRO =         0.00000000
  eigenvalues    EBANDS =      -211.83983841
  atomic energy  EATOM  =       596.16534815
  Solvation  Ediel_sol  =         0.00000000
  ---------------------------------------------------
  free energy    TOTEN  =       -35.62000496 eV

  energy without entropy =      -35.62000496  energy(sigma->0) =      -35.62000496


--------------------------------------------------------------------------------------------------------




----------------------------------------- Iteration    1(  11)  ---------------------------------------


    POTLOK:  cpu time   29.7935: real time   29.8601
    SETDIJ:  cpu time    0.0070: real time    0.0070
     EDDAV:  cpu time  119.6108: real time  119.8766
       DOS:  cpu time    0.0000: real time    0.0002
    CHARGE:  cpu time    9.1926: real time    9.2146
    MIXING:  cpu time    1.3448: real time    1.3490
    --------------------------------------------
      LOOP:  cpu time  159.9497: real time  160.3122

 eigenvalue-minimisations  :   128
 total energy-change (2. order) :-0.1711659E-02  (-0.1676819E-03)
 number of electron      16.0000009 magnetization 
 augmentation part        0.4502061 magnetization 

 Broyden mixing:
  rms(total) = 0.80535E-02    rms(broyden)= 0.80523E-02
  rms(prec ) = 0.12950E-01
  weight for this iteration     100.00

 eigenvalues of (default mixing * dielectric matrix)
  average eigenvalue GAMMA=   1.6609
  2.6427  2.6427  1.4535  1.4535  0.8866  0.8866

 Free energy of the ion-electron system (eV)
  ---------------------------------------------------
  alpha Z        PSCENC =         0.04144063
  Ewald energy   TEWEN  =       702.74481005
  -Hartree energ DENC   =     -1175.69257548
  -exchange      EXHF   =         0.00000000
  -V(xc)+E(xc)   XCENC  =        54.84031244
  PAW double counting   =      1333.31015845    -1336.17962197
  entropy T*S    EENTRO =         0.00000000
  eigenvalues    EBANDS =      -210.85158887
  atomic energy  EATOM  =       596.16534815
  Solvation  Ediel_sol  =         0.00000000
  ---------------------------------------------------
  free energy    TOTEN  =       -35.62171661 eV

  energy without entropy =      -35.62171661  energy(sigma->0) =      -35.62171661


--------------------------------------------------------------------------------------------------------




----------------------------------------- Iteration    1(  12)  ---------------------------------------


    POTLOK:  cpu time   30.4314: real time   30.4978
    SETDIJ:  cpu time    0.0060: real time    0.0064
     EDDAV:  cpu time  113.2458: real time  113.4968
       DOS:  cpu time    0.0000: real time    0.0002
    CHARGE:  cpu time    9.1796: real time    9.2008
    MIXING:  cpu time    1.6048: real time    1.6083
    --------------------------------------------
      LOOP:  cpu time  154.4695: real time  154.8149

 eigenvalue-minimisations  :   124
 total energy-change (2. order) :-0.5673622E-02  (-0.3028294E-03)
 number of electron      16.0000009 magnetization 
 augmentation part        0.4499202 magnetization 

 Broyden mixing:
  rms(total) = 0.45584E-02    rms(broyden)= 0.45540E-02
  rms(prec ) = 0.73482E-02
  weight for this iteration     100.00

 eigenvalues of (default mixing * dielectric matrix)
  average eigenvalue GAMMA=   1.7966
  3.8871  2.2256  1.9425  1.5697  0.9114  1.0199  1.0199

 Free energy of the ion-electron system (eV)
  ---------------------------------------------------
  alpha Z        PSCENC =         0.04144063
  Ewald energy   TEWEN  =       702.74481005
  -Hartree energ DENC   =     -1176.91745966
  -exchange      EXHF   =         0.00000000
  -V(xc)+E(xc)   XCENC  =        54.86929150
  PAW double counting   =      1329.85503429    -1332.72213411
  entropy T*S    EENTRO =         0.00000000
  eigenvalues    EBANDS =      -209.66372108
  atomic energy  EATOM  =       596.16534815
  Solvation  Ediel_sol  =         0.00000000
  ---------------------------------------------------
  free energy    TOTEN  =       -35.62739024 eV

  energy without entropy =      -35.62739024  energy(sigma->0) =      -35.62739024


--------------------------------------------------------------------------------------------------------




----------------------------------------- Iteration    1(  13)  ---------------------------------------


    POTLOK:  cpu time   31.1403: real time   31.2095
    SETDIJ:  cpu time    0.0070: real time    0.0065
     EDDAV:  cpu time  116.1893: real time  116.4448
       DOS:  cpu time    0.0000: real time    0.0002
    CHARGE:  cpu time    8.9946: real time    9.0132
    MIXING:  cpu time    1.6977: real time    1.7025
    --------------------------------------------
      LOOP:  cpu time  158.0300: real time  158.3814

 eigenvalue-minimisations  :   128
 total energy-change (2. order) :-0.6087526E-02  (-0.1655977E-03)
 number of electron      16.0000009 magnetization 
 augmentation part        0.4497402 magnetization 

 Broyden mixing:
  rms(total) = 0.28605E-02    rms(broyden)= 0.28583E-02
  rms(prec ) = 0.43445E-02
  weight for this iteration     100.00

 eigenvalues of (default mixing * dielectric matrix)
  average eigenvalue GAMMA=   1.8856
  4.9008  2.3984  1.7364  1.7364  1.4880  0.9129  0.9129  0.9989

 Free energy of the ion-electron system (eV)
  ---------------------------------------------------
  alpha Z        PSCENC =         0.04144063
  Ewald energy   TEWEN  =       702.74481005
  -Hartree energ DENC   =     -1177.52750723
  -exchange      EXHF   =         0.00000000
  -V(xc)+E(xc)   XCENC  =        54.87658672
  PAW double counting   =      1329.11679265    -1331.98440050
  entropy T*S    EENTRO =         0.00000000
  eigenvalues    EBANDS =      -209.06654823
  atomic energy  EATOM  =       596.16534815
  Solvation  Ediel_sol  =         0.00000000
  ---------------------------------------------------
  free energy    TOTEN  =       -35.63347776 eV

  energy without entropy =      -35.63347776  energy(sigma->0) =      -35.63347776


--------------------------------------------------------------------------------------------------------




----------------------------------------- Iteration    1(  14)  ---------------------------------------


    POTLOK:  cpu time   31.3702: real time   31.4418
    SETDIJ:  cpu time    0.0070: real time    0.0065
     EDDAV:  cpu time  115.8054: real time  116.0628
       DOS:  cpu time    0.0000: real time    0.0002
    CHARGE:  cpu time    9.1376: real time    9.1576
    MIXING:  cpu time    1.8517: real time    1.8557
    --------------------------------------------
      LOOP:  cpu time  158.1740: real time  158.5291

 eigenvalue-minimisations  :   128
 total energy-change (2. order) :-0.3870905E-02  (-0.4634653E-04)
 number of electron      16.0000009 magnetization 
 augmentation part        0.4497688 magnetization 

 Broyden mixing:
  rms(total) = 0.18586E-02    rms(broyden)= 0.18580E-02
  rms(prec ) = 0.27127E-02
  weight for this iteration     100.00

 eigenvalues of (default mixing * dielectric matrix)
  average eigenvalue GAMMA=   1.9799
  5.1247  2.7843  2.4426  1.9142  1.5551  1.1142  1.1142  0.8847  0.8847

 Free energy of the ion-electron system (eV)
  ---------------------------------------------------
  alpha Z        PSCENC =         0.04144063
  Ewald energy   TEWEN  =       702.74481005
  -Hartree energ DENC   =     -1177.70200203
  -exchange      EXHF   =         0.00000000
  -V(xc)+E(xc)   XCENC  =        54.87051086
  PAW double counting   =      1327.50021819    -1330.36770930
  entropy T*S    EENTRO =         0.00000000
  eigenvalues    EBANDS =      -208.88996521
  atomic energy  EATOM  =       596.16534815
  Solvation  Ediel_sol  =         0.00000000
  ---------------------------------------------------
  free energy    TOTEN  =       -35.63734867 eV

  energy without entropy =      -35.63734867  energy(sigma->0) =      -35.63734867


--------------------------------------------------------------------------------------------------------




----------------------------------------- Iteration    1(  15)  ---------------------------------------


    POTLOK:  cpu time   30.9373: real time   31.0048
    SETDIJ:  cpu time    0.0060: real time    0.0065
     EDDAV:  cpu time  117.8931: real time  118.1532
       DOS:  cpu time    0.0000: real time    0.0002
    CHARGE:  cpu time    8.9986: real time    9.0206
    MIXING:  cpu time    1.9587: real time    1.9623
    --------------------------------------------
      LOOP:  cpu time  159.7947: real time  160.1515

 eigenvalue-minimisations  :   128
 total energy-change (2. order) :-0.3359844E-02  (-0.3644412E-04)
 number of electron      16.0000009 magnetization 
 augmentation part        0.4498172 magnetization 

 Broyden mixing:
  rms(total) = 0.12115E-02    rms(broyden)= 0.12114E-02
  rms(prec ) = 0.16173E-02
  weight for this iteration     100.00

 eigenvalues of (default mixing * dielectric matrix)
  average eigenvalue GAMMA=   2.0873
  6.4773  3.4821  2.3598  1.6383  1.6383  1.5326  1.0223  0.9204  0.9204  0.8818

 Free energy of the ion-electron system (eV)
  ---------------------------------------------------
  alpha Z        PSCENC =         0.04144063
  Ewald energy   TEWEN  =       702.74481005
  -Hartree energ DENC   =     -1177.72745155
  -exchange      EXHF   =         0.00000000
  -V(xc)+E(xc)   XCENC  =        54.86412249
  PAW double counting   =      1328.37685929    -1331.24456061
  entropy T*S    EENTRO =         0.00000000
  eigenvalues    EBANDS =      -208.86127695
  atomic energy  EATOM  =       596.16534815
  Solvation  Ediel_sol  =         0.00000000
  ---------------------------------------------------
  free energy    TOTEN  =       -35.64070851 eV

  energy without entropy =      -35.64070851  energy(sigma->0) =      -35.64070851


--------------------------------------------------------------------------------------------------------




----------------------------------------- Iteration    1(  16)  ---------------------------------------


    POTLOK:  cpu time   30.7353: real time   30.8043
    SETDIJ:  cpu time    0.0070: real time    0.0066
     EDDAV:  cpu time  114.6286: real time  114.8791
       DOS:  cpu time    0.0000: real time    0.0002
    CHARGE:  cpu time    8.9706: real time    8.9902
    MIXING:  cpu time    2.2197: real time    2.2238
    --------------------------------------------
      LOOP:  cpu time  156.5632: real time  156.9089

 eigenvalue-minimisations  :   128
 total energy-change (2. order) :-0.1190695E-02  (-0.1061843E-04)
 number of electron      16.0000009 magnetization 
 augmentation part        0.4497870 magnetization 

 Broyden mixing:
  rms(total) = 0.66382E-03    rms(broyden)= 0.66364E-03
  rms(prec ) = 0.91402E-03
  weight for this iteration     100.00

 eigenvalues of (default mixing * dielectric matrix)
  average eigenvalue GAMMA=   2.1278
  7.1418  3.4325  2.2145  2.2145  1.6359  1.6359  1.3609  0.9954  0.9954  0.8897
  0.8897

 Free energy of the ion-electron system (eV)
  ---------------------------------------------------
  alpha Z        PSCENC =         0.04144063
  Ewald energy   TEWEN  =       702.74481005
  -Hartree energ DENC   =     -1177.76079099
  -exchange      EXHF   =         0.00000000
  -V(xc)+E(xc)   XCENC  =        54.86225445
  PAW double counting   =      1328.26472080    -1331.13248345
  entropy T*S    EENTRO =         0.00000000
  eigenvalues    EBANDS =      -208.82719884
  atomic energy  EATOM  =       596.16534815
  Solvation  Ediel_sol  =         0.00000000
  ---------------------------------------------------
  free energy    TOTEN  =       -35.64189921 eV

  energy without entropy =      -35.64189921  energy(sigma->0) =      -35.64189921


--------------------------------------------------------------------------------------------------------




----------------------------------------- Iteration    1(  17)  ---------------------------------------


    POTLOK:  cpu time   29.2146: real time   29.2783
    SETDIJ:  cpu time    0.0050: real time    0.0062
     EDDAV:  cpu time   88.0486: real time   88.2427
       DOS:  cpu time    0.0000: real time    0.0002
    CHARGE:  cpu time    8.8657: real time    8.8852
    MIXING:  cpu time    2.3576: real time    2.3622
    --------------------------------------------
      LOOP:  cpu time  128.4935: real time  128.7806

 eigenvalue-minimisations  :    88
 total energy-change (2. order) :-0.7881029E-03  (-0.2427687E-05)
 number of electron      16.0000009 magnetization 
 augmentation part        0.4497601 magnetization 

 Broyden mixing:
  rms(total) = 0.39846E-03    rms(broyden)= 0.39834E-03
  rms(prec ) = 0.53981E-03
  weight for this iteration     100.00

 eigenvalues of (default mixing * dielectric matrix)
  average eigenvalue GAMMA=   2.2524
  8.0809  4.2500  2.7367  2.3524  1.6128  1.6128  1.5659  1.0744  0.9890  0.9890
  0.8825  0.8825

 Free energy of the ion-electron system (eV)
  ---------------------------------------------------
  alpha Z        PSCENC =         0.04144063
  Ewald energy   TEWEN  =       702.74481005
  -Hartree energ DENC   =     -1177.77066415
  -exchange      EXHF   =         0.00000000
  -V(xc)+E(xc)   XCENC  =        54.86121681
  PAW double counting   =      1328.10592690    -1330.97345730
  entropy T*S    EENTRO =         0.00000000
  eigenvalues    EBANDS =      -208.81730838
  atomic energy  EATOM  =       596.16534815
  Solvation  Ediel_sol  =         0.00000000
  ---------------------------------------------------
  free energy    TOTEN  =       -35.64268731 eV

  energy without entropy =      -35.64268731  energy(sigma->0) =      -35.64268731


--------------------------------------------------------------------------------------------------------




----------------------------------------- Iteration    1(  18)  ---------------------------------------


    POTLOK:  cpu time   26.8189: real time   26.8777
    SETDIJ:  cpu time    0.0060: real time    0.0066
     EDDAV:  cpu time   78.5451: real time   78.7171
       DOS:  cpu time    0.0000: real time    0.0002
    CHARGE:  cpu time    8.6377: real time    8.6574
    MIXING:  cpu time    1.8177: real time    1.8224
    --------------------------------------------
      LOOP:  cpu time  115.8284: real time  116.0857

 eigenvalue-minimisations  :    76
 total energy-change (2. order) :-0.4078978E-03  (-0.2840515E-05)
 number of electron      16.0000009 magnetization 
 augmentation part        0.4497621 magnetization 

 Broyden mixing:
  rms(total) = 0.27045E-03    rms(broyden)= 0.27040E-03
  rms(prec ) = 0.33485E-03
  weight for this iteration     100.00

 eigenvalues of (default mixing * dielectric matrix)
  average eigenvalue GAMMA=   2.3357
  8.3868  4.6985  2.5904  2.5645  2.5645  1.6464  1.6464  1.4742  1.0032  1.0032
  0.8910  0.8910  1.0039

 Free energy of the ion-electron system (eV)
  ---------------------------------------------------
  alpha Z        PSCENC =         0.04144063
  Ewald energy   TEWEN  =       702.74481005
  -Hartree energ DENC   =     -1177.76418533
  -exchange      EXHF   =         0.00000000
  -V(xc)+E(xc)   XCENC  =        54.86042280
  PAW double counting   =      1328.32763605    -1331.19516094
  entropy T*S    EENTRO =         0.00000000
  eigenvalues    EBANDS =      -208.82340661
  atomic energy  EATOM  =       596.16534815
  Solvation  Ediel_sol  =         0.00000000
  ---------------------------------------------------
  free energy    TOTEN  =       -35.64309521 eV

  energy without entropy =      -35.64309521  energy(sigma->0) =      -35.64309521


--------------------------------------------------------------------------------------------------------




----------------------------------------- Iteration    1(  19)  ---------------------------------------


    POTLOK:  cpu time   26.6230: real time   26.6827
    SETDIJ:  cpu time    0.0070: real time    0.0065
     EDDAV:  cpu time   78.4061: real time   78.5773
       DOS:  cpu time    0.0000: real time    0.0002
    CHARGE:  cpu time    7.3669: real time    7.3820
    MIXING:  cpu time    2.1987: real time    2.2049
    --------------------------------------------
      LOOP:  cpu time  114.6036: real time  114.8580

 eigenvalue-minimisations  :    80
 total energy-change (2. order) :-0.2280194E-03  (-0.9901909E-06)
 number of electron      16.0000009 magnetization 
 augmentation part        0.4497762 magnetization 

 Broyden mixing:
  rms(total) = 0.26823E-03    rms(broyden)= 0.26816E-03
  rms(prec ) = 0.29070E-03
  weight for this iteration     100.00

 eigenvalues of (default mixing * dielectric matrix)
  average eigenvalue GAMMA=   2.3286
  8.6535  5.3223  3.2332  2.5992  2.1094  1.7424  1.6022  1.6022  1.0233  1.0233
  1.0743  0.8775  0.8775  0.8598

 Free energy of the ion-electron system (eV)
  ---------------------------------------------------
  alpha Z        PSCENC =         0.04144063
  Ewald energy   TEWEN  =       702.74481005
  -Hartree energ DENC   =     -1177.75767881
  -exchange      EXHF   =         0.00000000
  -V(xc)+E(xc)   XCENC  =        54.85993437
  PAW double counting   =      1328.30619019    -1331.17383576
  entropy T*S    EENTRO =         0.00000000
  eigenvalues    EBANDS =      -208.82953204
  atomic energy  EATOM  =       596.16534815
  Solvation  Ediel_sol  =         0.00000000
  ---------------------------------------------------
  free energy    TOTEN  =       -35.64332323 eV

  energy without entropy =      -35.64332323  energy(sigma->0) =      -35.64332323


--------------------------------------------------------------------------------------------------------




----------------------------------------- Iteration    1(  20)  ---------------------------------------


    POTLOK:  cpu time   25.4501: real time   25.5041
    SETDIJ:  cpu time    0.0070: real time    0.0066
     EDDAV:  cpu time   95.7164: real time   95.9231
       DOS:  cpu time    0.0000: real time    0.0002
    --------------------------------------------
      LOOP:  cpu time  121.1756: real time  121.4379

 eigenvalue-minimisations  :    96
 total energy-change (2. order) :-0.4436915E-04  (-0.2762992E-06)
 number of electron      16.0000009 magnetization 
 augmentation part        0.4497762 magnetization 

 Free energy of the ion-electron system (eV)
  ---------------------------------------------------
  alpha Z        PSCENC =         0.04144063
  Ewald energy   TEWEN  =       702.74481005
  -Hartree energ DENC   =     -1177.75805185
  -exchange      EXHF   =         0.00000000
  -V(xc)+E(xc)   XCENC  =        54.85981491
  PAW double counting   =      1328.20960641    -1331.07720203
  entropy T*S    EENTRO =         0.00000000
  eigenvalues    EBANDS =      -208.82913386
  atomic energy  EATOM  =       596.16534815
  Solvation  Ediel_sol  =         0.00000000
  ---------------------------------------------------
  free energy    TOTEN  =       -35.64336760 eV

  energy without entropy =      -35.64336760  energy(sigma->0) =      -35.64336760


--------------------------------------------------------------------------------------------------------




 average (electrostatic) potential at core
  the test charge radii are     0.5201  0.6991  0.7089
  (the norm of the test charge is              1.0000)
       1 -43.0799       2 -43.0795       3 -43.0790       4 -60.5350       5 -59.3477
       6 -74.8321
 
 
 
 E-fermi :  -6.1897     XC(G=0):  -0.0952     alpha+bet : -0.0137


 k-point     1 :       0.2500    0.2500    0.2500
  band No.  band energies     occupation 
      1     -23.8889      2.00000
      2     -19.2982      2.00000
      3     -13.8841      2.00000
      4     -11.7975      2.00000
      5     -11.7953      2.00000
      6      -8.3033      2.00000
      7      -8.3032      2.00000
      8      -7.1440      2.00000
      9      -0.7623      0.00000
     10      -0.6638      0.00000
     11      -0.6632      0.00000
     12      -0.0133      0.00000

 k-point     2 :      -0.2500    0.2500    0.2500
  band No.  band energies     occupation 
      1     -23.8889      2.00000
      2     -19.2982      2.00000
      3     -13.8841      2.00000
      4     -11.7975      2.00000
      5     -11.7953      2.00000
      6      -8.3033      2.00000
      7      -8.3032      2.00000
      8      -7.1440      2.00000
      9      -0.7623      0.00000
     10      -0.6638      0.00000
     11      -0.6632      0.00000
     12      -0.0132      0.00000

 k-point     3 :       0.2500   -0.2500    0.2500
  band No.  band energies     occupation 
      1     -23.8889      2.00000
      2     -19.2982      2.00000
      3     -13.8841      2.00000
      4     -11.7975      2.00000
      5     -11.7953      2.00000
      6      -8.3033      2.00000
      7      -8.3032      2.00000
      8      -7.1440      2.00000
      9      -0.7623      0.00000
     10      -0.6638      0.00000
     11      -0.6632      0.00000
     12      -0.0132      0.00000

 k-point     4 :      -0.2500   -0.2500    0.2500
  band No.  band energies     occupation 
      1     -23.8889      2.00000
      2     -19.2982      2.00000
      3     -13.8841      2.00000
      4     -11.7975      2.00000
      5     -11.7953      2.00000
      6      -8.3033      2.00000
      7      -8.3032      2.00000
      8      -7.1440      2.00000
      9      -0.7623      0.00000
     10      -0.6638      0.00000
     11      -0.6632      0.00000
     12      -0.0134      0.00000


--------------------------------------------------------------------------------------------------------


 soft charge-density along one line, spin component           1
         0         1         2         3         4         5         6         7         8         9
 total charge-density along one line
 
 pseudopotential strength for first ion, spin component:           1
 -2.363  -4.075  -0.002   0.000   0.000
 -4.075  -6.942  -0.006   0.001  -0.001
 -0.002  -0.006  -0.329   0.000   0.001
  0.000   0.001   0.000  -0.334   0.000
  0.000  -0.001   0.001   0.000  -0.334
 total augmentation occupancy for first ion, spin component:           1
  3.522  -0.634   0.437  -0.040   0.072
 -0.634   0.131  -0.081   0.007  -0.013
  0.437  -0.081   0.055  -0.004   0.008
 -0.040   0.007  -0.004   0.009   0.000
  0.072  -0.013   0.008   0.000   0.007


------------------------ aborting loop because EDIFF is reached ----------------------------------------


    CHARGE:  cpu time    8.8846: real time    8.9035
    FORLOC:  cpu time    2.7886: real time    2.7949
    FORNL :  cpu time   24.4533: real time   24.5077
    STRESS:  cpu time   73.5458: real time   73.7053
    FORCOR:  cpu time   29.0066: real time   29.0682
    FORHAR:  cpu time    9.8205: real time    9.8413
    MIXING:  cpu time    2.5506: real time    2.5561
    OFIELD:  cpu time    0.0000: real time    0.0000

  FORCE on cell =-STRESS in cart. coord.  units (eV):
  Direction    XX          YY          ZZ          XY          YZ          ZX
  --------------------------------------------------------------------------------------
  Alpha Z     0.04144     0.04144     0.04144
  Ewald     530.86807    55.54865   116.32777    89.38340   -35.35938  -194.02767
  Hartree   548.13185   298.84780   330.78291    46.71562   -18.50049  -101.51308
  E(xc)     -58.98897   -60.15650   -60.00774     0.22041    -0.08700    -0.47749
  Local   -1223.17698  -528.35742  -617.28155  -130.47536    51.64126   283.36537
  n-local   -26.33761   -24.44397   -24.67417    -0.35935     0.14054     0.76546
  augment     0.54365     0.98300     0.92679    -0.08310     0.03287     0.17946
  Kinetic   228.05188   256.54990   252.91045    -5.38059     2.12100    11.64612
  Fock        0.00000     0.00000     0.00000     0.00000     0.00000     0.00000
  -------------------------------------------------------------------------------------
  Total      -0.86667    -0.98710    -0.97409     0.02104    -0.01120    -0.06183
  in kB      -0.05143    -0.05857    -0.05780     0.00125    -0.00066    -0.00367
  external pressure =       -0.06 kB  Pullay stress =        0.00 kB


 VOLUME and BASIS-vectors are now :
 -----------------------------------------------------------------------------
  energy-cutoff  :      400.00
  volume of cell :    27000.00
      direct lattice vectors                 reciprocal lattice vectors
    30.000000000  0.000000000  0.000000000     0.033333333  0.000000000  0.000000000
     0.000000000 30.000000000  0.000000000     0.000000000  0.033333333  0.000000000
     0.000000000  0.000000000 30.000000000     0.000000000  0.000000000  0.033333333

  length of vectors
    30.000000000 30.000000000 30.000000000     0.033333333  0.033333333  0.033333333


 FORCES acting on ions
    electron-ion (+dipol)            ewald-force                    non-local-force                 convergence-correction
 -----------------------------------------------------------------------------------------------
   0.220E+02 0.625E+02 -.104E+02   -.229E+02 -.680E+02 0.109E+02   0.938E+00 0.558E+01 -.522E+00   -.778E-04 0.311E-03 0.256E-04
   0.544E+02 -.213E+02 0.328E+02   -.583E+02 0.235E+02 -.363E+02   0.394E+01 -.217E+01 0.347E+01   0.918E-04 -.156E-03 0.262E-03
   0.180E+02 -.239E+02 -.600E+02   -.185E+02 0.263E+02 0.651E+02   0.563E+00 -.241E+01 -.511E+01   -.101E-03 -.174E-03 -.251E-03
   0.111E+03 0.202E+02 -.440E+02   -.118E+03 -.215E+02 0.468E+02   0.694E+01 0.126E+01 -.276E+01   -.155E-02 -.311E-03 0.655E-03
   -.211E+03 -.385E+02 0.835E+02   0.236E+03 0.430E+02 -.931E+02   -.244E+02 -.445E+01 0.962E+01   0.186E-02 0.320E-03 -.705E-03
   0.152E+02 0.280E+01 -.552E+01   -.181E+02 -.333E+01 0.660E+01   0.286E+01 0.524E+00 -.107E+01   -.166E-02 -.326E-03 0.691E-03
 -----------------------------------------------------------------------------------------------
   0.916E+01 0.167E+01 -.362E+01   0.000E+00 -.711E-14 0.000E+00   -.916E+01 -.167E+01 0.362E+01   -.144E-02 -.336E-03 0.678E-03
 
 
 POSITION                                       TOTAL-FORCE (eV/Angst)
 -----------------------------------------------------------------------------------
     14.45520     13.68185     15.38937         0.002852     -0.000788      0.000272
     13.87323     15.18557     14.61494         0.001482      0.003533     -0.002406
     14.52769     15.23207     16.27973        -0.002622     -0.000692     -0.000008
     14.62947     14.76257     15.29113         0.000230      0.000321     -0.000791
     17.01013     15.19658     14.34795         0.003380     -0.000225     -0.003677
     15.92747     14.99909     14.77510        -0.005323     -0.002149      0.006610
 -----------------------------------------------------------------------------------
    total drift:                                0.000034      0.002287      0.003291


--------------------------------------------------------------------------------------------------------



  FREE ENERGIE OF THE ION-ELECTRON SYSTEM (eV)
  ---------------------------------------------------
  free  energy   TOTEN  =       -35.64336760 eV

  energy  without entropy=      -35.64336760  energy(sigma->0) =      -35.64336760
 


--------------------------------------------------------------------------------------------------------


    POTLOK:  cpu time   24.0134: real time   24.0627


--------------------------------------------------------------------------------------------------------


 NEB: the previous image is higher in energy: T
 NEB: the next image is higher in energy    : T
 NEB: image is at an extrema
 NEB: diff energy (min, max):     0.000319    0.000707

 NEB: Tangent
 ----------------------------------------------
      0.05283     -0.18056     -0.22912
      0.13106     -0.20417     -0.23168
     -0.35435     -0.30556      0.00325
     -0.02297     -0.15223     -0.06845
      0.20784      0.39361      0.51123
      0.10347      0.14229      0.24863

 NEB: forces: par spring, perp REAL, dneb     0.014751    0.011757    0.000000
 NEB: distance to prev, next image, angle between     1.074308    1.077258   82.397634
 NEB: projections on to tangent (spring, REAL)     0.014751    0.000922

 stress matrix after NEB project (eV)
     -0.86667      0.02104     -0.06183
      0.02104     -0.98710     -0.01120
     -0.06183     -0.01120     -0.97409
  FORCES: max atom, RMS     0.010777    0.007701
  FORCE total and by dimension    0.018863    0.010048
  Stress total and by dimension    1.638027    0.987103
 
 OPT: Flag T
 OPT: FIRE Step
 OPT: FIRE, TIMESTEP      0.10000
 OPT: FIRE, alpha         0.10000


--------------------------------------------------------------------------------------------------------


    WAVPRE:  cpu time    8.3507: real time    9.0033
 FEWALD executed in parallel
    FEWALD:  cpu time    0.0000: real time    0.0004
    ORTHCH:  cpu time    6.1491: real time    6.4627
     LOOP+:  cpu time 3187.6334: real time 3195.6471


----------------------------------------- Iteration    2(   1)  ---------------------------------------


    POTLOK:  cpu time   35.3786: real time   35.5542
    SETDIJ:  cpu time    0.0070: real time    0.0071
     EDDAV:  cpu time   56.2794: real time   56.3931
       DOS:  cpu time    0.0000: real time    0.0002
    CHARGE:  cpu time    5.8861: real time    5.8978
    MIXING:  cpu time    0.7959: real time    0.7981
    --------------------------------------------
      LOOP:  cpu time   98.3500: real time   98.6528

 eigenvalue-minimisations  :    68
 total energy-change (2. order) :-0.9132876E-04  (-0.8567490E-05)
 number of electron      16.0000009 magnetization 
 augmentation part        0.4497324 magnetization 

 Broyden mixing:
  rms(total) = 0.27491E-03    rms(broyden)= 0.27440E-03
  rms(prec ) = 0.28556E-03
  weight for this iteration     100.00

 Free energy of the ion-electron system (eV)
  ---------------------------------------------------
  alpha Z        PSCENC =         0.04144063
  Ewald energy   TEWEN  =       702.72844050
  -Hartree energ DENC   =     -1177.75146739
  -exchange      EXHF   =         0.00000000
  -V(xc)+E(xc)   XCENC  =        54.85948526
  PAW double counting   =      1328.24141404    -1331.10900355
  entropy T*S    EENTRO =         0.00000000
  eigenvalues    EBANDS =      -208.81907219
  atomic energy  EATOM  =       596.16534815
  Solvation  Ediel_sol  =         0.00000000
  ---------------------------------------------------
  free energy    TOTEN  =       -35.64341455 eV

  energy without entropy =      -35.64341455  energy(sigma->0) =      -35.64341455


--------------------------------------------------------------------------------------------------------




----------------------------------------- Iteration    2(   2)  ---------------------------------------


    POTLOK:  cpu time   32.0811: real time   32.5557
    SETDIJ:  cpu time    0.0070: real time    0.0070
     EDDAV:  cpu time   76.8133: real time   77.8038
       DOS:  cpu time    0.0000: real time    0.0002
    CHARGE:  cpu time    5.8651: real time    5.8770
    MIXING:  cpu time    0.9089: real time    0.9106
    --------------------------------------------
      LOOP:  cpu time  115.6774: real time  117.1697

 eigenvalue-minimisations  :    96
 total energy-change (2. order) :-0.8805339E-05  (-0.5029373E-06)
 number of electron      16.0000009 magnetization 
 augmentation part        0.4497235 magnetization 

 Broyden mixing:
  rms(total) = 0.21107E-03    rms(broyden)= 0.21098E-03
  rms(prec ) = 0.21948E-03
  weight for this iteration     100.00

 eigenvalues of (default mixing * dielectric matrix)
  average eigenvalue GAMMA=   1.1543
  1.1543

 Free energy of the ion-electron system (eV)
  ---------------------------------------------------
  alpha Z        PSCENC =         0.04144063
  Ewald energy   TEWEN  =       702.72844050
  -Hartree energ DENC   =     -1177.75019243
  -exchange      EXHF   =         0.00000000
  -V(xc)+E(xc)   XCENC  =        54.85934114
  PAW double counting   =      1328.19509797    -1331.06263937
  entropy T*S    EENTRO =         0.00000000
  eigenvalues    EBANDS =      -208.82025995
  atomic energy  EATOM  =       596.16534815
  Solvation  Ediel_sol  =         0.00000000
  ---------------------------------------------------
  free energy    TOTEN  =       -35.64342336 eV

  energy without entropy =      -35.64342336  energy(sigma->0) =      -35.64342336


--------------------------------------------------------------------------------------------------------




----------------------------------------- Iteration    2(   3)  ---------------------------------------


    POTLOK:  cpu time   34.3508: real time   34.4197
    SETDIJ:  cpu time    0.0070: real time    0.0072
     EDDAV:  cpu time   56.6344: real time   56.7468
       DOS:  cpu time    0.0000: real time    0.0002
    CHARGE:  cpu time    5.5732: real time    5.5846
    MIXING:  cpu time    0.9858: real time    0.9875
    --------------------------------------------
      LOOP:  cpu time   97.5522: real time   97.7493

 eigenvalue-minimisations  :    64
 total energy-change (2. order) :-0.7992994E-05  (-0.6757683E-07)
 number of electron      16.0000009 magnetization 
 augmentation part        0.4497249 magnetization 

 Broyden mixing:
  rms(total) = 0.11372E-03    rms(broyden)= 0.11369E-03
  rms(prec ) = 0.11939E-03
  weight for this iteration     100.00

 eigenvalues of (default mixing * dielectric matrix)
  average eigenvalue GAMMA=   1.5300
  1.0264  2.0336

 Free energy of the ion-electron system (eV)
  ---------------------------------------------------
  alpha Z        PSCENC =         0.04144063
  Ewald energy   TEWEN  =       702.72844050
  -Hartree energ DENC   =     -1177.74793739
  -exchange      EXHF   =         0.00000000
  -V(xc)+E(xc)   XCENC  =        54.85918041
  PAW double counting   =      1328.15235002    -1331.01985264
  entropy T*S    EENTRO =         0.00000000
  eigenvalues    EBANDS =      -208.82240103
  atomic energy  EATOM  =       596.16534815
  Solvation  Ediel_sol  =         0.00000000
  ---------------------------------------------------
  free energy    TOTEN  =       -35.64343135 eV

  energy without entropy =      -35.64343135  energy(sigma->0) =      -35.64343135


--------------------------------------------------------------------------------------------------------




----------------------------------------- Iteration    2(   4)  ---------------------------------------


    POTLOK:  cpu time   33.2209: real time   33.2879
    SETDIJ:  cpu time    0.0080: real time    0.0072
[...]
  ---------------------------------------------------
  free energy    TOTEN  =       -35.64339210 eV

  energy without entropy =      -35.64339210  energy(sigma->0) =      -35.64339210


--------------------------------------------------------------------------------------------------------




----------------------------------------- Iteration   74(   2)  ---------------------------------------


    POTLOK:  cpu time   21.7797: real time   21.8203
    SETDIJ:  cpu time    0.0060: real time    0.0062
     EDDAV:  cpu time   37.6123: real time   37.6860
       DOS:  cpu time    0.0000: real time    0.0002
    CHARGE:  cpu time    5.3052: real time    5.3163
    MIXING:  cpu time    0.5939: real time    0.5950
    --------------------------------------------
      LOOP:  cpu time   65.2991: real time   65.4271

 eigenvalue-minimisations  :    48
 total energy-change (2. order) :-0.2517759E-06  (-0.2967184E-06)
 number of electron      16.0000018 magnetization 
 augmentation part        0.4497583 magnetization 

 Broyden mixing:
  rms(total) = 0.10127E-03    rms(broyden)= 0.10119E-03
  rms(prec ) = 0.10289E-03
  weight for this iteration     100.00

 eigenvalues of (default mixing * dielectric matrix)
  average eigenvalue GAMMA=   1.3776
  1.3776

 Free energy of the ion-electron system (eV)
  ---------------------------------------------------
  alpha Z        PSCENC =         0.04144063
  Ewald energy   TEWEN  =       702.70264097
  -Hartree energ DENC   =     -1177.72127039
  -exchange      EXHF   =         0.00000000
  -V(xc)+E(xc)   XCENC  =        54.85907987
  PAW double counting   =      1328.22028238    -1331.08786763
  entropy T*S    EENTRO =         0.00000000
  eigenvalues    EBANDS =      -208.82304634
  atomic energy  EATOM  =       596.16534815
  Solvation  Ediel_sol  =         0.00000000
  ---------------------------------------------------
  free energy    TOTEN  =       -35.64339235 eV

  energy without entropy =      -35.64339235  energy(sigma->0) =      -35.64339235


--------------------------------------------------------------------------------------------------------




----------------------------------------- Iteration   74(   3)  ---------------------------------------


    POTLOK:  cpu time   20.6689: real time   20.7096
    SETDIJ:  cpu time    0.0060: real time    0.0063
     EDDAV:  cpu time   36.0085: real time   36.0779
       DOS:  cpu time    0.0000: real time    0.0002
    CHARGE:  cpu time    5.1782: real time    5.1881
    MIXING:  cpu time    0.6169: real time    0.6189
    --------------------------------------------
      LOOP:  cpu time   62.4805: real time   62.6047

 eigenvalue-minimisations  :    48
 total energy-change (2. order) :-0.4885169E-07  (-0.3769964E-07)
 number of electron      16.0000018 magnetization 
 augmentation part        0.4497585 magnetization 

 Broyden mixing:
  rms(total) = 0.50635E-04    rms(broyden)= 0.50606E-04
  rms(prec ) = 0.51749E-04
  weight for this iteration     100.00

 eigenvalues of (default mixing * dielectric matrix)
  average eigenvalue GAMMA=   1.6771
  0.9816  2.3725

 Free energy of the ion-electron system (eV)
  ---------------------------------------------------
  alpha Z        PSCENC =         0.04144063
  Ewald energy   TEWEN  =       702.70264097
  -Hartree energ DENC   =     -1177.72144865
  -exchange      EXHF   =         0.00000000
  -V(xc)+E(xc)   XCENC  =        54.85909115
  PAW double counting   =      1328.22310780    -1331.09069785
  entropy T*S    EENTRO =         0.00000000
  eigenvalues    EBANDS =      -208.82287459
  atomic energy  EATOM  =       596.16534815
  Solvation  Ediel_sol  =         0.00000000
  ---------------------------------------------------
  free energy    TOTEN  =       -35.64339240 eV

  energy without entropy =      -35.64339240  energy(sigma->0) =      -35.64339240


--------------------------------------------------------------------------------------------------------




----------------------------------------- Iteration   74(   4)  ---------------------------------------


    POTLOK:  cpu time   21.0558: real time   21.0955
    SETDIJ:  cpu time    0.0060: real time    0.0062
     EDDAV:  cpu time   35.4146: real time   35.4834
       DOS:  cpu time    0.0000: real time    0.0002
    CHARGE:  cpu time    5.0002: real time    5.0095
    MIXING:  cpu time    0.6319: real time    0.6336
    --------------------------------------------
      LOOP:  cpu time   62.1106: real time   62.2317

 eigenvalue-minimisations  :    48
 total energy-change (2. order) :-0.1990884E-07  (-0.1186717E-07)
 number of electron      16.0000018 magnetization 
 augmentation part        0.4497582 magnetization 

 Broyden mixing:
  rms(total) = 0.13029E-04    rms(broyden)= 0.13009E-04
  rms(prec ) = 0.13430E-04
  weight for this iteration     100.00

 eigenvalues of (default mixing * dielectric matrix)
  average eigenvalue GAMMA=   1.4973
  2.1716  0.9113  1.4091

 Free energy of the ion-electron system (eV)
  ---------------------------------------------------
  alpha Z        PSCENC =         0.04144063
  Ewald energy   TEWEN  =       702.70264097
  -Hartree energ DENC   =     -1177.72161930
  -exchange      EXHF   =         0.00000000
  -V(xc)+E(xc)   XCENC  =        54.85910038
  PAW double counting   =      1328.22594502    -1331.09353802
  entropy T*S    EENTRO =         0.00000000
  eigenvalues    EBANDS =      -208.82271025
  atomic energy  EATOM  =       596.16534815
  Solvation  Ediel_sol  =         0.00000000
  ---------------------------------------------------
  free energy    TOTEN  =       -35.64339242 eV

  energy without entropy =      -35.64339242  energy(sigma->0) =      -35.64339242


--------------------------------------------------------------------------------------------------------




----------------------------------------- Iteration   74(   5)  ---------------------------------------


    POTLOK:  cpu time   22.7965: real time   22.8396
    SETDIJ:  cpu time    0.0060: real time    0.0065
     EDDAV:  cpu time   35.5556: real time   35.6237
       DOS:  cpu time    0.0000: real time    0.0002
    CHARGE:  cpu time    5.0522: real time    5.0622
    MIXING:  cpu time    0.7049: real time    0.7061
    --------------------------------------------
      LOOP:  cpu time   64.1163: real time   64.2417

 eigenvalue-minimisations  :    48
 total energy-change (2. order) :-0.9179303E-08  (-0.5886135E-08)
 number of electron      16.0000018 magnetization 
 augmentation part        0.4497580 magnetization 

 Broyden mixing:
  rms(total) = 0.12216E-04    rms(broyden)= 0.12209E-04
  rms(prec ) = 0.12578E-04
  weight for this iteration     100.00

 eigenvalues of (default mixing * dielectric matrix)
  average eigenvalue GAMMA=   1.4556
  2.0582  2.0582  1.0452  0.6609

 Free energy of the ion-electron system (eV)
  ---------------------------------------------------
  alpha Z        PSCENC =         0.04144063
  Ewald energy   TEWEN  =       702.70264097
  -Hartree energ DENC   =     -1177.72161172
  -exchange      EXHF   =         0.00000000
  -V(xc)+E(xc)   XCENC  =        54.85909927
  PAW double counting   =      1328.22604287    -1331.09363514
  entropy T*S    EENTRO =         0.00000000
  eigenvalues    EBANDS =      -208.82271746
  atomic energy  EATOM  =       596.16534815
  Solvation  Ediel_sol  =         0.00000000
  ---------------------------------------------------
  free energy    TOTEN  =       -35.64339243 eV

  energy without entropy =      -35.64339243  energy(sigma->0) =      -35.64339243


--------------------------------------------------------------------------------------------------------




----------------------------------------- Iteration   74(   6)  ---------------------------------------


    POTLOK:  cpu time   22.8225: real time   22.8665
    SETDIJ:  cpu time    0.0060: real time    0.0063
     EDDAV:  cpu time   35.6356: real time   35.7037
       DOS:  cpu time    0.0000: real time    0.0002
    --------------------------------------------
      LOOP:  cpu time   58.4651: real time   58.5798

 eigenvalue-minimisations  :    48
 total energy-change (2. order) :-0.7540393E-08  (-0.3878844E-08)
 number of electron      16.0000018 magnetization 
 augmentation part        0.4497580 magnetization 

 Free energy of the ion-electron system (eV)
  ---------------------------------------------------
  alpha Z        PSCENC =         0.04144063
  Ewald energy   TEWEN  =       702.70264097
  -Hartree energ DENC   =     -1177.72159923
  -exchange      EXHF   =         0.00000000
  -V(xc)+E(xc)   XCENC  =        54.85909802
  PAW double counting   =      1328.22589959    -1331.09349132
  entropy T*S    EENTRO =         0.00000000
  eigenvalues    EBANDS =      -208.82272925
  atomic energy  EATOM  =       596.16534815
  Solvation  Ediel_sol  =         0.00000000
  ---------------------------------------------------
  free energy    TOTEN  =       -35.64339244 eV

  energy without entropy =      -35.64339244  energy(sigma->0) =      -35.64339244


--------------------------------------------------------------------------------------------------------




 average (electrostatic) potential at core
  the test charge radii are     0.5201  0.6991  0.7089
  (the norm of the test charge is              1.0000)
       1 -43.0791       2 -43.0798       3 -43.0800       4 -60.5361       5 -59.3466
       6 -74.8311
 
 
 
 E-fermi :  -6.1633     XC(G=0):  -0.0617     alpha+bet : -0.0137


 k-point     1 :       0.2500    0.2500    0.2500
  band No.  band energies     occupation 
      1     -23.8880      2.00000
      2     -19.2976      2.00000
      3     -13.8829      2.00000
      4     -11.7965      2.00000
      5     -11.7952      2.00000
      6      -8.3041      2.00000
      7      -8.3038      2.00000
      8      -7.1432      2.00000
      9      -0.7637      0.00000
     10      -0.6620      0.00000
     11      -0.6618      0.00000
     12       0.0237      0.00000

 k-point     2 :      -0.2500    0.2500    0.2500
  band No.  band energies     occupation 
      1     -23.8880      2.00000
      2     -19.2976      2.00000
      3     -13.8829      2.00000
      4     -11.7965      2.00000
      5     -11.7952      2.00000
      6      -8.3041      2.00000
      7      -8.3038      2.00000
      8      -7.1432      2.00000
      9      -0.7637      0.00000
     10      -0.6620      0.00000
     11      -0.6618      0.00000
     12       0.0236      0.00000

 k-point     3 :       0.2500   -0.2500    0.2500
  band No.  band energies     occupation 
      1     -23.8880      2.00000
      2     -19.2976      2.00000
      3     -13.8829      2.00000
      4     -11.7965      2.00000
      5     -11.7952      2.00000
      6      -8.3041      2.00000
      7      -8.3038      2.00000
      8      -7.1432      2.00000
      9      -0.7637      0.00000
     10      -0.6620      0.00000
     11      -0.6618      0.00000
     12       0.0237      0.00000

 k-point     4 :      -0.2500   -0.2500    0.2500
  band No.  band energies     occupation 
      1     -23.8880      2.00000
      2     -19.2976      2.00000
      3     -13.8829      2.00000
      4     -11.7965      2.00000
      5     -11.7952      2.00000
      6      -8.3041      2.00000
      7      -8.3038      2.00000
      8      -7.1432      2.00000
      9      -0.7637      0.00000
     10      -0.6620      0.00000
     11      -0.6618      0.00000
     12       0.0235      0.00000


--------------------------------------------------------------------------------------------------------


 soft charge-density along one line, spin component           1
         0         1         2         3         4         5         6         7         8         9
 total charge-density along one line
 
 pseudopotential strength for first ion, spin component:           1
 -2.363  -4.075  -0.002   0.000   0.000
 -4.075  -6.942  -0.006   0.000  -0.001
 -0.002  -0.006  -0.329   0.000   0.001
  0.000   0.000   0.000  -0.334   0.000
  0.000  -0.001   0.001   0.000  -0.334
 total augmentation occupancy for first ion, spin component:           1
  3.522  -0.634   0.438  -0.037   0.068
 -0.634   0.131  -0.081   0.007  -0.012
  0.438  -0.081   0.055  -0.004   0.007
 -0.037   0.007  -0.004   0.009   0.000
  0.068  -0.012   0.007   0.000   0.007


------------------------ aborting loop because EDIFF is reached ----------------------------------------


    CHARGE:  cpu time    5.1902: real time    5.2008
    FORLOC:  cpu time    2.3466: real time    2.3510
    FORNL :  cpu time   16.8914: real time   16.9251
    STRESS:  cpu time   51.7331: real time   51.8360
    FORCOR:  cpu time   20.7398: real time   20.7798
    FORHAR:  cpu time    7.4579: real time    7.4705
    MIXING:  cpu time    0.7839: real time    0.7865
    OFIELD:  cpu time    0.0000: real time    0.0000

  FORCE on cell =-STRESS in cart. coord.  units (eV):
  Direction    XX          YY          ZZ          XY          YZ          ZX
  --------------------------------------------------------------------------------------
  Alpha Z     0.04144     0.04144     0.04144
  Ewald     533.23015    58.29160   111.18057    96.78813   -36.95210  -187.89621
  Hartree   549.47242   300.26676   327.98244    50.58024   -19.29750   -98.21403
  E(xc)     -58.98338   -60.14901   -60.01888     0.23865    -0.09121    -0.46317
  Local   -1226.75683  -532.34558  -609.62894  -141.27570    53.91980   274.29012
  n-local   -26.32981   -24.44916   -24.65899    -0.38953     0.15113     0.75087
  augment     0.54240     0.98032     0.93037    -0.08965     0.03416     0.17391
  Kinetic   227.92638   256.37739   253.19418    -5.82285     2.22671    11.30055
  Fock        0.00000     0.00000     0.00000     0.00000     0.00000     0.00000
  -------------------------------------------------------------------------------------
  Total      -0.85722    -0.98623    -0.97780     0.02930    -0.00902    -0.05796
  in kB      -0.05087    -0.05852    -0.05802     0.00174    -0.00054    -0.00344
  external pressure =       -0.06 kB  Pullay stress =        0.00 kB


 VOLUME and BASIS-vectors are now :
 -----------------------------------------------------------------------------
  energy-cutoff  :      400.00
  volume of cell :    27000.00
      direct lattice vectors                 reciprocal lattice vectors
    30.000000000  0.000000000  0.000000000     0.033333333  0.000000000  0.000000000
     0.000000000 30.000000000  0.000000000     0.000000000  0.033333333  0.000000000
     0.000000000  0.000000000 30.000000000     0.000000000  0.000000000  0.033333333

  length of vectors
    30.000000000 30.000000000 30.000000000     0.033333333  0.033333333  0.033333333


 FORCES acting on ions
    electron-ion (+dipol)            ewald-force                    non-local-force                 convergence-correction
 -----------------------------------------------------------------------------------------------
   0.214E+02 0.628E+02 -.963E+01   -.223E+02 -.684E+02 0.101E+02   0.878E+00 0.559E+01 -.471E+00   -.608E-05 -.417E-05 0.280E-05
   0.541E+02 -.209E+02 0.335E+02   -.581E+02 0.231E+02 -.370E+02   0.391E+01 -.215E+01 0.351E+01   -.102E-04 0.136E-05 -.223E-05
   0.191E+02 -.233E+02 -.598E+02   -.198E+02 0.257E+02 0.650E+02   0.670E+00 -.237E+01 -.512E+01   -.804E-05 0.260E-05 0.171E-05
   0.111E+03 0.218E+02 -.424E+02   -.118E+03 -.231E+02 0.450E+02   0.697E+01 0.136E+01 -.265E+01   -.258E-04 0.642E-05 0.909E-05
   -.212E+03 -.417E+02 0.810E+02   0.236E+03 0.466E+02 -.903E+02   -.244E+02 -.482E+01 0.935E+01   -.688E-04 -.522E-04 -.123E-03
   0.150E+02 0.322E+01 -.608E+01   -.178E+02 -.381E+01 0.721E+01   0.283E+01 0.588E+00 -.112E+01   -.412E-04 -.441E-04 -.112E-03
 -----------------------------------------------------------------------------------------------
   0.917E+01 0.181E+01 -.351E+01   0.000E+00 -.711E-14 0.142E-13   -.917E+01 -.180E+01 0.351E+01   -.160E-03 -.901E-04 -.224E-03
 
 
 POSITION                                       TOTAL-FORCE (eV/Angst)
 -----------------------------------------------------------------------------------
     14.46705     13.66885     15.37664         0.001046      0.001363     -0.000213
     13.87921     15.17130     14.60306         0.000651     -0.000083      0.001272
     14.50733     15.21365     16.27813         0.001713     -0.000523     -0.001284
     14.62978     14.75225     15.28802         0.004918      0.001284     -0.001314
     17.01673     15.22114     14.37755         0.019453      0.003341     -0.008365
     15.93255     15.00716     14.79239        -0.027781     -0.005382      0.009904
 -----------------------------------------------------------------------------------
    total drift:                               -0.000785      0.006336     -0.000787


--------------------------------------------------------------------------------------------------------



  FREE ENERGIE OF THE ION-ELECTRON SYSTEM (eV)
  ---------------------------------------------------
  free  energy   TOTEN  =       -35.64339244 eV

  energy  without entropy=      -35.64339244  energy(sigma->0) =      -35.64339244
 
 d Force =-0.9347272E-06[-0.942E-06,-0.928E-06]  d Energy =-0.9029712E-06-0.318E-07
 d Force = 0.1621616E-02[ 0.162E-02, 0.162E-02]  d Ewald  = 0.1621616E-02 0.840E-10


--------------------------------------------------------------------------------------------------------


    POTLOK:  cpu time   20.7998: real time   20.8375


--------------------------------------------------------------------------------------------------------


 NEB: the previous image is higher in energy: T
 NEB: the next image is higher in energy    : T
 NEB: image is at an extrema
 NEB: diff energy (min, max):     0.000014    0.000479

 NEB: Tangent
 ----------------------------------------------
     -0.09821     -0.15303     -0.35699
      0.11259      0.01647     -0.24462
     -0.30979     -0.30365      0.03972
     -0.04931     -0.10069     -0.09079
      0.28658      0.22616      0.57029
      0.13603      0.07333      0.27160

 NEB: forces: par spring, perp REAL, dneb     0.041112    0.037345    0.000000
 NEB: distance to prev, next image, angle between     1.099933    1.108155   77.873512
 NEB: projections on to tangent (spring, REAL)     0.041112   -0.001074

 stress matrix after NEB project (eV)
     -0.85722      0.02930     -0.05796
      0.02930     -0.98623     -0.00902
     -0.05796     -0.00902     -0.97780
  FORCES: max atom, RMS     0.037512    0.022675
  FORCE total and by dimension    0.055542    0.031543
  Stress total and by dimension    1.634675    0.986227
 OPT: skip step - force has converged


--------------------------------------------------------------------------------------------------------


  
 reached required accuracy - stopping structural energy minimisation
     LOOP+:  cpu time  579.8718: real time  581.0035
    4ORBIT:  cpu time    0.0000: real time    0.0000

 total amount of memory used by VASP on root node  3203890. kBytes
========================================================================

   base      :      30000. kBytes
   nonlr-proj:        694. kBytes
   fftplans  :     924480. kBytes
   grid      :    1872000. kBytes
   one-center:         18. kBytes
   wavefun   :     376698. kBytes
 
  
  
 General timing and accounting informations for this job:
 ========================================================
  
                  Total CPU time used (sec):    49489.719
                            User time (sec):    48826.712
                          System time (sec):      663.007
                         Elapsed time (sec):    49851.785
  
                   Maximum memory used (kb):     4763952.
                   Average memory used (kb):           0.
  
                          Minor page faults:      7920298
                          Major page faults:            6
                 Voluntary context switches:         9193
