unknown system                          
           1
    30.000000    0.000000    0.000000
     0.000000   30.000000    0.000000
     0.000000    0.000000   30.000000
   H    C    N 
   3   2   1
Direct configuration=     1
   0.48184129  0.45606067  0.51297789
   0.46244226  0.50618578  0.48716294
   0.48425379  0.50773387  0.54265752
   0.48764894  0.49208499  0.50970366
   0.56700631  0.50655433  0.47826602
   0.53091436  0.49996951  0.49250669
Direct configuration=     2
   0.48184389  0.45605806  0.51297531
   0.46244496  0.50618503  0.48715859
   0.48424740  0.50772949  0.54265731
   0.48764809  0.49208308  0.50970268
   0.56700705  0.50655864  0.47827168
   0.53091709  0.49997093  0.49251214
Direct configuration=     3
   0.48184954  0.45605288  0.51297097
   0.46245011  0.50617975  0.48715026
   0.48423445  0.50772095  0.54265625
   0.48764705  0.49207872  0.50970096
   0.56700874  0.50656956  0.47828391
   0.53092197  0.49997496  0.49252169
Direct configuration=     4
   0.48186285  0.45604385  0.51296725
   0.46245853  0.50616228  0.48713616
   0.48421112  0.50770754  0.54265271
   0.48764731  0.49207017  0.50969834
   0.56701370  0.50659408  0.47830329
   0.53092492  0.49998353  0.49253766
Direct configuration=     5
   0.48188668  0.45602998  0.51296642
   0.46246947  0.50612868  0.48711613
   0.48417657  0.50768980  0.54264632
   0.48764932  0.49205666  0.50969560
   0.56701718  0.50663434  0.47833023
   0.53092968  0.49999845  0.49255792
Direct configuration=     6
   0.48192085  0.45601009  0.51296844
   0.46248130  0.50608042  0.48709076
   0.48413264  0.50766853  0.54263840
   0.48765365  0.49203868  0.50969331
   0.56701776  0.50668886  0.47836342
   0.53093727  0.50001923  0.49258162
Direct configuration=     7
   0.48196857  0.45598007  0.51297270
   0.46249305  0.50601520  0.48705775
   0.48407731  0.50764285  0.54263002
   0.48766159  0.49201501  0.50969121
   0.56702158  0.50676260  0.47840203
   0.53094170  0.50004571  0.49261441
Direct configuration=     8
   0.48202887  0.45593860  0.51297775
   0.46250168  0.50593847  0.48701816
   0.48401518  0.50761637  0.54262307
   0.48766712  0.49198425  0.50969080
   0.56701590  0.50684891  0.47844769
   0.53096052  0.50007946  0.49265080
Direct configuration=     9
   0.48202933  0.45593800  0.51297743
   0.46250134  0.50593873  0.48701802
   0.48401557  0.50761692  0.54262301
   0.48766709  0.49198425  0.50969051
   0.56702066  0.50684969  0.47844573
   0.53095531  0.50007839  0.49265363
Direct configuration=    10
   0.48203030  0.45593663  0.51297668
   0.46250049  0.50593929  0.48701771
   0.48401638  0.50761812  0.54262288
   0.48766627  0.49198406  0.50969021
   0.56702613  0.50685048  0.47844342
   0.53094984  0.50007719  0.49265759
Direct configuration=    11
   0.48203038  0.45593650  0.51297660
   0.46250039  0.50593933  0.48701768
   0.48401642  0.50761822  0.54262287
   0.48766601  0.49198399  0.50969027
   0.56702525  0.50685031  0.47844378
   0.53095098  0.50007740  0.49265732
Direct configuration=    12
   0.48203056  0.45593623  0.51297644
   0.46250019  0.50593940  0.48701760
   0.48401649  0.50761840  0.54262283
   0.48766551  0.49198385  0.50969039
   0.56702368  0.50685001  0.47844443
   0.53095303  0.50007777  0.49265689
Direct configuration=    13
   0.48203085  0.45593578  0.51297616
   0.46249991  0.50593948  0.48701746
   0.48401657  0.50761864  0.54262278
   0.48766484  0.49198362  0.50969052
   0.56702178  0.50684970  0.47844529
   0.53095558  0.50007825  0.49265651
Direct configuration=    14
   0.48203131  0.45593507  0.51297567
   0.46249954  0.50593956  0.48701721
   0.48401663  0.50761892  0.54262272
   0.48766408  0.49198328  0.50969062
   0.56702024  0.50684955  0.47844621
   0.53095790  0.50007872  0.49265659
Direct configuration=    15
   0.48203134  0.45593503  0.51297563
   0.46249953  0.50593955  0.48701718
   0.48401661  0.50761891  0.54262271
   0.48766407  0.49198326  0.50969061
   0.56702035  0.50684959  0.47844621
   0.53095780  0.50007871  0.49265669
Direct configuration=    16
   0.48203140  0.45593493  0.51297554
   0.46249952  0.50593953  0.48701713
   0.48401657  0.50761888  0.54262271
   0.48766406  0.49198321  0.50969059
   0.56702058  0.50684970  0.47844625
   0.53095762  0.50007869  0.49265690
Direct configuration=    17
   0.48203149  0.45593476  0.51297538
   0.46249951  0.50593948  0.48701703
   0.48401648  0.50761880  0.54262272
   0.48766405  0.49198312  0.50969055
   0.56702093  0.50684990  0.47844635
   0.53095737  0.50007869  0.49265724
Direct configuration=    18
   0.48203164  0.45593451  0.51297514
   0.46249953  0.50593936  0.48701686
   0.48401629  0.50761864  0.54262273
   0.48766403  0.49198298  0.50969050
   0.56702137  0.50685024  0.47844657
   0.53095709  0.50007872  0.49265770
Direct configuration=    19
   0.48203186  0.45593414  0.51297480
   0.46249958  0.50593913  0.48701661
   0.48401598  0.50761835  0.54262276
   0.48766400  0.49198274  0.50969043
   0.56702192  0.50685077  0.47844697
   0.53095682  0.50007880  0.49265831
Direct configuration=    20
   0.48203218  0.45593363  0.51297433
   0.46249968  0.50593876  0.48701626
   0.48401550  0.50761789  0.54262280
   0.48766395  0.49198240  0.50969034
   0.56702255  0.50685153  0.47844763
   0.53095660  0.50007897  0.49265908
Direct configuration=    21
   0.48203266  0.45593286  0.51297362
   0.46249988  0.50593813  0.48701571
   0.48401470  0.50761710  0.54262289
   0.48766389  0.49198185  0.50969021
   0.56702336  0.50685275  0.47844877
   0.53095647  0.50007930  0.49266016
Direct configuration=    22
   0.48203366  0.45593171  0.51297281
   0.46250020  0.50593675  0.48701494
   0.48401342  0.50761588  0.54262300
   0.48766385  0.49198095  0.50969007
   0.56702422  0.50685479  0.47845043
   0.53095643  0.50007993  0.49266157
Direct configuration=    23
   0.48203485  0.45593005  0.51297142
   0.46250074  0.50593500  0.48701376
   0.48401149  0.50761395  0.54262321
   0.48766375  0.49197967  0.50968985
   0.56702540  0.50685764  0.47845317
   0.53095671  0.50008085  0.49266356
Direct configuration=    24
   0.48203667  0.45592776  0.51296961
   0.46250152  0.50593229  0.48701213
   0.48400873  0.50761121  0.54262349
   0.48766364  0.49197783  0.50968958
   0.56702673  0.50686174  0.47845706
   0.53095735  0.50008226  0.49266616
Direct configuration=    25
   0.48203908  0.45592465  0.51296711
   0.46250263  0.50592861  0.48700986
   0.48400488  0.50760738  0.54262387
   0.48766348  0.49197532  0.50968922
   0.56702833  0.50686731  0.47846257
   0.53095854  0.50008424  0.49266958
Direct configuration=    26
   0.48204197  0.45592054  0.51296350
   0.46250416  0.50592407  0.48700676
   0.48399971  0.50760213  0.54262441
   0.48766323  0.49197205  0.50968869
   0.56703041  0.50687451  0.47847030
   0.53096049  0.50008685  0.49267408
Direct configuration=    27
   0.48204527  0.45591521  0.51295836
   0.46250620  0.50591870  0.48700261
   0.48399293  0.50759511  0.54262515
   0.48766287  0.49196790  0.50968795
   0.56703321  0.50688358  0.47848084
   0.53096334  0.50009017  0.49267999
Direct configuration=    28
   0.48204925  0.45590839  0.51295151
   0.46250885  0.50591211  0.48699719
   0.48398418  0.50758592  0.54262606
   0.48766247  0.49196266  0.50968697
   0.56703690  0.50689508  0.47849467
   0.53096706  0.50009435  0.49268766
Direct configuration=    29
   0.48205406  0.45589979  0.51294257
   0.46251226  0.50590410  0.48699027
   0.48397307  0.50757411  0.54262711
   0.48766215  0.49195616  0.50968568
   0.56704182  0.50690955  0.47851242
   0.53097152  0.50009948  0.49269758
Direct configuration=    30
   0.48205988  0.45588912  0.51293108
   0.46251659  0.50589446  0.48698159
   0.48395915  0.50755912  0.54262827
   0.48766199  0.49194819  0.50968401
   0.56704843  0.50692754  0.47853481
   0.53097650  0.50010563  0.49271036
Direct configuration=    31
   0.48206689  0.45587608  0.51291651
   0.46252204  0.50588301  0.48697088
   0.48394197  0.50754033  0.54262942
   0.48766212  0.49193855  0.50968183
   0.56705704  0.50694959  0.47856270
   0.53098191  0.50011289  0.49272664
Direct configuration=    32
   0.48207526  0.45586045  0.51289827
   0.46252880  0.50586962  0.48695792
   0.48392101  0.50751711  0.54263038
   0.48766260  0.49192702  0.50967899
   0.56706766  0.50697616  0.47859728
   0.53098806  0.50012138  0.49274688
Direct configuration=    33
   0.48208527  0.45584210  0.51287576
   0.46253716  0.50585415  0.48694259
   0.48389581  0.50748879  0.54263089
   0.48766336  0.49191333  0.50967531
   0.56707953  0.50700759  0.47863997
   0.53099592  0.50013128  0.49277135
Direct configuration=    34
   0.48209735  0.45582109  0.51284847
   0.46254740  0.50583649  0.48692499
   0.48386606  0.50745481  0.54263055
   0.48766435  0.49189716  0.50967046
   0.56709192  0.50704432  0.47869206
   0.53100611  0.50014256  0.49280030
Direct configuration=    35
   0.48211225  0.45579773  0.51281599
   0.46255995  0.50581669  0.48690547
   0.48383160  0.50741477  0.54262887
   0.48766550  0.49187809  0.50966396
   0.56710563  0.50708682  0.47875375
   0.53101700  0.50015474  0.49283491
Direct configuration=    36
   0.48213110  0.45577259  0.51277826
   0.46257506  0.50579525  0.48688482
   0.48379272  0.50736883  0.54262512
   0.48766707  0.49185570  0.50965531
   0.56712159  0.50713515  0.47882428
   0.53102580  0.50016691  0.49287649
Direct configuration=    37
   0.48215566  0.45574577  0.51273608
   0.46259185  0.50577413  0.48686468
   0.48375086  0.50731834  0.54261786
   0.48766736  0.49183083  0.50964535
   0.56713202  0.50718609  0.47890454
   0.53103921  0.50017915  0.49292145
Direct configuration=    38
   0.48215584  0.45574573  0.51273619
   0.46259172  0.50577436  0.48686481
   0.48375104  0.50731855  0.54261778
   0.48766745  0.49183096  0.50964536
   0.56713264  0.50718602  0.47890402
   0.53103822  0.50017884  0.49292169
Direct configuration=    39
   0.48215620  0.45574563  0.51273639
   0.46259144  0.50577481  0.48686506
   0.48375138  0.50731894  0.54261762
   0.48766760  0.49183119  0.50964539
   0.56713363  0.50718585  0.47890310
   0.53103655  0.50017830  0.49292207
Direct configuration=    40
   0.48215679  0.45574545  0.51273666
   0.46259102  0.50577551  0.48686544
   0.48375185  0.50731950  0.54261740
   0.48766768  0.49183149  0.50964545
   0.56713451  0.50718550  0.47890203
   0.53103481  0.50017762  0.49292239
Direct configuration=    41
   0.48215683  0.45574543  0.51273666
   0.46259099  0.50577555  0.48686546
   0.48375186  0.50731952  0.54261739
   0.48766765  0.49183150  0.50964546
   0.56713442  0.50718546  0.47890205
   0.53103490  0.50017762  0.49292235
Direct configuration=    42
   0.48215692  0.45574538  0.51273665
   0.46259095  0.50577562  0.48686548
   0.48375187  0.50731955  0.54261737
   0.48766760  0.49183149  0.50964547
   0.56713425  0.50718539  0.47890211
   0.53103508  0.50017763  0.49292228
Direct configuration=    43
   0.48215705  0.45574529  0.51273662
   0.46259089  0.50577572  0.48686551
   0.48375186  0.50731956  0.54261736
   0.48766752  0.49183147  0.50964548
   0.56713404  0.50718533  0.47890224
   0.53103533  0.50017765  0.49292220
Direct configuration=    44
   0.48215723  0.45574515  0.51273654
   0.46259084  0.50577583  0.48686551
   0.48375180  0.50731953  0.54261734
   0.48766742  0.49183142  0.50964549
   0.56713382  0.50718529  0.47890247
   0.53103562  0.50017768  0.49292215
Direct configuration=    45
   0.48215745  0.45574495  0.51273639
   0.46259079  0.50577593  0.48686547
   0.48375168  0.50731943  0.54261733
   0.48766731  0.49183134  0.50964548
   0.56713364  0.50718533  0.47890282
   0.53103595  0.50017773  0.49292216
Direct configuration=    46
   0.48215771  0.45574467  0.51273615
   0.46259077  0.50577601  0.48686538
   0.48375145  0.50731924  0.54261733
   0.48766718  0.49183120  0.50964545
   0.56713355  0.50718547  0.47890333
   0.53103627  0.50017780  0.49292226
Direct configuration=    47
   0.48215805  0.45574425  0.51273575
   0.46259079  0.50577604  0.48686519
   0.48375105  0.50731888  0.54261735
   0.48766703  0.49183098  0.50964538
   0.56713360  0.50718579  0.47890412
   0.53103662  0.50017791  0.49292252
Direct configuration=    48
   0.48215848  0.45574364  0.51273510
   0.46259088  0.50577602  0.48686483
   0.48375038  0.50731825  0.54261738
   0.48766685  0.49183063  0.50964525
   0.56713388  0.50718639  0.47890534
   0.53103698  0.50017809  0.49292304
Direct configuration=    49
   0.48215905  0.45574279  0.51273415
   0.46259106  0.50577589  0.48686427
   0.48374937  0.50731730  0.54261744
   0.48766665  0.49183011  0.50964505
   0.56713446  0.50718737  0.47890708
   0.53103733  0.50017834  0.49292388
Direct configuration=    50
   0.48215977  0.45574164  0.51273283
   0.46259136  0.50577563  0.48686346
   0.48374794  0.50731593  0.54261753
   0.48766642  0.49182938  0.50964474
   0.56713543  0.50718881  0.47890949
   0.53103766  0.50017870  0.49292513
Direct configuration=    51
   0.48216069  0.45574012  0.51273102
   0.46259181  0.50577520  0.48686233
   0.48374597  0.50731403  0.54261765
   0.48766616  0.49182839  0.50964433
   0.56713683  0.50719082  0.47891274
   0.53103800  0.50017919  0.49292688
Direct configuration=    52
   0.48216187  0.45573817  0.51272863
   0.46259244  0.50577456  0.48686082
   0.48374333  0.50731148  0.54261779
   0.48766587  0.49182708  0.50964377
   0.56713865  0.50719352  0.47891708
   0.53103847  0.50017986  0.49292921
Direct configuration=    53
   0.48216336  0.45573569  0.51272552
   0.46259331  0.50577364  0.48685886
   0.48373990  0.50730810  0.54261793
   0.48766554  0.49182538  0.50964307
   0.56714081  0.50719702  0.47892282
   0.53103926  0.50018081  0.49293217
Direct configuration=    54
   0.48216521  0.45573261  0.51272151
   0.46259447  0.50577241  0.48685636
   0.48373550  0.50730373  0.54261804
   0.48766515  0.49182322  0.50964218
   0.56714319  0.50720141  0.47893036
   0.53104062  0.50018211  0.49293584
Direct configuration=    55
   0.48216750  0.45572884  0.51271644
   0.46259599  0.50577080  0.48685325
   0.48372997  0.50729815  0.54261807
   0.48766474  0.49182052  0.50964106
   0.56714577  0.50720688  0.47894006
   0.53104264  0.50018383  0.49294034
Direct configuration=    56
   0.48217031  0.45572431  0.51271007
   0.46259797  0.50576872  0.48684945
   0.48372314  0.50729110  0.54261792
   0.48766439  0.49181722  0.50963966
   0.56714878  0.50721366  0.47895228
   0.53104508  0.50018595  0.49294598
Direct configuration=    57
   0.48217375  0.45571896  0.51270218
   0.46260051  0.50576609  0.48684491
   0.48371486  0.50728232  0.54261749
   0.48766424  0.49181325  0.50963785
   0.56715272  0.50722206  0.47896726
   0.53104734  0.50018842  0.49295318
Direct configuration=    58
   0.48217798  0.45571275  0.51269254
   0.46260377  0.50576275  0.48683959
   0.48370494  0.50727153  0.54261668
   0.48766431  0.49180851  0.50963555
   0.56715780  0.50723233  0.47898534
   0.53104918  0.50019127  0.49296228
Direct configuration=    59
   0.48218318  0.45570562  0.51268092
   0.46260786  0.50575848  0.48683349
   0.48369322  0.50725843  0.54261538
   0.48766446  0.49180281  0.50963271
   0.56716319  0.50724462  0.47900730
   0.53105155  0.50019476  0.49297317
Direct configuration=    60
   0.48218949  0.45569753  0.51266715
   0.46261274  0.50575311  0.48682660
   0.48367957  0.50724286  0.54261352
   0.48766437  0.49179597  0.50962926
   0.56716861  0.50725900  0.47903387
   0.53105520  0.50019915  0.49298559
Direct configuration=    61
   0.48219715  0.45568826  0.51265109
   0.46261822  0.50574645  0.48681876
   0.48366397  0.50722475  0.54261111
   0.48766422  0.49178790  0.50962507
   0.56717590  0.50727598  0.47906487
   0.53105818  0.50020423  0.49300035
Direct configuration=    62
   0.48220616  0.45567718  0.51263262
   0.46262367  0.50573844  0.48680961
   0.48364641  0.50720416  0.54260844
   0.48766381  0.49177852  0.50962025
   0.56718496  0.50729569  0.47910108
   0.53106153  0.50021033  0.49301693
Direct configuration=    63
   0.48221619  0.45566349  0.51261163
   0.46262835  0.50572938  0.48679872
   0.48362689  0.50718131  0.54260629
   0.48766293  0.49176801  0.50961501
   0.56719413  0.50731735  0.47914327
   0.53106824  0.50021827  0.49303417
Direct configuration=    64
   0.48222672  0.45564814  0.51258881
   0.46263265  0.50571988  0.48678673
   0.48360645  0.50715695  0.54260484
   0.48766245  0.49175655  0.50960876
   0.56721189  0.50734208  0.47918603
   0.53106752  0.50022557  0.49305570
Direct configuration=    65
   0.48223703  0.45563156  0.51256394
   0.46263701  0.50570994  0.48677378
   0.48358459  0.50713045  0.54260380
   0.48765906  0.49174386  0.50960309
   0.56721509  0.50736515  0.47923831
   0.53108662  0.50023749  0.49307132
Direct configuration=    66
   0.48223704  0.45563149  0.51256355
   0.46263721  0.50570992  0.48677362
   0.48358451  0.50713007  0.54260376
   0.48766006  0.49174402  0.50960269
   0.56722052  0.50736637  0.47923679
   0.53108015  0.50023631  0.49307404
Direct configuration=    67
   0.48223693  0.45563115  0.51256234
   0.46263772  0.50570986  0.48677306
   0.48358392  0.50712886  0.54260372
   0.48766129  0.49174404  0.50960207
   0.56722733  0.50736826  0.47923615
   0.53107261  0.50023509  0.49307783
Direct configuration=    68
   0.48223686  0.45563107  0.51256210
   0.46263779  0.50570986  0.48677294
   0.48358374  0.50712863  0.54260374
   0.48766111  0.49174394  0.50960208
   0.56722653  0.50736821  0.47923688
   0.53107383  0.50023538  0.49307757
Direct configuration=    69
   0.48223671  0.45563087  0.51256155
   0.46263795  0.50570985  0.48677263
   0.48358330  0.50712811  0.54260379
   0.48766078  0.49174374  0.50960206
   0.56722519  0.50736821  0.47923840
   0.53107606  0.50023591  0.49307719
Direct configuration=    70
   0.48223646  0.45563050  0.51256056
   0.46263826  0.50570985  0.48677207
   0.48358252  0.50712718  0.54260388
   0.48766034  0.49174341  0.50960197
   0.56722378  0.50736839  0.47924074
   0.53107888  0.50023664  0.49307696
Direct configuration=    71
   0.48223608  0.45562994  0.51255904
   0.46263874  0.50570985  0.48677117
   0.48358130  0.50712578  0.54260400
   0.48765988  0.49174295  0.50960173
   0.56722289  0.50736893  0.47924388
   0.53108169  0.50023744  0.49307722
Direct configuration=    72
   0.48223560  0.45562919  0.51255703
   0.46263940  0.50570986  0.48676996
   0.48357971  0.50712396  0.54260414
   0.48765950  0.49174238  0.50960133
   0.56722296  0.50736988  0.47924754
   0.53108387  0.50023819  0.49307814
Direct configuration=    73
   0.48223503  0.45562831  0.51255460
   0.46264021  0.50570990  0.48676850
   0.48357781  0.50712178  0.54260430
   0.48765925  0.49174174  0.50960078
   0.56722420  0.50737125  0.47925151
   0.53108509  0.50023880  0.49307979
Direct configuration=    74
   0.48223503  0.45562831  0.51255460
   0.46264021  0.50570990  0.48676850
   0.48357781  0.50712178  0.54260430
   0.48765925  0.49174174  0.50960078
   0.56722420  0.50737125  0.47925151
   0.53108509  0.50023880  0.49307979
