   6   6   0   0
  0.4500000E+04  0.3000000E-08  0.3000000E-08  0.3000000E-08  0.0000000E+00
  1.000000000000000E-004
  CAR 
 unknown system                          
      2.02552472    -26.23600006  301     -6.35835964      1.00000000
    -26.236  0.0000E+00  0.0000E+00
    -26.142  0.0000E+00  0.0000E+00
    -26.048  0.0000E+00  0.0000E+00
    -25.953  0.0000E+00  0.0000E+00
    -25.859  0.0000E+00  0.0000E+00
    -25.765  0.0000E+00  0.0000E+00
    -25.671  0.0000E+00  0.0000E+00
    -25.577  0.0000E+00  0.0000E+00
    -25.482  0.0000E+00  0.0000E+00
    -25.388  0.1179E-16  0.1110E-17
    -25.294  0.2601E-14  0.2461E-15
    -25.200  0.3316E-12  0.3149E-13
    -25.106  0.2733E-10  0.2606E-11
    -25.011  0.1457E-08  0.1398E-09
    -24.917  0.5026E-07  0.4875E-08
    -24.823  0.1124E-05  0.1107E-06
    -24.729  0.1630E-04  0.1646E-05
    -24.635  0.1536E-03  0.1611E-04
    -24.540  0.9405E-03  0.1047E-03
    -24.446  0.3749E-02  0.4579E-03
    -24.352  0.9735E-02  0.1375E-02
    -24.258  0.1647E-01  0.2927E-02
    -24.163  0.1818E-01  0.4640E-02
    -24.069  0.1308E-01  0.5872E-02
    -23.975  0.6136E-02  0.6450E-02
    -23.881  0.1875E-02  0.6627E-02
    -23.787  0.3732E-03  0.6662E-02
    -23.692  0.4831E-04  0.6666E-02
    -23.598  0.4064E-05  0.6667E-02
    -23.504  0.2219E-06  0.6667E-02
    -23.410  0.7854E-08  0.6667E-02
    -23.316  0.1801E-09  0.6667E-02
    -23.221  0.2671E-11  0.6667E-02
    -23.127  0.2561E-13  0.6667E-02
    -23.033  0.1571E-15  0.6667E-02
    -22.939  0.0000E+00  0.6667E-02
    -22.845  0.0000E+00  0.6667E-02
    -22.750  0.0000E+00  0.6667E-02
    -22.656  0.0000E+00  0.6667E-02
    -22.562  0.0000E+00  0.6667E-02
    -22.468  0.0000E+00  0.6667E-02
    -22.374  0.0000E+00  0.6667E-02
    -22.279  0.0000E+00  0.6667E-02
    -22.185  0.0000E+00  0.6667E-02
    -22.091  0.0000E+00  0.6667E-02
    -21.997  0.0000E+00  0.6667E-02
    -21.903  0.0000E+00  0.6667E-02
    -21.808  0.0000E+00  0.6667E-02
    -21.714  0.0000E+00  0.6667E-02
    -21.620  0.0000E+00  0.6667E-02
    -21.526  0.0000E+00  0.6667E-02
    -21.432  0.0000E+00  0.6667E-02
    -21.337  0.0000E+00  0.6667E-02
    -21.243  0.0000E+00  0.6667E-02
    -21.149  0.0000E+00  0.6667E-02
    -21.055  0.0000E+00  0.6667E-02
    -20.961  0.0000E+00  0.6667E-02
    -20.866  0.0000E+00  0.6667E-02
    -20.772  0.0000E+00  0.6667E-02
    -20.678  0.0000E+00  0.6667E-02
    -20.584  0.0000E+00  0.6667E-02
    -20.489  0.0000E+00  0.6667E-02
    -20.395  0.0000E+00  0.6667E-02
    -20.301  0.0000E+00  0.6667E-02
    -20.207  0.0000E+00  0.6667E-02
    -20.113  0.0000E+00  0.6667E-02
    -20.018  0.0000E+00  0.6667E-02
    -19.924  0.0000E+00  0.6667E-02
    -19.830  0.0000E+00  0.6667E-02
    -19.736  0.0000E+00  0.6667E-02
    -19.642  0.0000E+00  0.6667E-02
    -19.547  0.0000E+00  0.6667E-02
    -19.453  0.0000E+00  0.6667E-02
    -19.359  0.0000E+00  0.6667E-02
    -19.265  0.0000E+00  0.6667E-02
    -19.171  0.0000E+00  0.6667E-02
    -19.076  0.0000E+00  0.6667E-02
    -18.982  0.5500E-16  0.6667E-02
    -18.888  0.9353E-14  0.6667E-02
    -18.794  0.1067E-11  0.6667E-02
    -18.700  0.7868E-10  0.6667E-02
    -18.605  0.3752E-08  0.6667E-02
    -18.511  0.1159E-06  0.6667E-02
    -18.417  0.2319E-05  0.6667E-02
    -18.323  0.3012E-04  0.6670E-02
    -18.229  0.2542E-03  0.6694E-02
    -18.134  0.1395E-02  0.6825E-02
    -18.040  0.4983E-02  0.7295E-02
    -17.946  0.1160E-01  0.8387E-02
    -17.852  0.1760E-01  0.1004E-01
    -17.758  0.1741E-01  0.1168E-01
    -17.663  0.1123E-01  0.1274E-01
    -17.569  0.4721E-02  0.1319E-01
    -17.475  0.1293E-02  0.1331E-01
    -17.381  0.2306E-03  0.1333E-01
    -17.287  0.2674E-04  0.1333E-01
    -17.192  0.2014E-05  0.1333E-01
    -17.098  0.9846E-07  0.1333E-01
    -17.004  0.3119E-08  0.1333E-01
    -16.910  0.6399E-10  0.1333E-01
    -16.815  0.8491E-12  0.1333E-01
    -16.721  0.7283E-14  0.1333E-01
    -16.627  0.3928E-16  0.1333E-01
    -16.533  0.0000E+00  0.1333E-01
    -16.439  0.0000E+00  0.1333E-01
    -16.344  0.0000E+00  0.1333E-01
    -16.250  0.0000E+00  0.1333E-01
    -16.156  0.0000E+00  0.1333E-01
    -16.062  0.0000E+00  0.1333E-01
    -15.968  0.0000E+00  0.1333E-01
    -15.873  0.0000E+00  0.1333E-01
    -15.779  0.0000E+00  0.1333E-01
    -15.685  0.0000E+00  0.1333E-01
    -15.591  0.0000E+00  0.1333E-01
    -15.497  0.0000E+00  0.1333E-01
    -15.402  0.0000E+00  0.1333E-01
    -15.308  0.0000E+00  0.1333E-01
    -15.214  0.0000E+00  0.1333E-01
    -15.120  0.0000E+00  0.1333E-01
    -15.026  0.0000E+00  0.1333E-01
    -14.931  0.0000E+00  0.1333E-01
    -14.837  0.0000E+00  0.1333E-01
    -14.743  0.0000E+00  0.1333E-01
    -14.649  0.0000E+00  0.1333E-01
    -14.555  0.0000E+00  0.1333E-01
    -14.460  0.0000E+00  0.1333E-01
    -14.366  0.0000E+00  0.1333E-01
    -14.272  0.0000E+00  0.1333E-01
    -14.178  0.0000E+00  0.1333E-01
    -14.084  0.0000E+00  0.1333E-01
    -13.989  0.0000E+00  0.1333E-01
    -13.895  0.3811E-15  0.1333E-01
    -13.801  0.5686E-13  0.1333E-01
    -13.707  0.5517E-11  0.1333E-01
    -13.613  0.3461E-09  0.1333E-01
    -13.518  0.1405E-07  0.1333E-01
    -13.424  0.3695E-06  0.1333E-01
    -13.330  0.6302E-05  0.1333E-01
    -13.236  0.6976E-04  0.1334E-01
    -13.141  0.5019E-03  0.1339E-01
    -13.047  0.2350E-02  0.1361E-01
    -12.953  0.7162E-02  0.1428E-01
    -12.859  0.1423E-01  0.1562E-01
    -12.765  0.1842E-01  0.1736E-01
    -12.670  0.1556E-01  0.1882E-01
    -12.576  0.8564E-02  0.1963E-01
    -12.482  0.3073E-02  0.1992E-01
    -12.388  0.7182E-03  0.1999E-01
    -12.294  0.1092E-03  0.2000E-01
    -12.199  0.1081E-04  0.2000E-01
    -12.105  0.1114E-05  0.2000E-01
    -12.011  0.7073E-05  0.2000E-01
    -11.917  0.7657E-04  0.2001E-01
    -11.823  0.5412E-03  0.2006E-01
    -11.728  0.2492E-02  0.2029E-01
    -11.634  0.7509E-02  0.2100E-01
    -11.540  0.1501E-01  0.2242E-01
    -11.446  0.2080E-01  0.2438E-01
    -11.352  0.2247E-01  0.2649E-01
    -11.257  0.2251E-01  0.2861E-01
    -11.163  0.2134E-01  0.3062E-01
    -11.069  0.1621E-01  0.3215E-01
    -10.975  0.8651E-02  0.3296E-01
    -10.881  0.3075E-02  0.3325E-01
    -10.786  0.7164E-03  0.3332E-01
    -10.692  0.1088E-03  0.3333E-01
    -10.598  0.1074E-04  0.3333E-01
    -10.504  0.6890E-06  0.3333E-01
    -10.410  0.2866E-07  0.3333E-01
    -10.315  0.7725E-09  0.3333E-01
    -10.221  0.1349E-10  0.3333E-01
    -10.127  0.2048E-11  0.3333E-01
    -10.033  0.1322E-09  0.3333E-01
     -9.939  0.5963E-08  0.3333E-01
     -9.844  0.1742E-06  0.3333E-01
     -9.750  0.3299E-05  0.3333E-01
     -9.656  0.4054E-04  0.3334E-01
     -9.562  0.3237E-03  0.3337E-01
     -9.467  0.1682E-02  0.3353E-01
     -9.373  0.5686E-02  0.3406E-01
     -9.279  0.1253E-01  0.3524E-01
     -9.185  0.1800E-01  0.3694E-01
     -9.091  0.1685E-01  0.3853E-01
     -8.996  0.1029E-01  0.3950E-01
     -8.902  0.4097E-02  0.3988E-01
     -8.808  0.1068E-02  0.3998E-01
     -8.714  0.2440E-03  0.4000E-01
     -8.620  0.4923E-03  0.4005E-01
     -8.525  0.2246E-02  0.4026E-01
     -8.431  0.6943E-02  0.4092E-01
     -8.337  0.1399E-01  0.4224E-01
     -8.243  0.1839E-01  0.4397E-01
     -8.149  0.1576E-01  0.4545E-01
     -8.054  0.8802E-02  0.4628E-01
     -7.960  0.3205E-02  0.4658E-01
     -7.866  0.7696E-03  0.4666E-01
     -7.772  0.2161E-03  0.4668E-01
     -7.678  0.6750E-03  0.4674E-01
     -7.583  0.2897E-02  0.4701E-01
     -7.489  0.8238E-02  0.4779E-01
     -7.395  0.1527E-01  0.4923E-01
     -7.301  0.1845E-01  0.5096E-01
     -7.207  0.1454E-01  0.5233E-01
     -7.112  0.7470E-02  0.5304E-01
     -7.018  0.2501E-02  0.5327E-01
     -6.924  0.5453E-03  0.5333E-01
     -6.830  0.7735E-04  0.5333E-01
     -6.736  0.7131E-05  0.5333E-01
     -6.641  0.4268E-06  0.5333E-01
     -6.547  0.1657E-07  0.5333E-01
     -6.453  0.4166E-09  0.5333E-01
     -6.359  0.6779E-11  0.5333E-01
     -6.265  0.7132E-13  0.5333E-01
     -6.170  0.4871E-15  0.5333E-01
     -6.076  0.0000E+00  0.5333E-01
     -5.982  0.0000E+00  0.5333E-01
     -5.888  0.0000E+00  0.5333E-01
     -5.793  0.0000E+00  0.5333E-01
     -5.699  0.0000E+00  0.5333E-01
     -5.605  0.0000E+00  0.5333E-01
     -5.511  0.0000E+00  0.5333E-01
     -5.417  0.0000E+00  0.5333E-01
     -5.322  0.0000E+00  0.5333E-01
     -5.228  0.0000E+00  0.5333E-01
     -5.134  0.0000E+00  0.5333E-01
     -5.040  0.0000E+00  0.5333E-01
     -4.946  0.0000E+00  0.5333E-01
     -4.851  0.0000E+00  0.5333E-01
     -4.757  0.0000E+00  0.5333E-01
     -4.663  0.0000E+00  0.5333E-01
     -4.569  0.0000E+00  0.5333E-01
     -4.475  0.0000E+00  0.5333E-01
     -4.380  0.0000E+00  0.5333E-01
     -4.286  0.0000E+00  0.5333E-01
     -4.192  0.0000E+00  0.5333E-01
     -4.098  0.0000E+00  0.5333E-01
     -4.004  0.0000E+00  0.5333E-01
     -3.909  0.0000E+00  0.5333E-01
     -3.815  0.0000E+00  0.5333E-01
     -3.721  0.0000E+00  0.5333E-01
     -3.627  0.1021E-15  0.5333E-01
     -3.533  0.1730E-13  0.5333E-01
     -3.438  0.1869E-11  0.5333E-01
     -3.344  0.1305E-09  0.5333E-01
     -3.250  0.5894E-08  0.5333E-01
     -3.156  0.1724E-06  0.5333E-01
     -3.062  0.3269E-05  0.5333E-01
     -2.967  0.4024E-04  0.5334E-01
     -2.873  0.3218E-03  0.5337E-01
     -2.779  0.1674E-02  0.5353E-01
     -2.685  0.5668E-02  0.5406E-01
     -2.591  0.1251E-01  0.5524E-01
     -2.496  0.1799E-01  0.5693E-01
     -2.402  0.1687E-01  0.5852E-01
     -2.308  0.1032E-01  0.5949E-01
     -2.214  0.4112E-02  0.5988E-01
     -2.119  0.1068E-02  0.5998E-01
     -2.025  0.1805E-03  0.6000E-01
     -1.931  0.1983E-04  0.6000E-01
     -1.837  0.1454E-05  0.6000E-01
     -1.743  0.9529E-06  0.6000E-01
     -1.648  0.1333E-04  0.6000E-01
     -1.554  0.1301E-03  0.6001E-01
     -1.460  0.8249E-03  0.6009E-01
     -1.366  0.3405E-02  0.6041E-01
     -1.272  0.9154E-02  0.6127E-01
     -1.177  0.1604E-01  0.6279E-01
     -1.083  0.1832E-01  0.6451E-01
     -0.989  0.1365E-01  0.6580E-01
     -0.895  0.6651E-02  0.6642E-01
     -0.801  0.2285E-02  0.6664E-01
     -0.706  0.1529E-02  0.6678E-01
     -0.612  0.4252E-02  0.6718E-01
     -0.518  0.1045E-01  0.6817E-01
     -0.424  0.1700E-01  0.6977E-01
     -0.330  0.1833E-01  0.7150E-01
     -0.235  0.1431E-01  0.7285E-01
     -0.141  0.1183E-01  0.7396E-01
     -0.047  0.1486E-01  0.7536E-01
      0.047  0.1853E-01  0.7710E-01
      0.141  0.1641E-01  0.7865E-01
      0.236  0.9591E-02  0.7955E-01
      0.330  0.3661E-02  0.7990E-01
      0.424  0.9108E-03  0.7998E-01
      0.518  0.1475E-03  0.8000E-01
      0.612  0.1552E-04  0.8000E-01
      0.707  0.1062E-05  0.8000E-01
      0.801  0.4709E-07  0.8000E-01
      0.895  0.1354E-08  0.8000E-01
      0.989  0.2520E-10  0.8000E-01
      1.083  0.3034E-12  0.8000E-01
      1.178  0.2359E-14  0.8000E-01
      1.272  0.1375E-16  0.8000E-01
      1.366  0.0000E+00  0.8000E-01
      1.460  0.0000E+00  0.8000E-01
      1.554  0.0000E+00  0.8000E-01
      1.649  0.0000E+00  0.8000E-01
      1.743  0.0000E+00  0.8000E-01
      1.837  0.0000E+00  0.8000E-01
      1.931  0.0000E+00  0.8000E-01
      2.026  0.0000E+00  0.8000E-01
