    6    6  300    1
  0.4500000E+04  0.3000000E-08  0.3000000E-08  0.3000000E-08  0.0000000E+00
  1.000000000000000E-004
  CAR 
 unknown system                          
     16      4     12
 
  0.2500000E+00  0.2500000E+00  0.2500000E+00  0.2500000E+00
    1      -24.235999   1.000000
    2      -17.854126   1.000000
    3      -12.801929   1.000000
    4      -11.487070   1.000000
    5      -11.200619   1.000000
    6       -9.199313   1.000000
    7       -8.276866   1.000000
    8       -7.353264   1.000000
    9       -2.510449   0.000000
   10       -1.148098   0.000000
   11       -0.411312   0.000000
   12        0.019778   0.000000
 
 -0.2500000E+00  0.2500000E+00  0.2500000E+00  0.2500000E+00
    1      -24.235999   1.000000
    2      -17.854126   1.000000
    3      -12.801929   1.000000
    4      -11.487066   1.000000
    5      -11.200627   1.000000
    6       -9.199314   1.000000
    7       -8.276865   1.000000
    8       -7.353272   1.000000
    9       -2.510444   0.000000
   10       -1.148109   0.000000
   11       -0.411311   0.000000
   12        0.024064   0.000000
 
  0.2500000E+00 -0.2500000E+00  0.2500000E+00  0.2500000E+00
    1      -24.236000   1.000000
    2      -17.854125   1.000000
    3      -12.801924   1.000000
    4      -11.487071   1.000000
    5      -11.200629   1.000000
    6       -9.199316   1.000000
    7       -8.276883   1.000000
    8       -7.353266   1.000000
    9       -2.510450   0.000000
   10       -1.148105   0.000000
   11       -0.411312   0.000000
   12        0.025025   0.000000
 
 -0.2500000E+00 -0.2500000E+00  0.2500000E+00  0.2500000E+00
    1      -24.236000   1.000000
    2      -17.854126   1.000000
    3      -12.801926   1.000000
    4      -11.487078   1.000000
    5      -11.200626   1.000000
    6       -9.199319   1.000000
    7       -8.276874   1.000000
    8       -7.353267   1.000000
    9       -2.510451   0.000000
   10       -1.148106   0.000000
   11       -0.411312   0.000000
   12        0.025525   0.000000
