       N       E                     dE             d eps       ncg     rms          rms(c)
DAV:   1     0.108706046089E+03    0.10871E+03   -0.21343E+03   160   0.366E+02
DAV:   2    -0.297291568657E+01   -0.11168E+03   -0.10832E+03   192   0.103E+02
DAV:   3    -0.341041408625E+02   -0.31131E+02   -0.30986E+02   128   0.871E+01
DAV:   4    -0.373277167026E+02   -0.32236E+01   -0.31845E+01   112   0.293E+01
DAV:   5    -0.374208036550E+02   -0.93087E-01   -0.92036E-01   128   0.512E+00    0.107E+01
DAV:   6    -0.349648372688E+02    0.24560E+01   -0.41940E+00   128   0.151E+01    0.571E+00
DAV:   7    -0.343630471606E+02    0.60179E+00   -0.13230E+00   128   0.836E+00    0.236E+00
DAV:   8    -0.342820448812E+02    0.81002E-01   -0.19978E-01   128   0.336E+00    0.856E-01
DAV:   9    -0.342677259958E+02    0.14319E-01   -0.27281E-02   128   0.135E+00    0.214E-01
DAV:  10    -0.342673220961E+02    0.40390E-03   -0.29774E-03   128   0.466E-01    0.116E-01
DAV:  11    -0.342689710240E+02   -0.16489E-02   -0.12996E-03   112   0.262E-01    0.644E-02
DAV:  12    -0.342724623603E+02   -0.34913E-02   -0.14298E-03   112   0.245E-01    0.381E-02
DAV:  13    -0.342766913258E+02   -0.42290E-02   -0.89811E-04   148   0.168E-01    0.248E-02
DAV:  14    -0.342805490355E+02   -0.38577E-02   -0.45679E-04   128   0.108E-01    0.142E-02
DAV:  15    -0.342823755995E+02   -0.18266E-02   -0.15177E-04   112   0.581E-02    0.928E-03
DAV:  16    -0.342843027988E+02   -0.19272E-02   -0.19104E-04   124   0.625E-02    0.499E-03
DAV:  17    -0.342849351628E+02   -0.63236E-03   -0.26953E-05    96   0.279E-02    0.279E-03
DAV:  18    -0.342853116660E+02   -0.37650E-03   -0.29149E-05    92   0.252E-02    0.195E-03
DAV:  19    -0.342854646006E+02   -0.15293E-03   -0.10236E-05    92   0.160E-02    0.960E-04
DAV:  20    -0.342855362021E+02   -0.71601E-04   -0.38104E-06    80   0.115E-02
   1 F= -.34285536E+02 E0= -.34285536E+02  d E =-.342855E+02
       N       E                     dE             d eps       ncg     rms          rms(c)
DAV:   1    -0.342856641064E+02   -0.19951E-03   -0.24641E-02   124   0.147E+00    0.685E-02
DAV:   2    -0.342856026434E+02    0.61463E-04   -0.41068E-04   128   0.190E-01    0.360E-02
DAV:   3    -0.342855952440E+02    0.73994E-05   -0.11154E-04    96   0.997E-02    0.148E-02
DAV:   4    -0.342856057039E+02   -0.10460E-04   -0.25075E-05    88   0.522E-02    0.657E-03
DAV:   5    -0.342856124126E+02   -0.67087E-05   -0.43215E-06    84   0.214E-02    0.219E-03
DAV:   6    -0.342856165969E+02   -0.41843E-05   -0.11386E-06    88   0.111E-02
   2 F= -.34285617E+02 E0= -.34285617E+02  d E =-.803949E-04
       N       E                     dE             d eps       ncg     rms          rms(c)
DAV:   1    -0.342856443484E+02   -0.31936E-04   -0.12070E-03   116   0.330E-01    0.152E-02
DAV:   2    -0.342856436598E+02    0.68851E-06   -0.19723E-05    68   0.469E-02    0.775E-03
DAV:   3    -0.342856454535E+02   -0.17937E-05   -0.70864E-06    84   0.268E-02    0.285E-03
DAV:   4    -0.342856473820E+02   -0.19285E-05   -0.20346E-06    80   0.135E-02    0.141E-03
DAV:   5    -0.342856488148E+02   -0.14328E-05   -0.34454E-07    88   0.588E-03    0.563E-04
DAV:   6    -0.342856498062E+02   -0.99144E-06   -0.93962E-08    80   0.306E-03
   3 F= -.34285650E+02 E0= -.34285650E+02  d E =-.332093E-04
       N       E                     dE             d eps       ncg     rms          rms(c)
DAV:   1    -0.342854852222E+02    0.16359E-03   -0.30094E-03   104   0.523E-01    0.231E-02
DAV:   2    -0.342854787885E+02    0.64338E-05   -0.50754E-05    88   0.741E-02    0.119E-02
DAV:   3    -0.342854783963E+02    0.39220E-06   -0.15946E-05    96   0.406E-02    0.456E-03
DAV:   4    -0.342854794590E+02   -0.10627E-05   -0.50846E-06    96   0.211E-02    0.215E-03
DAV:   5    -0.342854796971E+02   -0.23814E-06   -0.86893E-07    96   0.941E-03    0.914E-04
DAV:   6    -0.342854798101E+02   -0.11302E-06   -0.24770E-07    96   0.492E-03
   4 F= -.34285480E+02 E0= -.34285480E+02  d E =0.169996E-03
       N       E                     dE             d eps       ncg     rms          rms(c)
DAV:   1    -0.342849805072E+02    0.49919E-03   -0.28191E-03    96   0.513E-01    0.192E-02
DAV:   2    -0.342849763846E+02    0.41226E-05   -0.46559E-05    76   0.686E-02    0.101E-02
DAV:   3    -0.342849762130E+02    0.17160E-06   -0.11270E-05    96   0.343E-02    0.420E-03
DAV:   4    -0.342849769590E+02   -0.74604E-06   -0.41105E-06    80   0.189E-02    0.181E-03
DAV:   5    -0.342849770288E+02   -0.69764E-07   -0.75828E-07    88   0.888E-03    0.824E-04
DAV:   6    -0.342849771374E+02   -0.10857E-06   -0.24895E-07    68   0.464E-03
   5 F= -.34284977E+02 E0= -.34284977E+02  d E =0.502673E-03
       N       E                     dE             d eps       ncg     rms          rms(c)
DAV:   1    -0.342842194627E+02    0.75757E-03   -0.27306E-03    96   0.504E-01    0.136E-02
DAV:   2    -0.342842190327E+02    0.43002E-06   -0.36847E-05    84   0.552E-02    0.790E-03
DAV:   3    -0.342842200729E+02   -0.10402E-05   -0.56823E-06    72   0.224E-02    0.330E-03
DAV:   4    -0.342842208314E+02   -0.75850E-06   -0.12808E-06    52   0.109E-02    0.992E-04
DAV:   5    -0.342842210424E+02   -0.21093E-06   -0.29076E-07    60   0.488E-03    0.276E-04
DAV:   6    -0.342842211541E+02   -0.11179E-06   -0.91668E-08    48   0.235E-03
   6 F= -.34284221E+02 E0= -.34284221E+02  d E =0.755983E-03
       N       E                     dE             d eps       ncg     rms          rms(c)
DAV:   1    -0.342833973731E+02    0.82367E-03   -0.48011E-03    96   0.668E-01    0.212E-02
DAV:   2    -0.342833932299E+02    0.41432E-05   -0.56694E-05    80   0.687E-02    0.124E-02
DAV:   3    -0.342833939120E+02   -0.68212E-06   -0.13804E-05    64   0.346E-02    0.381E-03
DAV:   4    -0.342833946152E+02   -0.70310E-06   -0.24930E-06    96   0.150E-02    0.174E-03
DAV:   5    -0.342833948782E+02   -0.26302E-06   -0.41917E-07    64   0.652E-03    0.619E-04
DAV:   6    -0.342833950659E+02   -0.18775E-06   -0.13764E-07    48   0.343E-03
   7 F= -.34283395E+02 E0= -.34283395E+02  d E =0.826088E-03
       N       E                     dE             d eps       ncg     rms          rms(c)
DAV:   1    -0.342826534035E+02    0.74147E-03   -0.66026E-03    96   0.777E-01    0.279E-02
DAV:   2    -0.342826433735E+02    0.10030E-04   -0.78414E-05    64   0.839E-02    0.162E-02
DAV:   3    -0.342826430674E+02    0.30610E-06   -0.27425E-05    96   0.498E-02    0.471E-03
DAV:   4    -0.342826440941E+02   -0.10267E-05   -0.46081E-06    80   0.212E-02    0.253E-03
DAV:   5    -0.342826445764E+02   -0.48229E-06   -0.62373E-07    64   0.906E-03    0.785E-04
DAV:   6    -0.342826449043E+02   -0.32792E-06   -0.22423E-07    48   0.441E-03
   8 F= -.34282645E+02 E0= -.34282645E+02  d E =0.750162E-03
       N       E                     dE             d eps       ncg     rms          rms(c)
DAV:   1    -0.342827319357E+02   -0.87359E-04   -0.11240E-05    48   0.334E-02    0.106E-03
DAV:   2    -0.342827321474E+02   -0.21176E-06   -0.52169E-07    48   0.733E-03    0.631E-04
DAV:   3    -0.342827323821E+02   -0.23464E-06   -0.82593E-08    48   0.239E-03    0.296E-04
DAV:   4    -0.342827326052E+02   -0.22311E-06   -0.42544E-08    64   0.127E-03    0.130E-04
DAV:   5    -0.342827327781E+02   -0.17297E-06   -0.28524E-08    48   0.656E-04    0.706E-05
DAV:   6    -0.342827329983E+02   -0.22017E-06   -0.26427E-08    72   0.444E-04
   9 F= -.34282733E+02 E0= -.34282733E+02  d E =-.880940E-04
       N       E                     dE             d eps       ncg     rms          rms(c)
DAV:   1    -0.342830084006E+02   -0.27562E-03   -0.79190E-05    48   0.888E-02    0.261E-03
DAV:   2    -0.342830086389E+02   -0.23827E-06   -0.33209E-06    48   0.190E-02    0.148E-03
DAV:   3    -0.342830088089E+02   -0.16998E-06   -0.44673E-07    48   0.578E-03    0.734E-04
DAV:   4    -0.342830089224E+02   -0.11349E-06   -0.14578E-07    64   0.273E-03    0.288E-04
DAV:   5    -0.342830089912E+02   -0.68855E-07   -0.63740E-08    48   0.138E-03    0.152E-04
DAV:   6    -0.342830090502E+02   -0.58945E-07   -0.39323E-08    64   0.802E-04
  10 F= -.34283009E+02 E0= -.34283009E+02  d E =-.276052E-03
       N       E                     dE             d eps       ncg     rms          rms(c)
DAV:   1    -0.342835895360E+02   -0.58054E-03   -0.31796E-04    96   0.175E-01    0.504E-03
DAV:   2    -0.342835893124E+02    0.22357E-06   -0.43103E-06    52   0.179E-02    0.305E-03
DAV:   3    -0.342835895484E+02   -0.23601E-06   -0.86565E-07    64   0.784E-03    0.996E-04
DAV:   4    -0.342835895994E+02   -0.50966E-07   -0.24327E-07    48   0.365E-03    0.461E-04
DAV:   5    -0.342835896003E+02   -0.89881E-09   -0.10063E-07    56   0.186E-03    0.148E-04
DAV:   6    -0.342835896089E+02   -0.85927E-08   -0.58555E-08    48   0.103E-03
  11 F= -.34283590E+02 E0= -.34283590E+02  d E =-.580559E-03
       N       E                     dE             d eps       ncg     rms          rms(c)
DAV:   1    -0.342844584274E+02   -0.86883E-03   -0.68885E-04    96   0.258E-01    0.738E-03
DAV:   2    -0.342844579101E+02    0.51731E-06   -0.94745E-06    64   0.265E-02    0.448E-03
DAV:   3    -0.342844583567E+02   -0.44656E-06   -0.18350E-06    64   0.116E-02    0.153E-03
DAV:   4    -0.342844584618E+02   -0.10510E-06   -0.49444E-07    48   0.543E-03    0.684E-04
DAV:   5    -0.342844584587E+02    0.30645E-08   -0.17937E-07    48   0.279E-03    0.217E-04
DAV:   6    -0.342844584774E+02   -0.18646E-07   -0.84507E-08    48   0.152E-03
  12 F= -.34284458E+02 E0= -.34284458E+02  d E =-.868868E-03
       N       E                     dE             d eps       ncg     rms          rms(c)
DAV:   1    -0.342855922039E+02   -0.11337E-02   -0.11508E-03    96   0.333E-01    0.955E-03
DAV:   2    -0.342855914051E+02    0.79882E-06   -0.15913E-05    64   0.344E-02    0.581E-03
DAV:   3    -0.342855921487E+02   -0.74360E-06   -0.30639E-06    60   0.151E-02    0.200E-03
DAV:   4    -0.342855923545E+02   -0.20580E-06   -0.81779E-07    48   0.708E-03    0.890E-04
DAV:   5    -0.342855923720E+02   -0.17456E-07   -0.28164E-07    48   0.365E-03    0.282E-04
DAV:   6    -0.342855924151E+02   -0.43074E-07   -0.11919E-07    48   0.199E-03
  13 F= -.34285592E+02 E0= -.34285592E+02  d E =-.113394E-02
       N       E                     dE             d eps       ncg     rms          rms(c)
DAV:   1    -0.342869608792E+02   -0.13685E-02   -0.16472E-03    96   0.399E-01    0.115E-02
DAV:   2    -0.342869597730E+02    0.11062E-05   -0.22652E-05    64   0.409E-02    0.697E-03
DAV:   3    -0.342869608593E+02   -0.10863E-05   -0.43710E-06    64   0.181E-02    0.238E-03
DAV:   4    -0.342869611753E+02   -0.31602E-06   -0.11644E-06    48   0.846E-03    0.107E-03
DAV:   5    -0.342869612222E+02   -0.46914E-07   -0.39270E-07    48   0.438E-03    0.341E-04
DAV:   6    -0.342869612948E+02   -0.72579E-07   -0.15757E-07    48   0.239E-03
  14 F= -.34286961E+02 E0= -.34286961E+02  d E =-.136888E-02
       N       E                     dE             d eps       ncg     rms          rms(c)
DAV:   1    -0.342887060934E+02   -0.17449E-02   -0.26230E-03    96   0.503E-01    0.145E-02
DAV:   2    -0.342887043129E+02    0.17805E-05   -0.35424E-05    64   0.511E-02    0.884E-03
DAV:   3    -0.342887061261E+02   -0.18132E-05   -0.68856E-06    64   0.227E-02    0.293E-03
DAV:   4    -0.342887066257E+02   -0.49961E-06   -0.18317E-06    48   0.106E-02    0.134E-03
DAV:   5    -0.342887067122E+02   -0.86484E-07   -0.61064E-07    48   0.548E-03    0.436E-04
DAV:   6    -0.342887068213E+02   -0.10915E-06   -0.23522E-07    48   0.300E-03
  15 F= -.34288707E+02 E0= -.34288707E+02  d E =-.174553E-02
       N       E                     dE             d eps       ncg     rms          rms(c)
DAV:   1    -0.342908770623E+02   -0.21704E-02   -0.39435E-03    96   0.617E-01    0.180E-02
DAV:   2    -0.342908742558E+02    0.28065E-05   -0.51654E-05    64   0.614E-02    0.109E-02
DAV:   3    -0.342908771434E+02   -0.28876E-05   -0.10159E-05    64   0.275E-02    0.342E-03
DAV:   4    -0.342908778565E+02   -0.71315E-06   -0.27109E-06    48   0.126E-02    0.163E-03
DAV:   5    -0.342908780087E+02   -0.15219E-06   -0.90610E-07    48   0.661E-03    0.548E-04
DAV:   6    -0.342908781685E+02   -0.15973E-06   -0.34343E-07    48   0.365E-03
  16 F= -.34290878E+02 E0= -.34290878E+02  d E =-.217135E-02
       N       E                     dE             d eps       ncg     rms          rms(c)
DAV:   1    -0.342935107844E+02   -0.26328E-02   -0.56288E-03    96   0.736E-01    0.218E-02
DAV:   2    -0.342935065268E+02    0.42576E-05   -0.70440E-05    68   0.714E-02    0.132E-02
DAV:   3    -0.342935108543E+02   -0.43275E-05   -0.14021E-05    64   0.320E-02    0.379E-03
DAV:   4    -0.342935117595E+02   -0.90517E-06   -0.37522E-06    48   0.145E-02    0.191E-03
DAV:   5    -0.342935119951E+02   -0.23566E-06   -0.12692E-06    48   0.762E-03    0.680E-04
DAV:   6    -0.342935122199E+02   -0.22473E-06   -0.48375E-07    48   0.426E-03
  17 F= -.34293512E+02 E0= -.34293512E+02  d E =-.263405E-02
       N       E                     dE             d eps       ncg     rms          rms(c)
DAV:   1    -0.342966083506E+02   -0.30964E-02   -0.75976E-03    96   0.854E-01    0.257E-02
DAV:   2    -0.342966018659E+02    0.64848E-05   -0.89903E-05    88   0.803E-02    0.155E-02
DAV:   3    -0.342966081715E+02   -0.63056E-05   -0.18075E-05    68   0.359E-02    0.403E-03
DAV:   4    -0.342966092306E+02   -0.10591E-05   -0.48374E-06    48   0.160E-02    0.215E-03
DAV:   5    -0.342966095692E+02   -0.33865E-06   -0.16599E-06    48   0.842E-03    0.825E-04
DAV:   6    -0.342966098742E+02   -0.30493E-06   -0.65043E-07    48   0.480E-03
  18 F= -.34296610E+02 E0= -.34296610E+02  d E =-.309765E-02
       N       E                     dE             d eps       ncg     rms          rms(c)
DAV:   1    -0.343001002761E+02   -0.34907E-02   -0.95250E-03    96   0.954E-01    0.295E-02
DAV:   2    -0.343000931156E+02    0.71605E-05   -0.12713E-04   112   0.871E-02    0.185E-02
DAV:   3    -0.343000991912E+02   -0.60756E-05   -0.69071E-06    64   0.249E-02    0.514E-03
DAV:   4    -0.343001007911E+02   -0.15999E-05   -0.19058E-06    48   0.119E-02    0.176E-03
DAV:   5    -0.343001011392E+02   -0.34809E-06   -0.54405E-07    48   0.546E-03    0.767E-04
DAV:   6    -0.343001015365E+02   -0.39735E-06   -0.20868E-07    48   0.309E-03
  19 F= -.34300102E+02 E0= -.34300102E+02  d E =-.349166E-02
       N       E                     dE             d eps       ncg     rms          rms(c)
DAV:   1    -0.343039285306E+02   -0.38274E-02   -0.11268E-02    96   0.103E+00    0.328E-02
DAV:   2    -0.343039184843E+02    0.10046E-04   -0.14104E-04   112   0.911E-02    0.202E-02
DAV:   3    -0.343039268892E+02   -0.84049E-05   -0.77170E-06    64   0.269E-02    0.514E-03
DAV:   4    -0.343039285110E+02   -0.16218E-05   -0.21166E-06    48   0.124E-02    0.193E-03
DAV:   5    -0.343039289877E+02   -0.47673E-06   -0.64208E-07    48   0.578E-03    0.818E-04
DAV:   6    -0.343039294665E+02   -0.47871E-06   -0.24188E-07    48   0.327E-03
  20 F= -.34303929E+02 E0= -.34303929E+02  d E =-.382793E-02
       N       E                     dE             d eps       ncg     rms          rms(c)
DAV:   1    -0.343079326640E+02   -0.40037E-02   -0.12374E-02    96   0.107E+00    0.354E-02
DAV:   2    -0.343079199044E+02    0.12760E-04   -0.14624E-04   112   0.917E-02    0.214E-02
DAV:   3    -0.343079304668E+02   -0.10562E-04   -0.80003E-06    84   0.284E-02    0.509E-03
DAV:   4    -0.343079319901E+02   -0.15234E-05   -0.22054E-06    52   0.128E-02    0.207E-03
DAV:   5    -0.343079326030E+02   -0.61291E-06   -0.68014E-07    48   0.591E-03    0.825E-04
DAV:   6    -0.343079331280E+02   -0.52496E-06   -0.23843E-07    48   0.323E-03
  21 F= -.34307933E+02 E0= -.34307933E+02  d E =-.400366E-02
       N       E                     dE             d eps       ncg     rms          rms(c)
DAV:   1    -0.343117910328E+02   -0.38584E-02   -0.12427E-02    96   0.107E+00    0.364E-02
DAV:   2    -0.343117762534E+02    0.14779E-04   -0.13758E-04   112   0.894E-02    0.216E-02
DAV:   3    -0.343117879396E+02   -0.11686E-04   -0.78126E-06    88   0.283E-02    0.474E-03
DAV:   4    -0.343117892209E+02   -0.12813E-05   -0.21414E-06    56   0.125E-02    0.208E-03
DAV:   5    -0.343117899198E+02   -0.69892E-06   -0.60732E-07    48   0.562E-03    0.801E-04
DAV:   6    -0.343117904857E+02   -0.56591E-06   -0.21370E-07    48   0.303E-03
  22 F= -.34311790E+02 E0= -.34311790E+02  d E =-.385736E-02
       N       E                     dE             d eps       ncg     rms          rms(c)
DAV:   1    -0.343117524979E+02    0.37422E-04   -0.13587E-06    48   0.112E-02    0.402E-04
DAV:   2    -0.343117527901E+02   -0.29221E-06   -0.11243E-07    48   0.286E-03    0.275E-04
DAV:   3    -0.343117531489E+02   -0.35874E-06   -0.42137E-08    48   0.120E-03    0.157E-04
DAV:   4    -0.343117535953E+02   -0.44639E-06   -0.32943E-08    64   0.815E-04    0.728E-05
DAV:   5    -0.343117539357E+02   -0.34041E-06   -0.27055E-08    48   0.522E-04    0.448E-05
DAV:   6    -0.343117543056E+02   -0.36990E-06   -0.28836E-08    84   0.441E-04
  23 F= -.34311754E+02 E0= -.34311754E+02  d E =0.361801E-04
       N       E                     dE             d eps       ncg     rms          rms(c)
DAV:   1    -0.343116814883E+02    0.72447E-04   -0.44549E-06    56   0.208E-02    0.644E-04
DAV:   2    -0.343116815797E+02   -0.91361E-07   -0.24520E-07    48   0.475E-03    0.414E-04
DAV:   3    -0.343116816576E+02   -0.77953E-07   -0.53260E-08    48   0.165E-03    0.260E-04
DAV:   4    -0.343116817683E+02   -0.11063E-06   -0.32074E-08    60   0.950E-04    0.984E-05
DAV:   5    -0.343116818396E+02   -0.71321E-07   -0.25673E-08    48   0.479E-04    0.589E-05
DAV:   6    -0.343116819009E+02   -0.61354E-07   -0.24327E-08    48   0.257E-04
  24 F= -.34311682E+02 E0= -.34311682E+02  d E =0.724046E-04
       N       E                     dE             d eps       ncg     rms          rms(c)
DAV:   1    -0.343115803560E+02    0.10148E-03   -0.83571E-06    84   0.285E-02    0.895E-04
DAV:   2    -0.343115804095E+02   -0.53500E-07   -0.44158E-07    56   0.639E-03    0.570E-04
DAV:   3    -0.343115804454E+02   -0.35811E-07   -0.88943E-08    48   0.224E-03    0.349E-04
DAV:   4    -0.343115804898E+02   -0.44433E-07   -0.45921E-08    48   0.123E-03    0.134E-04
DAV:   5    -0.343115805156E+02   -0.25767E-07   -0.32893E-08    48   0.613E-04    0.753E-05
DAV:   6    -0.343115805347E+02   -0.19163E-07   -0.29038E-08    48   0.322E-04
  25 F= -.34311581E+02 E0= -.34311581E+02  d E =0.101366E-03
       N       E                     dE             d eps       ncg     rms          rms(c)
DAV:   1    -0.343114596880E+02    0.12083E-03   -0.11916E-05    48   0.340E-02    0.107E-03
DAV:   2    -0.343114597333E+02   -0.45319E-07   -0.59656E-07    48   0.740E-03    0.661E-04
DAV:   3    -0.343114597550E+02   -0.21733E-07   -0.11504E-07    48   0.260E-03    0.387E-04
DAV:   4    -0.343114597728E+02   -0.17773E-07   -0.53428E-08    48   0.134E-03    0.156E-04
DAV:   5    -0.343114597795E+02   -0.66671E-08   -0.35741E-08    48   0.665E-04    0.762E-05
DAV:   6    -0.343114597835E+02   -0.40388E-08   -0.30611E-08    48   0.361E-04
  26 F= -.34311460E+02 E0= -.34311460E+02  d E =0.120751E-03
       N       E                     dE             d eps       ncg     rms          rms(c)
DAV:   1    -0.343113341104E+02    0.12567E-03   -0.14761E-05    48   0.380E-02    0.116E-03
DAV:   2    -0.343113341542E+02   -0.43862E-07   -0.68394E-07    48   0.793E-03    0.693E-04
DAV:   3    -0.343113341774E+02   -0.23191E-07   -0.12570E-07    48   0.275E-03    0.373E-04
DAV:   4    -0.343113341897E+02   -0.12300E-07   -0.54453E-08    48   0.131E-03    0.156E-04
DAV:   5    -0.343113341925E+02   -0.27289E-08   -0.35861E-08    48   0.658E-04    0.674E-05
DAV:   6    -0.343113341941E+02   -0.16425E-08   -0.30882E-08    48   0.374E-04
  27 F= -.34311334E+02 E0= -.34311334E+02  d E =0.125589E-03
       N       E                     dE             d eps       ncg     rms          rms(c)
DAV:   1    -0.343112227680E+02    0.11142E-03   -0.17844E-05    48   0.420E-02    0.120E-03
DAV:   2    -0.343112228156E+02   -0.47525E-07   -0.78168E-07    48   0.862E-03    0.698E-04
DAV:   3    -0.343112228426E+02   -0.27000E-07   -0.13316E-07    48   0.290E-03    0.351E-04
DAV:   4    -0.343112228531E+02   -0.10502E-07   -0.54039E-08    48   0.133E-03    0.139E-04
DAV:   5    -0.343112228554E+02   -0.23649E-08   -0.35285E-08    48   0.664E-04    0.595E-05
DAV:   6    -0.343112228568E+02   -0.13845E-08   -0.30702E-08    48   0.373E-04
  28 F= -.34311223E+02 E0= -.34311223E+02  d E =0.111337E-03
