 vasp.5.4.1 24Jun15 (build Jan 13 2020 12:58:22) complex                        
  
 executed on           IFC91_ompi date 2020.02.03  02:42:24
 running on   15 total cores
 each image running on    1 cores
 distrk:  each k-point on    1 cores,    1 groups
 distr:  one band on NCORES_PER_BAND=   1 cores,    1 groups


--------------------------------------------------------------------------------------------------------


 INCAR:
 POTCAR:    PAW_PBE H 15Jun2001                   
 POTCAR:    PAW_PBE C 08Apr2002                   
 POTCAR:    PAW_PBE N 08Apr2002                   
 POTCAR:    PAW_PBE H 15Jun2001                   
   VRHFIN =H: ultrasoft test                                                    
   LEXCH  = PE                                                                  
   EATOM  =    12.4884 eV,    0.9179 Ry                                         
                                                                                
   TITEL  = PAW_PBE H 15Jun2001                                                 
   LULTRA =        F    use ultrasoft PP ?                                      
   IUNSCR =        0    unscreen: 0-lin 1-nonlin 2-no                           
   RPACOR =    0.000    partial core radius                                     
   POMASS =    1.000; ZVAL   =    1.000    mass and valenz                      
   RCORE  =    1.100    outmost cutoff radius                                   
   RWIGS  =    0.700; RWIGS  =    0.370    wigner-seitz radius (au A)           
   ENMAX  =  250.000; ENMIN  =  200.000 eV                                      
   RCLOC  =    0.701    cutoff for local pot                                    
   LCOR   =        T    correct aug charges                                     
   LPAW   =        T    paw PP                                                  
   EAUG   =  400.000                                                            
   RMAX   =    1.123    core radius for proj-oper                               
   RAUG   =    1.200    factor for augmentation sphere                          
   RDEP   =    1.112    radius for radial grids                                 
   RDEPT  =    0.926    core radius for aug-charge                              
                                                                                
   Atomic configuration                                                         
    2 entries                                                                   
     n  l   j            E        occ.                                          
     1  0  0.50        -6.4927   1.0000                                         
     2  1  0.50        -3.4015   0.0000                                         
   Description                                                                  
     l       E           TYP  RCUT    TYP  RCUT                                 
     0     -6.4927494     23  1.100                                             
     0      6.8029130     23  1.100                                             
     1     -4.0817478     23  1.100                                             
  local pseudopotential read in
  atomic valenz-charges read in
  non local Contribution for L=           0  read in
    real space projection operators read in
  non local Contribution for L=           0  read in
    real space projection operators read in
  non local Contribution for L=           1  read in
    real space projection operators read in
    PAW grid and wavefunctions read in
 
   number of l-projection  operators is LMAX  =           3
   number of lm-projection operators is LMMAX =           5
 
 POTCAR:    PAW_PBE C 08Apr2002                   
   VRHFIN =C: s2p2                                                              
   LEXCH  = PE                                                                  
   EATOM  =   147.1560 eV,   10.8157 Ry                                         
                                                                                
   TITEL  = PAW_PBE C 08Apr2002                                                 
   LULTRA =        F    use ultrasoft PP ?                                      
   IUNSCR =        1    unscreen: 0-lin 1-nonlin 2-no                           
   RPACOR =    1.200    partial core radius                                     
   POMASS =   12.011; ZVAL   =    4.000    mass and valenz                      
   RCORE  =    1.500    outmost cutoff radius                                   
   RWIGS  =    1.630; RWIGS  =    0.863    wigner-seitz radius (au A)           
   ENMAX  =  400.000; ENMIN  =  300.000 eV                                      
   ICORE  =        2    local potential                                         
   LCOR   =        T    correct aug charges                                     
   LPAW   =        T    paw PP                                                  
   EAUG   =  644.873                                                            
   DEXC   =    0.000                                                            
   RMAX   =    1.529    core radius for proj-oper                               
   RAUG   =    1.300    factor for augmentation sphere                          
   RDEP   =    1.501    radius for radial grids                                 
   RDEPT  =    1.300    core radius for aug-charge                              
                                                                                
   Atomic configuration                                                         
    4 entries                                                                   
     n  l   j            E        occ.                                          
     1  0  0.50      -273.3789   2.0000                                         
     2  0  0.50       -13.7508   2.0000                                         
     2  1  0.50        -5.2854   2.0000                                         
     3  2  1.50        -5.4423   0.0000                                         
   Description                                                                  
     l       E           TYP  RCUT    TYP  RCUT                                 
     0    -13.7508458     23  1.200                                             
     0     -8.2022199     23  1.200                                             
     1     -5.2854383     23  1.500                                             
     1     34.0145650     23  1.500                                             
     2     -5.4423304      7  1.500                                             
  local pseudopotential read in
  partial core-charges read in
  partial kinetic energy density read in
  atomic valenz-charges read in
  non local Contribution for L=           0  read in
    real space projection operators read in
  non local Contribution for L=           0  read in
    real space projection operators read in
  non local Contribution for L=           1  read in
    real space projection operators read in
  non local Contribution for L=           1  read in
    real space projection operators read in
    PAW grid and wavefunctions read in
 
   number of l-projection  operators is LMAX  =           4
   number of lm-projection operators is LMMAX =           8
 
 POTCAR:    PAW_PBE N 08Apr2002                   
   VRHFIN =N: s2p3                                                              
   LEXCH  = PE                                                                  
   EATOM  =   264.5486 eV,   19.4438 Ry                                         
                                                                                
   TITEL  = PAW_PBE N 08Apr2002                                                 
   LULTRA =        F    use ultrasoft PP ?                                      
   IUNSCR =        1    unscreen: 0-lin 1-nonlin 2-no                           
   RPACOR =    1.200    partial core radius                                     
   POMASS =   14.001; ZVAL   =    5.000    mass and valenz                      
   RCORE  =    1.500    outmost cutoff radius                                   
   RWIGS  =    1.400; RWIGS  =    0.741    wigner-seitz radius (au A)           
   ENMAX  =  400.000; ENMIN  =  300.000 eV                                      
   ICORE  =        2    local potential                                         
   LCOR   =        T    correct aug charges                                     
   LPAW   =        T    paw PP                                                  
   EAUG   =  627.112                                                            
   DEXC   =    0.000                                                            
   RMAX   =    1.529    core radius for proj-oper                               
   RAUG   =    1.300    factor for augmentation sphere                          
   RDEP   =    1.514    radius for radial grids                                 
   RDEPT  =    1.338    core radius for aug-charge                              
                                                                                
   Atomic configuration                                                         
    4 entries                                                                   
     n  l   j            E        occ.                                          
     1  0  0.50      -384.7179   2.0000                                         
     2  0  0.50       -18.5828   2.0000                                         
     2  1  0.50        -7.0898   3.0000                                         
     3  2  1.50        -6.8029   0.0000                                         
   Description                                                                  
     l       E           TYP  RCUT    TYP  RCUT                                 
     0    -18.5828119     23  1.200                                             
     0    -13.5018863     23  1.200                                             
     1     -7.0897853     23  1.500                                             
     1      9.5240782     23  1.500                                             
     2     -6.8029130      7  1.500                                             
  local pseudopotential read in
  partial core-charges read in
  partial kinetic energy density read in
  atomic valenz-charges read in
  non local Contribution for L=           0  read in
    real space projection operators read in
  non local Contribution for L=           0  read in
    real space projection operators read in
  non local Contribution for L=           1  read in
    real space projection operators read in
  non local Contribution for L=           1  read in
    real space projection operators read in
    PAW grid and wavefunctions read in
 
   number of l-projection  operators is LMAX  =           4
   number of lm-projection operators is LMMAX =           8
 

 ----------------------------------------------------------------------------- 
|                                                                             |
|  ADVICE TO THIS USER RUNNING 'VASP/VAMP'   (HEAR YOUR MASTER'S VOICE ...):  |
|                                                                             |
|      You have a (more or less) 'small supercell' and for smaller cells      |
|      it is recommended  to use the reciprocal-space projection scheme!      |
|      The real space optimization is not  efficient for small cells and it   |
|      is also less accurate ...                                              |
|      Therefore set LREAL=.FALSE. in the  INCAR file                         |
|                                                                             |
 ----------------------------------------------------------------------------- 

 Optimization of the real space projectors (new method)

 maximal supplied QI-value         = 34.20
 optimisation between [QCUT,QGAM] = [  9.92, 20.18] = [ 27.55,114.04] Ry 
 Optimized for a Real-space Cutoff    1.26 Angstroem

   l    n(q)    QCUT    max X(q) W(low)/X(q) W(high)/X(q)  e(spline) 
   0      8     9.919    19.460    0.50E-03    0.23E-03    0.29E-06
   0      8     9.919    12.209    0.48E-03    0.23E-03    0.28E-06
   1      7     9.919     4.655    0.17E-03    0.75E-03    0.30E-06
 Optimization of the real space projectors (new method)

 maximal supplied QI-value         = 25.13
 optimisation between [QCUT,QGAM] = [ 10.05, 20.36] = [ 28.30,116.06] Ry 
 Optimized for a Real-space Cutoff    1.30 Angstroem

   l    n(q)    QCUT    max X(q) W(low)/X(q) W(high)/X(q)  e(spline) 
   0      8    10.053   115.676    0.49E-03    0.72E-03    0.18E-06
   0      8    10.053    87.132    0.49E-03    0.71E-03    0.18E-06
   1      7    10.053     4.429    0.32E-03    0.31E-03    0.18E-06
   1      7    10.053     2.733    0.23E-03    0.19E-03    0.20E-06
 Optimization of the real space projectors (new method)

 maximal supplied QI-value         = 25.13
 optimisation between [QCUT,QGAM] = [ 10.05, 20.36] = [ 28.30,116.06] Ry 
 Optimized for a Real-space Cutoff    1.65 Angstroem

   l    n(q)    QCUT    max X(q) W(low)/X(q) W(high)/X(q)  e(spline) 
   0     10    10.053    79.467    0.76E-04    0.72E-04    0.56E-06
   0     10    10.053    66.151    0.76E-04    0.72E-04    0.55E-06
   1     10    10.053     8.350    0.25E-03    0.92E-03    0.41E-05
   1     10    10.053     5.531    0.27E-03    0.10E-02    0.45E-05
  PAW_PBE H 15Jun2001                   :
 energy of atom  1       EATOM=  -12.4884
 kinetic energy error for atom=    0.0098 (will be added to EATOM!!)
  PAW_PBE C 08Apr2002                   :
 energy of atom  2       EATOM= -147.1560
 kinetic energy error for atom=    0.0288 (will be added to EATOM!!)
  PAW_PBE N 08Apr2002                   :
 energy of atom  3       EATOM= -264.5486
 kinetic energy error for atom=    0.0736 (will be added to EATOM!!)
 
 
 POSCAR: H3 C2 N1                                
  positions in direct lattice
  velocities in cartesian coordinates
 exchange correlation table for  LEXCH =        8
   RHO(1)=    0.500       N(1)  =     2000
   RHO(2)=  100.500       N(2)  =     4000

 VTST: version 3.2, (02/03/18)

 CHAIN: initializing optimizer
 
 OPT: Using FIRE optimizer
 OPT: FIRE, Init
 OPT: FIRE, MAXMOVE       0.20000
 OPT: FIRE, TIMESTEP      0.10000
 OPT: FIRE, FTIMEMAX      1.00000
 OPT: FIRE, FTIMEINC      1.10000
 OPT: FIRE, FTIMEDEC      0.50000
 OPT: FIRE, FALPHADEC     0.99000
 OPT: FIRE, FALPHA        0.10000
 OPT: FIRE, FNMIN         5
 
 CHAIN: Read ICHAIN            0
 CHAIN: Running the NEB
 NEB:          SPRING     -5.000000
 NEB:          LCLIMB      T
 NEB:     LTANGENTOLD      F
 NEB:           LDNEB      F
 NEB:        LDNEBORG      F
 NEB:        LNEBCELL      F
 NEB:          EFIRST      0.000000
 NEB:           ELAST      0.000000
 
 POSCAR: H3 C2 N1                                
  positions in direct lattice
  No initial velocities read in
 
 POSCAR: H3 C2 N1                                
  positions in direct lattice
  No initial velocities read in
 


--------------------------------------------------------------------------------------------------------


 ion  position               nearest neighbor table
   1  0.476  0.467  0.507-   4 1.10
   2  0.479  0.511  0.466-   4 1.10
   3  0.470  0.524  0.524-   4 1.08
   4  0.486  0.502  0.501-   3 1.08   1 1.10   2 1.10   6 1.58
   5  0.551  0.485  0.486-   6 1.20
   6  0.536  0.509  0.514-   5 1.20   4 1.58
 
  LATTYP: Found a simple cubic cell.
 ALAT       =    30.0000000000
  
  Lattice vectors:
  
 A1 = (  30.0000000000,   0.0000000000,   0.0000000000)
 A2 = (   0.0000000000,  30.0000000000,   0.0000000000)
 A3 = (   0.0000000000,   0.0000000000,  30.0000000000)


Analysis of symmetry for initial positions (statically):
=====================================================================
 Subroutine PRICEL returns:
 Original cell was already a primitive cell.
 

 Routine SETGRP: Setting up the symmetry group for a 
 simple cubic supercell.


 Subroutine GETGRP returns: Found  1 space group operations
 (whereof  1 operations were pure point group operations)
 out of a pool of 48 trial point group operations.


The static configuration has the point symmetry C_1 .


Analysis of symmetry for dynamics (positions and initial velocities):
=====================================================================
 Subroutine PRICEL returns:
 Original cell was already a primitive cell.
 

 Routine SETGRP: Setting up the symmetry group for a 
 simple cubic supercell.


 Subroutine GETGRP returns: Found  1 space group operations
 (whereof  1 operations were pure point group operations)
 out of a pool of 48 trial point group operations.


The dynamic configuration has the point symmetry C_1 .
 
 
 KPOINTS: Mo2C                                    

Automatic generation of k-mesh.
Space group operators:
 irot       det(A)        alpha          n_x          n_y          n_z        tau_x        tau_y        tau_z
    1     1.000000     0.000000     1.000000     0.000000     0.000000     0.000000     0.000000     0.000000
 
 Subroutine IBZKPT returns following result:
 ===========================================
 
 Found      4 irreducible k-points:
 
 Following reciprocal coordinates:
            Coordinates               Weight
  0.250000  0.250000  0.250000      2.000000
 -0.250000  0.250000  0.250000      2.000000
  0.250000 -0.250000  0.250000      2.000000
 -0.250000 -0.250000  0.250000      2.000000
 
 Following cartesian coordinates:
            Coordinates               Weight
  0.008333  0.008333  0.008333      2.000000
 -0.008333  0.008333  0.008333      2.000000
  0.008333 -0.008333  0.008333      2.000000
 -0.008333 -0.008333  0.008333      2.000000
 


--------------------------------------------------------------------------------------------------------




 Dimension of arrays:
   k-points           NKPTS =      4   k-points in BZ     NKDIM =      4   number of bands    NBANDS=     12
   number of dos      NEDOS =    301   number of ions     NIONS =      6
   non local maximal  LDIM  =      4   non local SUM 2l+1 LMDIM =      8
   total plane-waves  NPLWV = ******
   max r-space proj   IRMAX =   2395   max aug-charges    IRDMAX=   1738
   dimension x,y,z NGX =   150 NGY =  150 NGZ =  150
   dimension x,y,z NGXF=   300 NGYF=  300 NGZF=  300
   support grid    NGXF=   300 NGYF=  300 NGZF=  300
   ions per type =               3   2   1
 NGX,Y,Z   is equivalent  to a cutoff of   8.31,  8.31,  8.31 a.u.
 NGXF,Y,Z  is equivalent  to a cutoff of  16.62, 16.62, 16.62 a.u.


 I would recommend the setting:
   dimension x,y,z NGX =   147 NGY =  147 NGZ =  147
 SYSTEM =  unknown system                          
 POSCAR =  H3 C2 N1                                

 Startparameter for this run:
   NWRITE =      2    write-flag & timer
   PREC   = normal    normal or accurate (medium, high low for compatibility)
   ISTART =      0    job   : 0-new  1-cont  2-samecut
   ICHARG =      2    charge: 1-file 2-atom 10-const
   ISPIN  =      1    spin polarized calculation?
   LNONCOLLINEAR =      F non collinear calculations
   LSORBIT =      F    spin-orbit coupling
   INIWAV =      1    electr: 0-lowe 1-rand  2-diag
   LASPH  =      F    aspherical Exc in radial PAW
   METAGGA=      F    non-selfconsistent MetaGGA calc.

 Electronic Relaxation 1
   ENCUT  =  400.0 eV  29.40 Ry    5.42 a.u.  48.92 48.92 48.92*2*pi/ulx,y,z
   ENINI  =  400.0     initial cutoff
   ENAUG  =  644.9 eV  augmentation charge cutoff
   NELM   =    500;   NELMIN=  6; NELMDL= -5     # of ELM steps 
   EDIFF  = 0.1E-03   stopping-criterion for ELM
   LREAL  =      T    real-space projection
   NLSPLINE    = F    spline interpolate recip. space projectors
   LCOMPAT=      F    compatible to vasp.4.4
   GGA_COMPAT  = T    GGA compatible to vasp.4.4-vasp.4.6
   LMAXPAW     = -100 max onsite density
   LMAXMIX     =    2 max onsite mixed and CHGCAR
   VOSKOWN=      0    Vosko Wilk Nusair interpolation
   ROPT   =   -0.00050  -0.00050  -0.00050
 Ionic relaxation
   EDIFFG = -.1E+00   stopping-criterion for IOM
   NSW    =    300    number of steps for IOM
   NBLOCK =      1;   KBLOCK =    300    inner block; outer block 
   IBRION =      3    ionic relax: 0-MD 1-quasi-New 2-CG
   NFREE  =      0    steps in history (QN), initial steepest desc. (CG)
   ISIF   =      2    stress and relaxation
   IWAVPR =     11    prediction:  0-non 1-charg 2-wave 3-comb
   ISYM   =      2    0-nonsym 1-usesym 2-fastsym
   LCORR  =      T    Harris-Foulkes like correction to forces

   POTIM  = 0.0000    time-step for ionic-motion
   TEIN   =    0.0    initial temperature
   TEBEG  =    0.0;   TEEND  =   0.0 temperature during run
   SMASS  =   2.00    Nose mass-parameter (am)
   estimated Nose-frequenzy (Omega)   =  0.12E+10 period in steps =  0.00 mass=   0.137E-25a.u.
   SCALEE = 1.0000    scale energy and forces
   NPACO  =    256;   APACO  = 16.0  distance and # of slots for P.C.
   PSTRESS=    0.0 pullay stress

  Mass of Ions in am
   POMASS =   1.00 12.01 14.00
  Ionic Valenz
   ZVAL   =   1.00  4.00  5.00
  Atomic Wigner-Seitz radii
   RWIGS  =  -1.00 -1.00 -1.00
  virtual crystal weights 
   VCA    =   1.00  1.00  1.00
   NELECT =      16.0000    total number of electrons
   NUPDOWN=      -1.0000    fix difference up-down

 DOS related values:
   EMIN   =  10.00;   EMAX   =-10.00  energy-range for DOS
   EFERMI =   0.00
   ISMEAR =     0;   SIGMA  =   0.20  broadening in eV -4-tet -1-fermi 0-gaus

 Electronic relaxation 2 (details)
   IALGO  =     38    algorithm
   LDIAG  =      T    sub-space diagonalisation (order eigenvalues)
   LSUBROT=      F    optimize rotation matrix (better conditioning)
   TURBO    =      0    0=normal 1=particle mesh
   IRESTART =      0    0=no restart 2=restart with 2 vectors
   NREBOOT  =      0    no. of reboots
   NMIN     =      0    reboot dimension
   EREF     =   0.00    reference energy to select bands
   IMIX   =      4    mixing-type and parameters
     AMIX     =   0.40;   BMIX     =  1.00
     AMIX_MAG =   1.60;   BMIX_MAG =  1.00
     AMIN     =   0.10
     WC   =   100.;   INIMIX=   1;  MIXPRE=   1;  MAXMIX= -45

 Intra band minimization:
   WEIMIN = 0.0010     energy-eigenvalue tresh-hold
   EBREAK =  0.21E-05  absolut break condition
   DEPER  =   0.30     relativ break condition  

   TIME   =   0.40     timestep for ELM

  volume/ion in A,a.u.               =    4500.00     30367.50
  Fermi-wavevector in a.u.,A,eV,Ry     =   0.137508  0.259852  0.257264  0.018908
  Thomas-Fermi vector in A             =   0.790710
 
 Write flags
   LWAVE  =      F    write WAVECAR
   LCHARG =      F    write CHGCAR
   LVTOT  =      F    write LOCPOT, total local potential
   LVHAR  =      F    write LOCPOT, Hartree potential only
   LELF   =      F    write electronic localiz. function (ELF)
   LORBIT =      0    0 simple, 1 ext, 2 COOP (PROOUT)


 Dipole corrections
   LMONO  =      F    monopole corrections only (constant potential shift)
   LDIPOL =      F    correct potential (dipole corrections)
   IDIPOL =      0    1-x, 2-y, 3-z, 4-all directions 
   EPSILON=  1.0000000 bulk dielectric constant

 Exchange correlation treatment:
   GGA     =    PE    GGA type
   LEXCH   =     8    internal setting for exchange type
   VOSKOWN=      0    Vosko Wilk Nusair interpolation
   LHFCALC =     F    Hartree Fock is set to
   LHFONE  =     F    Hartree Fock one center treatment
   AEXX    =    0.0000 exact exchange contribution

 Linear response parameters
   LEPSILON=     F    determine dielectric tensor
   LRPA    =     F    only Hartree local field effects (RPA)
   LNABLA  =     F    use nabla operator in PAW spheres
   LVEL    =     F    velocity operator in full k-point grid
   LINTERFAST=   F  fast interpolation
   KINTER  =     0    interpolate to denser k-point grid
   CSHIFT  =0.1000    complex shift for real part using Kramers Kronig
   OMEGAMAX=  -1.0    maximum frequency
   DEG_THRESHOLD= 0.2000000E-02 threshold for treating states as degnerate
   RTIME   =    0.100 relaxation time in fs

 Orbital magnetization related:
   ORBITALMAG=     F  switch on orbital magnetization
   LCHIMAG   =     F  perturbation theory with respect to B field
   DQ        =  0.001000  dq finite difference perturbation B field



--------------------------------------------------------------------------------------------------------


 quickmin algorithm: (dynamic with friction)
 charge density and potential will be updated during run
 non-spin polarized calculation
 Variant of blocked Davidson
 Davidson routine will perform the subspace rotation
 perform sub-space diagonalisation
    after iterative eigenvector-optimisation
 modified Broyden-mixing scheme, WC =      100.0
 initial mixing is a Kerker type mixing with AMIX =  0.4000 and BMIX =      1.0000
 Hartree-type preconditioning will be used
 using additional bands            4
 real space projection scheme for non local part
 use partial core corrections
 calculate Harris-corrections to forces 
   (improved forces if not selfconsistent)
 use gradient corrections 
 use of overlap-Matrix (Vanderbilt PP)
 Gauss-broadening in eV      SIGMA  =   0.20


--------------------------------------------------------------------------------------------------------


  energy-cutoff  :      400.00
  volume of cell :    27000.00
      direct lattice vectors                 reciprocal lattice vectors
    30.000000000  0.000000000  0.000000000     0.033333333  0.000000000  0.000000000
     0.000000000 30.000000000  0.000000000     0.000000000  0.033333333  0.000000000
     0.000000000  0.000000000 30.000000000     0.000000000  0.000000000  0.033333333

  length of vectors
    30.000000000 30.000000000 30.000000000     0.033333333  0.033333333  0.033333333


 
 k-points in units of 2pi/SCALE and weight: Mo2C                                    
   0.00833333  0.00833333  0.00833333       0.250
  -0.00833333  0.00833333  0.00833333       0.250
   0.00833333 -0.00833333  0.00833333       0.250
  -0.00833333 -0.00833333  0.00833333       0.250
 
 k-points in reciprocal lattice and weights: Mo2C                                    
   0.25000000  0.25000000  0.25000000       0.250
  -0.25000000  0.25000000  0.25000000       0.250
   0.25000000 -0.25000000  0.25000000       0.250
  -0.25000000 -0.25000000  0.25000000       0.250
 
 position of ions in fractional coordinates (direct lattice) 
   0.47553946  0.46709799  0.50722540
   0.47870821  0.51119885  0.46647019
   0.47038384  0.52443884  0.52432819
   0.48589661  0.50163097  0.50106788
   0.55119190  0.48491975  0.48579034
   0.53634728  0.50928992  0.51395294
 
 position of ions in cartesian coordinates  (Angst):
  14.26618393 14.01293965 15.21676209
  14.36124628 15.33596538 13.99410565
  14.11151510 15.73316511 15.72984579
  14.57689839 15.04892897 15.03203632
  16.53575708 14.54759248 14.57371034
  16.09041830 15.27869750 15.41858817
 


--------------------------------------------------------------------------------------------------------


 k-point  1 :   0.2500 0.2500 0.2500  plane waves:  490454
 k-point  2 :  -0.2500 0.2500 0.2500  plane waves:  490454
 k-point  3 :   0.2500-0.2500 0.2500  plane waves:  490454
 k-point  4 :  -0.2500-0.2500 0.2500  plane waves:  490454

 maximum and minimum number of plane-waves per node :    490454   490454

 maximum number of plane-waves:    490454
 maximum index in each direction: 
   IXMAX=   49   IYMAX=   49   IZMAX=   48
   IXMIN=  -49   IYMIN=  -49   IZMIN=  -49

 WARNING: aliasing errors must be expected set NGX to 198 to avoid them
 WARNING: aliasing errors must be expected set NGY to 198 to avoid them
 WARNING: aliasing errors must be expected set NGZ to 196 to avoid them
 aliasing errors are usually negligible using standard VASP settings
 and one can safely disregard these warnings

 serial   3D FFT for wavefunctions
 parallel 3D FFT for charge:
    minimum data exchange during FFTs selected (reduces bandwidth)


 total amount of memory used by VASP on root node  3203889. kBytes
========================================================================

   base      :      30000. kBytes
   nonlr-proj:        693. kBytes
   fftplans  :     924480. kBytes
   grid      :    1872000. kBytes
   one-center:         18. kBytes
   wavefun   :     376698. kBytes
 
     INWAV:  cpu time    0.0010: real time    0.0004
 Broyden mixing: mesh for mixing (old mesh)
   NGX = 97   NGY = 97   NGZ = 97
  (NGX  =300   NGY  =300   NGZ  =300)
  gives a total of 912673 points

 initial charge density was supplied:
 charge density of overlapping atoms calculated
 number of electron      16.0000000 magnetization 
 keeping initial charge density in first step


--------------------------------------------------------------------------------------------------------


 Maximum index for non-local projection operator         2274
 Maximum index for augmentation-charges         1482 (set IRDMAX)


--------------------------------------------------------------------------------------------------------


 First call to EWALD:  gamma=   0.059
 Maximum number of real-space cells 3x 3x 3
 Maximum number of reciprocal cells 3x 3x 3

 FEWALD executed in parallel
    FEWALD:  cpu time    0.0020: real time    0.0018


----------------------------------------- Iteration    1(   1)  ---------------------------------------


    POTLOK:  cpu time   24.2473: real time   24.3026
    SETDIJ:  cpu time    0.0060: real time    0.0065
     EDDAV:  cpu time   85.0281: real time   85.2178
       DOS:  cpu time    0.0000: real time    0.0003
    --------------------------------------------
      LOOP:  cpu time  109.2864: real time  109.5352

 eigenvalue-minimisations  :   160
 total energy-change (2. order) : 0.1087060E+03  (-0.2134347E+03)
 number of electron      16.0000000 magnetization 
 augmentation part       16.0000000 magnetization 

 Free energy of the ion-electron system (eV)
  ---------------------------------------------------
  alpha Z        PSCENC =         0.04144063
  Ewald energy   TEWEN  =       708.20575751
  -Hartree energ DENC   =     -1127.75604057
  -exchange      EXHF   =         0.00000000
  -V(xc)+E(xc)   XCENC  =        51.21282035
  PAW double counting   =       428.37890668     -430.73533574
  entropy T*S    EENTRO =        -0.21504844
  eigenvalues    EBANDS =      -116.59180247
  atomic energy  EATOM  =       596.16534815
  Solvation  Ediel_sol  =         0.00000000
  ---------------------------------------------------
  free energy    TOTEN  =       108.70604609 eV

  energy without entropy =      108.92109453  energy(sigma->0) =      108.81357031


--------------------------------------------------------------------------------------------------------




----------------------------------------- Iteration    1(   2)  ---------------------------------------


     EDDAV:  cpu time  100.8497: real time  101.0725
       DOS:  cpu time    0.0000: real time    0.0002
    --------------------------------------------
      LOOP:  cpu time  100.8517: real time  101.0768

 eigenvalue-minimisations  :   192
 total energy-change (2. order) :-0.1116790E+03  (-0.1083219E+03)
 number of electron      16.0000000 magnetization 
 augmentation part       16.0000000 magnetization 

 Free energy of the ion-electron system (eV)
  ---------------------------------------------------
  alpha Z        PSCENC =         0.04144063
  Ewald energy   TEWEN  =       708.20575751
  -Hartree energ DENC   =     -1127.75604057
  -exchange      EXHF   =         0.00000000
  -V(xc)+E(xc)   XCENC  =        51.21282035
  PAW double counting   =       428.37890668     -430.73533574
  entropy T*S    EENTRO =         0.00000000
  eigenvalues    EBANDS =      -228.48581269
  atomic energy  EATOM  =       596.16534815
  Solvation  Ediel_sol  =         0.00000000
  ---------------------------------------------------
  free energy    TOTEN  =        -2.97291569 eV

  energy without entropy =       -2.97291569  energy(sigma->0) =       -2.97291569


--------------------------------------------------------------------------------------------------------




----------------------------------------- Iteration    1(   3)  ---------------------------------------


     EDDAV:  cpu time   72.2950: real time   72.4598
       DOS:  cpu time    0.0000: real time    0.0002
    --------------------------------------------
      LOOP:  cpu time   72.2960: real time   72.4638

 eigenvalue-minimisations  :   128
 total energy-change (2. order) :-0.3113123E+02  (-0.3098560E+02)
 number of electron      16.0000000 magnetization 
 augmentation part       16.0000000 magnetization 

 Free energy of the ion-electron system (eV)
  ---------------------------------------------------
  alpha Z        PSCENC =         0.04144063
  Ewald energy   TEWEN  =       708.20575751
  -Hartree energ DENC   =     -1127.75604057
  -exchange      EXHF   =         0.00000000
  -V(xc)+E(xc)   XCENC  =        51.21282035
  PAW double counting   =       428.37890668     -430.73533574
  entropy T*S    EENTRO =         0.00000000
  eigenvalues    EBANDS =      -259.61703786
  atomic energy  EATOM  =       596.16534815
  Solvation  Ediel_sol  =         0.00000000
  ---------------------------------------------------
  free energy    TOTEN  =       -34.10414086 eV

  energy without entropy =      -34.10414086  energy(sigma->0) =      -34.10414086


--------------------------------------------------------------------------------------------------------




----------------------------------------- Iteration    1(   4)  ---------------------------------------


     EDDAV:  cpu time   64.4182: real time   64.5757
       DOS:  cpu time    0.0000: real time    0.0001
    --------------------------------------------
      LOOP:  cpu time   64.4202: real time   64.5796

 eigenvalue-minimisations  :   112
 total energy-change (2. order) :-0.3223576E+01  (-0.3184549E+01)
 number of electron      16.0000000 magnetization 
 augmentation part       16.0000000 magnetization 

 Free energy of the ion-electron system (eV)
  ---------------------------------------------------
  alpha Z        PSCENC =         0.04144063
  Ewald energy   TEWEN  =       708.20575751
  -Hartree energ DENC   =     -1127.75604057
  -exchange      EXHF   =         0.00000000
  -V(xc)+E(xc)   XCENC  =        51.21282035
  PAW double counting   =       428.37890668     -430.73533574
  entropy T*S    EENTRO =         0.00000000
  eigenvalues    EBANDS =      -262.84061370
  atomic energy  EATOM  =       596.16534815
  Solvation  Ediel_sol  =         0.00000000
  ---------------------------------------------------
  free energy    TOTEN  =       -37.32771670 eV

  energy without entropy =      -37.32771670  energy(sigma->0) =      -37.32771670


--------------------------------------------------------------------------------------------------------




----------------------------------------- Iteration    1(   5)  ---------------------------------------


     EDDAV:  cpu time   71.1762: real time   71.3354
       DOS:  cpu time    0.0000: real time    0.0002
    CHARGE:  cpu time    5.4612: real time    5.4726
    MIXING:  cpu time    0.5739: real time    0.5767
    --------------------------------------------
      LOOP:  cpu time   77.2123: real time   77.3885

 eigenvalue-minimisations  :   128
 total energy-change (2. order) :-0.9308695E-01  (-0.9203608E-01)
 number of electron      16.0000005 magnetization 
 augmentation part        0.4606455 magnetization 

 Broyden mixing:
  rms(total) = 0.10668E+01    rms(broyden)= 0.10654E+01
  rms(prec ) = 0.11005E+01
  weight for this iteration     100.00

 Free energy of the ion-electron system (eV)
  ---------------------------------------------------
  alpha Z        PSCENC =         0.04144063
  Ewald energy   TEWEN  =       708.20575751
  -Hartree energ DENC   =     -1127.75604057
  -exchange      EXHF   =         0.00000000
  -V(xc)+E(xc)   XCENC  =        51.21282035
  PAW double counting   =       428.37890668     -430.73533574
  entropy T*S    EENTRO =         0.00000000
  eigenvalues    EBANDS =      -262.93370066
  atomic energy  EATOM  =       596.16534815
  Solvation  Ediel_sol  =         0.00000000
  ---------------------------------------------------
  free energy    TOTEN  =       -37.42080365 eV

  energy without entropy =      -37.42080365  energy(sigma->0) =      -37.42080365


--------------------------------------------------------------------------------------------------------




----------------------------------------- Iteration    1(   6)  ---------------------------------------


    POTLOK:  cpu time   25.9900: real time   26.0470
    SETDIJ:  cpu time    0.0060: real time    0.0065
     EDDAV:  cpu time   71.2982: real time   71.4536
       DOS:  cpu time    0.0000: real time    0.0002
    CHARGE:  cpu time    5.4862: real time    5.5001
    MIXING:  cpu time    0.6189: real time    0.6202
    --------------------------------------------
      LOOP:  cpu time  103.4023: real time  103.6316

 eigenvalue-minimisations  :   128
 total energy-change (2. order) : 0.2455966E+01  (-0.4194042E+00)
 number of electron      16.0000005 magnetization 
 augmentation part        0.4149988 magnetization 

 Broyden mixing:
  rms(total) = 0.57050E+00    rms(broyden)= 0.57039E+00
  rms(prec ) = 0.58489E+00
  weight for this iteration     100.00

 eigenvalues of (default mixing * dielectric matrix)
  average eigenvalue GAMMA=   1.5091
  1.5091

 Free energy of the ion-electron system (eV)
  ---------------------------------------------------
  alpha Z        PSCENC =         0.04144063
  Ewald energy   TEWEN  =       708.20575751
  -Hartree energ DENC   =     -1155.23308422
  -exchange      EXHF   =         0.00000000
  -V(xc)+E(xc)   XCENC  =        52.76462459
  PAW double counting   =       686.54164448     -689.17461489
  entropy T*S    EENTRO =         0.00000000
  eigenvalues    EBANDS =      -234.27595351
  atomic energy  EATOM  =       596.16534815
  Solvation  Ediel_sol  =         0.00000000
  ---------------------------------------------------
  free energy    TOTEN  =       -34.96483727 eV

  energy without entropy =      -34.96483727  energy(sigma->0) =      -34.96483727


--------------------------------------------------------------------------------------------------------




----------------------------------------- Iteration    1(   7)  ---------------------------------------


    POTLOK:  cpu time   25.7521: real time   25.8080
    SETDIJ:  cpu time    0.0070: real time    0.0064
     EDDAV:  cpu time   71.4521: real time   71.6079
       DOS:  cpu time    0.0000: real time    0.0002
    CHARGE:  cpu time    5.4902: real time    5.5026
    MIXING:  cpu time    0.6399: real time    0.6415
    --------------------------------------------
      LOOP:  cpu time  103.3433: real time  103.5704

 eigenvalue-minimisations  :   128
 total energy-change (2. order) : 0.6017901E+00  (-0.1323007E+00)
 number of electron      16.0000005 magnetization 
 augmentation part        0.4080883 magnetization 

 Broyden mixing:
  rms(total) = 0.23597E+00    rms(broyden)= 0.23593E+00
  rms(prec ) = 0.24134E+00
  weight for this iteration     100.00

 eigenvalues of (default mixing * dielectric matrix)
  average eigenvalue GAMMA=   1.5464
  0.9661  2.1268

 Free energy of the ion-electron system (eV)
  ---------------------------------------------------
  alpha Z        PSCENC =         0.04144063
  Ewald energy   TEWEN  =       708.20575751
  -Hartree energ DENC   =     -1172.21786266
  -exchange      EXHF   =         0.00000000
  -V(xc)+E(xc)   XCENC  =        53.84615317
  PAW double counting   =       983.76054985     -986.53159394
  entropy T*S    EENTRO =         0.00000000
  eigenvalues    EBANDS =      -217.63283987
  atomic energy  EATOM  =       596.16534815
  Solvation  Ediel_sol  =         0.00000000
  ---------------------------------------------------
  free energy    TOTEN  =       -34.36304716 eV

  energy without entropy =      -34.36304716  energy(sigma->0) =      -34.36304716


--------------------------------------------------------------------------------------------------------




----------------------------------------- Iteration    1(   8)  ---------------------------------------


    POTLOK:  cpu time   25.4691: real time   25.5242
    SETDIJ:  cpu time    0.0060: real time    0.0065
     EDDAV:  cpu time   71.2942: real time   71.4503
       DOS:  cpu time    0.0000: real time    0.0002
    CHARGE:  cpu time    5.5212: real time    5.5330
    MIXING:  cpu time    0.6909: real time    0.6924
    --------------------------------------------
      LOOP:  cpu time  102.9823: real time  103.2101

 eigenvalue-minimisations  :   128
 total energy-change (2. order) : 0.8100228E-01  (-0.1997787E-01)
 number of electron      16.0000005 magnetization 
 augmentation part        0.3996951 magnetization 

 Broyden mixing:
  rms(total) = 0.85627E-01    rms(broyden)= 0.85602E-01
  rms(prec ) = 0.88883E-01
  weight for this iteration     100.00

 eigenvalues of (default mixing * dielectric matrix)
  average eigenvalue GAMMA=   1.6057
  2.3351  0.8486  1.6335

 Free energy of the ion-electron system (eV)
  ---------------------------------------------------
  alpha Z        PSCENC =         0.04144063
  Ewald energy   TEWEN  =       708.20575751
  -Hartree energ DENC   =     -1180.25512150
  -exchange      EXHF   =         0.00000000
  -V(xc)+E(xc)   XCENC  =        54.37694307
  PAW double counting   =      1164.32430107    -1167.13009505
  entropy T*S    EENTRO =         0.00000000
  eigenvalues    EBANDS =      -210.01061876
  atomic energy  EATOM  =       596.16534815
  Solvation  Ediel_sol  =         0.00000000
  ---------------------------------------------------
  free energy    TOTEN  =       -34.28204488 eV

  energy without entropy =      -34.28204488  energy(sigma->0) =      -34.28204488


--------------------------------------------------------------------------------------------------------




----------------------------------------- Iteration    1(   9)  ---------------------------------------


    POTLOK:  cpu time   26.2180: real time   26.2764
    SETDIJ:  cpu time    0.0070: real time    0.0064
     EDDAV:  cpu time   71.3851: real time   71.5400
       DOS:  cpu time    0.0000: real time    0.0002
    CHARGE:  cpu time    5.5742: real time    5.5858
    MIXING:  cpu time    0.7329: real time    0.7353
    --------------------------------------------
      LOOP:  cpu time  103.9192: real time  104.1490

 eigenvalue-minimisations  :   128
 total energy-change (2. order) : 0.1431889E-01  (-0.2728060E-02)
 number of electron      16.0000005 magnetization 
 augmentation part        0.3997815 magnetization 

 Broyden mixing:
  rms(total) = 0.21414E-01    rms(broyden)= 0.21400E-01
  rms(prec ) = 0.25710E-01
  weight for this iteration     100.00

 eigenvalues of (default mixing * dielectric matrix)
  average eigenvalue GAMMA=   1.5024
  2.2919  0.9152  1.0898  1.7128

 Free energy of the ion-electron system (eV)
  ---------------------------------------------------
  alpha Z        PSCENC =         0.04144063
  Ewald energy   TEWEN  =       708.20575751
  -Hartree energ DENC   =     -1181.35967137
  -exchange      EXHF   =         0.00000000
  -V(xc)+E(xc)   XCENC  =        54.43887911
  PAW double counting   =      1218.32699152    -1221.10335671
  entropy T*S    EENTRO =         0.00000000
  eigenvalues    EBANDS =      -208.98311484
  atomic energy  EATOM  =       596.16534815
  Solvation  Ediel_sol  =         0.00000000
  ---------------------------------------------------
  free energy    TOTEN  =       -34.26772600 eV

  energy without entropy =      -34.26772600  energy(sigma->0) =      -34.26772600


--------------------------------------------------------------------------------------------------------




----------------------------------------- Iteration    1(  10)  ---------------------------------------


    POTLOK:  cpu time   26.1110: real time   26.1671
    SETDIJ:  cpu time    0.0050: real time    0.0064
     EDDAV:  cpu time   71.3412: real time   71.4969
       DOS:  cpu time    0.0000: real time    0.0002
    CHARGE:  cpu time    5.4702: real time    5.4819
    MIXING:  cpu time    0.7949: real time    0.7971
    --------------------------------------------
      LOOP:  cpu time  103.7242: real time  103.9535

 eigenvalue-minimisations  :   128
 total energy-change (2. order) : 0.4038997E-03  (-0.2977353E-03)
 number of electron      16.0000005 magnetization 
 augmentation part        0.4006082 magnetization 

 Broyden mixing:
  rms(total) = 0.11593E-01    rms(broyden)= 0.11590E-01
  rms(prec ) = 0.16100E-01
  weight for this iteration     100.00

 eigenvalues of (default mixing * dielectric matrix)
  average eigenvalue GAMMA=   1.5436
  2.2219  2.2219  0.9572  0.9572  1.3600

 Free energy of the ion-electron system (eV)
  ---------------------------------------------------
  alpha Z        PSCENC =         0.04144063
  Ewald energy   TEWEN  =       708.20575751
  -Hartree energ DENC   =     -1182.21383422
  -exchange      EXHF   =         0.00000000
  -V(xc)+E(xc)   XCENC  =        54.45978210
  PAW double counting   =      1217.28505472    -1220.05870724
  entropy T*S    EENTRO =         0.00000000
  eigenvalues    EBANDS =      -208.15216375
  atomic energy  EATOM  =       596.16534815
  Solvation  Ediel_sol  =         0.00000000
  ---------------------------------------------------
  free energy    TOTEN  =       -34.26732210 eV

  energy without entropy =      -34.26732210  energy(sigma->0) =      -34.26732210


--------------------------------------------------------------------------------------------------------




----------------------------------------- Iteration    1(  11)  ---------------------------------------


    POTLOK:  cpu time   26.1040: real time   26.1610
    SETDIJ:  cpu time    0.0070: real time    0.0063
     EDDAV:  cpu time   63.9993: real time   64.1387
       DOS:  cpu time    0.0000: real time    0.0002
    CHARGE:  cpu time    5.3742: real time    5.3855
    MIXING:  cpu time    0.8659: real time    0.8684
    --------------------------------------------
      LOOP:  cpu time   96.3514: real time   96.5644

 eigenvalue-minimisations  :   112
 total energy-change (2. order) :-0.1648928E-02  (-0.1299599E-03)
 number of electron      16.0000005 magnetization 
 augmentation part        0.4002230 magnetization 

 Broyden mixing:
  rms(total) = 0.64407E-02    rms(broyden)= 0.64395E-02
  rms(prec ) = 0.10262E-01
  weight for this iteration     100.00

 eigenvalues of (default mixing * dielectric matrix)
  average eigenvalue GAMMA=   1.6112
  2.5606  2.5606  0.9729  0.9729  1.3001  1.3001

 Free energy of the ion-electron system (eV)
  ---------------------------------------------------
  alpha Z        PSCENC =         0.04144063
  Ewald energy   TEWEN  =       708.20575751
  -Hartree energ DENC   =     -1183.33899248
  -exchange      EXHF   =         0.00000000
  -V(xc)+E(xc)   XCENC  =        54.48757069
  PAW double counting   =      1214.36056444    -1217.13254460
  entropy T*S    EENTRO =         0.00000000
  eigenvalues    EBANDS =      -207.05811536
  atomic energy  EATOM  =       596.16534815
  Solvation  Ediel_sol  =         0.00000000
  ---------------------------------------------------
  free energy    TOTEN  =       -34.26897102 eV

  energy without entropy =      -34.26897102  energy(sigma->0) =      -34.26897102


--------------------------------------------------------------------------------------------------------




----------------------------------------- Iteration    1(  12)  ---------------------------------------


    POTLOK:  cpu time   25.9221: real time   25.9790
    SETDIJ:  cpu time    0.0070: real time    0.0064
     EDDAV:  cpu time   64.0153: real time   64.1562
       DOS:  cpu time    0.0010: real time    0.0002
    CHARGE:  cpu time    5.4302: real time    5.4424
    MIXING:  cpu time    0.8849: real time    0.8872
    --------------------------------------------
      LOOP:  cpu time   96.2614: real time   96.4759

 eigenvalue-minimisations  :   112
 total energy-change (2. order) :-0.3491336E-02  (-0.1429771E-03)
 number of electron      16.0000005 magnetization 
 augmentation part        0.3999587 magnetization 

 Broyden mixing:
  rms(total) = 0.38086E-02    rms(broyden)= 0.38063E-02
  rms(prec ) = 0.63139E-02
  weight for this iteration     100.00

 eigenvalues of (default mixing * dielectric matrix)
  average eigenvalue GAMMA=   1.7141
  3.5565  2.4258  1.5142  1.5142  0.9461  1.0209  1.0209

 Free energy of the ion-electron system (eV)
  ---------------------------------------------------
  alpha Z        PSCENC =         0.04144063
  Ewald energy   TEWEN  =       708.20575751
  -Hartree energ DENC   =     -1184.39059731
  -exchange      EXHF   =         0.00000000
  -V(xc)+E(xc)   XCENC  =        54.51183447
  PAW double counting   =      1212.45935481    -1215.22971894
  entropy T*S    EENTRO =         0.00000000
  eigenvalues    EBANDS =      -206.03588167
  atomic energy  EATOM  =       596.16534815
  Solvation  Ediel_sol  =         0.00000000
  ---------------------------------------------------
  free energy    TOTEN  =       -34.27246236 eV

  energy without entropy =      -34.27246236  energy(sigma->0) =      -34.27246236


--------------------------------------------------------------------------------------------------------




----------------------------------------- Iteration    1(  13)  ---------------------------------------


    POTLOK:  cpu time   25.8921: real time   25.9483
    SETDIJ:  cpu time    0.0060: real time    0.0064
     EDDAV:  cpu time   79.6329: real time   79.8043
       DOS:  cpu time    0.0000: real time    0.0002
    CHARGE:  cpu time    5.4532: real time    5.4657
    MIXING:  cpu time    0.9449: real time    0.9475
    --------------------------------------------
      LOOP:  cpu time  111.9320: real time  112.1761

 eigenvalue-minimisations  :   148
 total energy-change (2. order) :-0.4228966E-02  (-0.8981142E-04)
 number of electron      16.0000005 magnetization 
 augmentation part        0.3998324 magnetization 

 Broyden mixing:
  rms(total) = 0.24814E-02    rms(broyden)= 0.24801E-02
  rms(prec ) = 0.38556E-02
  weight for this iteration     100.00

 eigenvalues of (default mixing * dielectric matrix)
  average eigenvalue GAMMA=   1.8793
  4.6631  2.5779  2.0209  1.6292  0.9057  1.1947  1.0215  1.0215

 Free energy of the ion-electron system (eV)
  ---------------------------------------------------
  alpha Z        PSCENC =         0.04144063
  Ewald energy   TEWEN  =       708.20575751
  -Hartree energ DENC   =     -1185.10236839
  -exchange      EXHF   =         0.00000000
  -V(xc)+E(xc)   XCENC  =        54.52276475
  PAW double counting   =      1211.07987303    -1213.84940126
  entropy T*S    EENTRO =         0.00000000
  eigenvalues    EBANDS =      -205.34010575
  atomic energy  EATOM  =       596.16534815
  Solvation  Ediel_sol  =         0.00000000
  ---------------------------------------------------
  free energy    TOTEN  =       -34.27669133 eV

  energy without entropy =      -34.27669133  energy(sigma->0) =      -34.27669133


--------------------------------------------------------------------------------------------------------




----------------------------------------- Iteration    1(  14)  ---------------------------------------


    POTLOK:  cpu time   25.5471: real time   25.6014
    SETDIJ:  cpu time    0.0060: real time    0.0063
     EDDAV:  cpu time   71.3002: real time   71.4534
       DOS:  cpu time    0.0000: real time    0.0002
    CHARGE:  cpu time    5.4252: real time    5.4370
    MIXING:  cpu time    0.9789: real time    0.9802
    --------------------------------------------
      LOOP:  cpu time  103.2603: real time  103.4816

 eigenvalue-minimisations  :   128
 total energy-change (2. order) :-0.3857710E-02  (-0.4567904E-04)
 number of electron      16.0000005 magnetization 
 augmentation part        0.3997833 magnetization 

 Broyden mixing:
  rms(total) = 0.14170E-02    rms(broyden)= 0.14168E-02
  rms(prec ) = 0.21518E-02
  weight for this iteration     100.00

 eigenvalues of (default mixing * dielectric matrix)
  average eigenvalue GAMMA=   1.8850
  5.0788  2.6438  2.4169  1.4967  1.2489  1.2489  0.8901  0.9704  0.9704

 Free energy of the ion-electron system (eV)
  ---------------------------------------------------
  alpha Z        PSCENC =         0.04144063
  Ewald energy   TEWEN  =       708.20575751
  -Hartree energ DENC   =     -1185.42725672
  -exchange      EXHF   =         0.00000000
  -V(xc)+E(xc)   XCENC  =        54.52108874
  PAW double counting   =      1209.91836710    -1212.68765163
  entropy T*S    EENTRO =         0.00000000
  eigenvalues    EBANDS =      -205.01764281
  atomic energy  EATOM  =       596.16534815
  Solvation  Ediel_sol  =         0.00000000
  ---------------------------------------------------
  free energy    TOTEN  =       -34.28054904 eV

  energy without entropy =      -34.28054904  energy(sigma->0) =      -34.28054904


--------------------------------------------------------------------------------------------------------




----------------------------------------- Iteration    1(  15)  ---------------------------------------


    POTLOK:  cpu time   26.0880: real time   26.1439
    SETDIJ:  cpu time    0.0060: real time    0.0065
     EDDAV:  cpu time   63.8113: real time   63.9477
       DOS:  cpu time    0.0000: real time    0.0002
    CHARGE:  cpu time    5.5042: real time    5.5162
    MIXING:  cpu time    1.0308: real time    1.0328
    --------------------------------------------
      LOOP:  cpu time   96.4423: real time   96.6510

 eigenvalue-minimisations  :   112
 total energy-change (2. order) :-0.1826564E-02  (-0.1517718E-04)
 number of electron      16.0000005 magnetization 
 augmentation part        0.3997465 magnetization 

 Broyden mixing:
  rms(total) = 0.92761E-03    rms(broyden)= 0.92740E-03
  rms(prec ) = 0.14541E-02
  weight for this iteration     100.00

 eigenvalues of (default mixing * dielectric matrix)
  average eigenvalue GAMMA=   2.0666
  6.4545  3.2226  2.2904  2.1951  1.3503  1.3503  0.9819  0.9819  0.9097  0.9292

 Free energy of the ion-electron system (eV)
  ---------------------------------------------------
  alpha Z        PSCENC =         0.04144063
  Ewald energy   TEWEN  =       708.20575751
  -Hartree energ DENC   =     -1185.51625616
  -exchange      EXHF   =         0.00000000
  -V(xc)+E(xc)   XCENC  =        54.52029826
  PAW double counting   =      1210.37270889    -1213.14228677
  entropy T*S    EENTRO =         0.00000000
  eigenvalues    EBANDS =      -204.92938610
  atomic energy  EATOM  =       596.16534815
  Solvation  Ediel_sol  =         0.00000000
  ---------------------------------------------------
  free energy    TOTEN  =       -34.28237560 eV

  energy without entropy =      -34.28237560  energy(sigma->0) =      -34.28237560


--------------------------------------------------------------------------------------------------------




----------------------------------------- Iteration    1(  16)  ---------------------------------------


    POTLOK:  cpu time   25.9241: real time   25.9791
    SETDIJ:  cpu time    0.0070: real time    0.0064
     EDDAV:  cpu time   69.5894: real time   69.7389
       DOS:  cpu time    0.0000: real time    0.0002
    CHARGE:  cpu time    5.5362: real time    5.5481
    MIXING:  cpu time    1.0898: real time    1.0921
    --------------------------------------------
      LOOP:  cpu time  102.1485: real time  102.3688

 eigenvalue-minimisations  :   124
 total energy-change (2. order) :-0.1927199E-02  (-0.1910357E-04)
 number of electron      16.0000005 magnetization 
 augmentation part        0.3997407 magnetization 

 Broyden mixing:
  rms(total) = 0.49908E-03    rms(broyden)= 0.49890E-03
  rms(prec ) = 0.71783E-03
  weight for this iteration     100.00

 eigenvalues of (default mixing * dielectric matrix)
  average eigenvalue GAMMA=   2.1445
  7.3104  3.5740  2.4003  2.4003  1.6151  1.2910  1.2910  0.9673  0.9673  0.8863
  0.8863

 Free energy of the ion-electron system (eV)
  ---------------------------------------------------
  alpha Z        PSCENC =         0.04144063
  Ewald energy   TEWEN  =       708.20575751
  -Hartree energ DENC   =     -1185.57914723
  -exchange      EXHF   =         0.00000000
  -V(xc)+E(xc)   XCENC  =        54.51655222
  PAW double counting   =      1210.29031780    -1213.05976751
  entropy T*S    EENTRO =         0.00000000
  eigenvalues    EBANDS =      -204.86480436
  atomic energy  EATOM  =       596.16534815
  Solvation  Ediel_sol  =         0.00000000
  ---------------------------------------------------
  free energy    TOTEN  =       -34.28430280 eV

  energy without entropy =      -34.28430280  energy(sigma->0) =      -34.28430280


--------------------------------------------------------------------------------------------------------




----------------------------------------- Iteration    1(  17)  ---------------------------------------


    POTLOK:  cpu time   26.0010: real time   26.0569
    SETDIJ:  cpu time    0.0060: real time    0.0064
     EDDAV:  cpu time   58.0722: real time   58.1959
       DOS:  cpu time    0.0000: real time    0.0002
    CHARGE:  cpu time    5.4632: real time    5.4755
    MIXING:  cpu time    1.1838: real time    1.1878
    --------------------------------------------
      LOOP:  cpu time   90.7292: real time   90.9266

 eigenvalue-minimisations  :    96
 total energy-change (2. order) :-0.6323639E-03  (-0.2695294E-05)
 number of electron      16.0000005 magnetization 
 augmentation part        0.3997353 magnetization 

 Broyden mixing:
  rms(total) = 0.27851E-03    rms(broyden)= 0.27842E-03
  rms(prec ) = 0.41185E-03
  weight for this iteration     100.00

 eigenvalues of (default mixing * dielectric matrix)
  average eigenvalue GAMMA=   2.2283
  7.7978  4.3878  2.5268  2.4526  1.9818  1.5116  1.1940  1.1940  0.9636  0.9636
  0.8627  0.9028

 Free energy of the ion-electron system (eV)
  ---------------------------------------------------
  alpha Z        PSCENC =         0.04144063
  Ewald energy   TEWEN  =       708.20575751
  -Hartree energ DENC   =     -1185.58834268
  -exchange      EXHF   =         0.00000000
  -V(xc)+E(xc)   XCENC  =        54.51549021
  PAW double counting   =      1210.38028395    -1213.14976705
  entropy T*S    EENTRO =         0.00000000
  eigenvalues    EBANDS =      -204.85514588
  atomic energy  EATOM  =       596.16534815
  Solvation  Ediel_sol  =         0.00000000
  ---------------------------------------------------
  free energy    TOTEN  =       -34.28493516 eV

  energy without entropy =      -34.28493516  energy(sigma->0) =      -34.28493516


--------------------------------------------------------------------------------------------------------




----------------------------------------- Iteration    1(  18)  ---------------------------------------


    POTLOK:  cpu time   26.1100: real time   26.1655
    SETDIJ:  cpu time    0.0060: real time    0.0063
     EDDAV:  cpu time   55.1086: real time   55.2254
       DOS:  cpu time    0.0000: real time    0.0002
    CHARGE:  cpu time    5.1942: real time    5.2056
    MIXING:  cpu time    1.1918: real time    1.1937
    --------------------------------------------
      LOOP:  cpu time   87.6127: real time   87.7998

 eigenvalue-minimisations  :    92
 total energy-change (2. order) :-0.3765033E-03  (-0.2914938E-05)
 number of electron      16.0000005 magnetization 
 augmentation part        0.3997353 magnetization 

 Broyden mixing:
  rms(total) = 0.19540E-03    rms(broyden)= 0.19537E-03
  rms(prec ) = 0.25465E-03
  weight for this iteration     100.00

 eigenvalues of (default mixing * dielectric matrix)
  average eigenvalue GAMMA=   2.2819
  8.2919  4.8969  2.7343  2.6279  2.1942  1.6325  1.2953  1.2953  0.9622  0.9622
  1.0197  0.8761  0.8761

 Free energy of the ion-electron system (eV)
  ---------------------------------------------------
  alpha Z        PSCENC =         0.04144063
  Ewald energy   TEWEN  =       708.20575751
  -Hartree energ DENC   =     -1185.57771566
  -exchange      EXHF   =         0.00000000
  -V(xc)+E(xc)   XCENC  =        54.51437499
  PAW double counting   =      1210.41346497    -1213.18288390
  entropy T*S    EENTRO =         0.00000000
  eigenvalues    EBANDS =      -204.86509834
  atomic energy  EATOM  =       596.16534815
  Solvation  Ediel_sol  =         0.00000000
  ---------------------------------------------------
  free energy    TOTEN  =       -34.28531167 eV

  energy without entropy =      -34.28531167  energy(sigma->0) =      -34.28531167


--------------------------------------------------------------------------------------------------------




----------------------------------------- Iteration    1(  19)  ---------------------------------------


    POTLOK:  cpu time   25.6281: real time   25.6818
    SETDIJ:  cpu time    0.0070: real time    0.0064
     EDDAV:  cpu time   52.7520: real time   52.8634
       DOS:  cpu time    0.0000: real time    0.0002
    CHARGE:  cpu time    5.0102: real time    5.0218
    MIXING:  cpu time    1.1018: real time    1.1049
    --------------------------------------------
      LOOP:  cpu time   84.5022: real time   84.6822

 eigenvalue-minimisations  :    92
 total energy-change (2. order) :-0.1529346E-03  (-0.1023586E-05)
 number of electron      16.0000005 magnetization 
 augmentation part        0.3997312 magnetization 

 Broyden mixing:
  rms(total) = 0.95986E-04    rms(broyden)= 0.95957E-04
  rms(prec ) = 0.13033E-03
  weight for this iteration     100.00

 eigenvalues of (default mixing * dielectric matrix)
  average eigenvalue GAMMA=   2.3157
  8.6043  5.1321  3.3334  2.5679  2.2037  1.7137  1.7137  1.2469  1.2469  0.9648
  0.9648  0.9903  0.8685  0.8685

 Free energy of the ion-electron system (eV)
  ---------------------------------------------------
  alpha Z        PSCENC =         0.04144063
  Ewald energy   TEWEN  =       708.20575751
  -Hartree energ DENC   =     -1185.57487713
  -exchange      EXHF   =         0.00000000
  -V(xc)+E(xc)   XCENC  =        54.51403239
  PAW double counting   =      1210.36144943    -1213.13083221
  entropy T*S    EENTRO =         0.00000000
  eigenvalues    EBANDS =      -204.86778336
  atomic energy  EATOM  =       596.16534815
  Solvation  Ediel_sol  =         0.00000000
  ---------------------------------------------------
  free energy    TOTEN  =       -34.28546460 eV

  energy without entropy =      -34.28546460  energy(sigma->0) =      -34.28546460


--------------------------------------------------------------------------------------------------------




----------------------------------------- Iteration    1(  20)  ---------------------------------------


    POTLOK:  cpu time   24.5323: real time   24.5821
    SETDIJ:  cpu time    0.0060: real time    0.0062
     EDDAV:  cpu time   45.3321: real time   45.4241
       DOS:  cpu time    0.0000: real time    0.0002
    --------------------------------------------
      LOOP:  cpu time   69.8734: real time   70.0169

 eigenvalue-minimisations  :    80
 total energy-change (2. order) :-0.7160142E-04  (-0.3810361E-06)
 number of electron      16.0000005 magnetization 
 augmentation part        0.3997312 magnetization 

 Free energy of the ion-electron system (eV)
  ---------------------------------------------------
  alpha Z        PSCENC =         0.04144063
  Ewald energy   TEWEN  =       708.20575751
  -Hartree energ DENC   =     -1185.58162090
  -exchange      EXHF   =         0.00000000
  -V(xc)+E(xc)   XCENC  =        54.51413471
  PAW double counting   =      1210.31101406    -1213.08043627
  entropy T*S    EENTRO =         0.00000000
  eigenvalues    EBANDS =      -204.86117409
  atomic energy  EATOM  =       596.16534815
  Solvation  Ediel_sol  =         0.00000000
  ---------------------------------------------------
  free energy    TOTEN  =       -34.28553620 eV

  energy without entropy =      -34.28553620  energy(sigma->0) =      -34.28553620


--------------------------------------------------------------------------------------------------------




 average (electrostatic) potential at core
  the test charge radii are     0.5201  0.6991  0.7089
  (the norm of the test charge is              1.0000)
       1 -42.8955       2 -42.8968       3 -42.9946       4 -60.4670       5 -60.0919
       6 -74.3133
 
 
 
 E-fermi :  -6.3834     XC(G=0):  -0.0898     alpha+bet : -0.0137


 k-point     1 :       0.2500    0.2500    0.2500
  band No.  band energies     occupation 
      1     -24.2573      2.00000
      2     -17.8476      2.00000
      3     -12.7808      2.00000
      4     -11.5126      2.00000
      5     -11.1963      2.00000
      6      -9.2030      2.00000
      7      -8.2826      2.00000
      8      -7.3504      2.00000
      9      -2.4621      0.00000
     10      -1.1323      0.00000
     11      -0.4105      0.00000
     12      -0.0077      0.00000

 k-point     2 :      -0.2500    0.2500    0.2500
  band No.  band energies     occupation 
      1     -24.2573      2.00000
      2     -17.8476      2.00000
      3     -12.7808      2.00000
      4     -11.5126      2.00000
      5     -11.1963      2.00000
      6      -9.2030      2.00000
      7      -8.2826      2.00000
      8      -7.3504      2.00000
      9      -2.4621      0.00000
     10      -1.1323      0.00000
     11      -0.4105      0.00000
     12      -0.0034      0.00000

 k-point     3 :       0.2500   -0.2500    0.2500
  band No.  band energies     occupation 
      1     -24.2573      2.00000
      2     -17.8476      2.00000
      3     -12.7808      2.00000
      4     -11.5126      2.00000
      5     -11.1963      2.00000
      6      -9.2030      2.00000
      7      -8.2826      2.00000
      8      -7.3504      2.00000
      9      -2.4621      0.00000
     10      -1.1323      0.00000
     11      -0.4106      0.00000
     12      -0.0023      0.00000

 k-point     4 :      -0.2500   -0.2500    0.2500
  band No.  band energies     occupation 
      1     -24.2573      2.00000
      2     -17.8476      2.00000
      3     -12.7808      2.00000
      4     -11.5126      2.00000
      5     -11.1963      2.00000
      6      -9.2030      2.00000
      7      -8.2826      2.00000
      8      -7.3504      2.00000
      9      -2.4621      0.00000
     10      -1.1323      0.00000
     11      -0.4106      0.00000
     12      -0.0011      0.00000


--------------------------------------------------------------------------------------------------------


 soft charge-density along one line, spin component           1
         0         1         2         3         4         5         6         7         8         9
 total charge-density along one line
 
 pseudopotential strength for first ion, spin component:           1
 -2.360  -4.070  -0.002   0.000  -0.001
 -4.070  -6.933  -0.005   0.001  -0.002
 -0.002  -0.005  -0.330  -0.001   0.001
  0.000   0.001  -0.001  -0.334   0.000
 -0.001  -0.002   0.001   0.000  -0.334
 total augmentation occupancy for first ion, spin component:           1
  3.561  -0.645   0.426  -0.075   0.131
 -0.645   0.133  -0.079   0.014  -0.024
  0.426  -0.079   0.052  -0.008   0.014
 -0.075   0.014  -0.008   0.010  -0.003
  0.131  -0.024   0.014  -0.003   0.011


------------------------ aborting loop because EDIFF is reached ----------------------------------------


    CHARGE:  cpu time    4.8383: real time    4.8488
    FORLOC:  cpu time    2.5726: real time    2.5769
    FORNL :  cpu time   15.0277: real time   15.0559
    STRESS:  cpu time   46.6129: real time   46.6968
    FORCOR:  cpu time   24.2793: real time   24.3220
    FORHAR:  cpu time    8.4167: real time    8.4319
    MIXING:  cpu time    1.1118: real time    1.1143
    OFIELD:  cpu time    0.0000: real time    0.0000

  FORCE on cell =-STRESS in cart. coord.  units (eV):
  Direction    XX          YY          ZZ          XY          YZ          ZX
  --------------------------------------------------------------------------------------
  Alpha Z     0.04144     0.04144     0.04144
  Ewald     385.99091   143.42771   178.78709   -59.45539   116.99490   -45.64560
  Hartree   507.04837   332.05850   346.47154   -25.04671    46.27723   -14.15186
  E(xc)     -59.26133   -59.48256   -59.36082    -0.18498     0.40344    -0.17609
  Local   -1050.28925  -643.18837  -690.39314    81.54341  -154.79403    57.58962
  n-local   -17.68309   -24.51385   -25.45474     1.90523    -3.37289     2.57461
  augment     0.52148     0.86940     0.88064    -0.01683     0.03549    -0.05370
  Kinetic   234.28866   249.80772   247.91807     0.09206    -5.50218    -1.39469
  Fock        0.00000     0.00000     0.00000     0.00000     0.00000     0.00000
  -------------------------------------------------------------------------------------
  Total       0.65720    -0.98000    -1.10992    -1.16322     0.04196    -1.25772
  in kB       0.03900    -0.05815    -0.06586    -0.06903     0.00249    -0.07463
  external pressure =       -0.03 kB  Pullay stress =        0.00 kB


 VOLUME and BASIS-vectors are now :
 -----------------------------------------------------------------------------
  energy-cutoff  :      400.00
  volume of cell :    27000.00
      direct lattice vectors                 reciprocal lattice vectors
    30.000000000  0.000000000  0.000000000     0.033333333  0.000000000  0.000000000
     0.000000000 30.000000000  0.000000000     0.000000000  0.033333333  0.000000000
     0.000000000  0.000000000 30.000000000     0.000000000  0.000000000  0.033333333

  length of vectors
    30.000000000 30.000000000 30.000000000     0.033333333  0.033333333  0.033333333


 FORCES acting on ions
    electron-ion (+dipol)            ewald-force                    non-local-force                 convergence-correction
 -----------------------------------------------------------------------------------------------
   0.328E+02 0.577E+02 -.101E+02   -.344E+02 -.630E+02 0.111E+02   0.168E+01 0.545E+01 -.947E+00   -.276E-04 -.236E-03 0.524E-04
   0.276E+02 -.169E+02 0.587E+02   -.288E+02 0.184E+02 -.640E+02   0.119E+01 -.149E+01 0.544E+01   -.639E-05 0.699E-04 -.232E-03
   0.410E+02 -.388E+02 -.384E+02   -.440E+02 0.427E+02 0.424E+02   0.247E+01 -.381E+01 -.389E+01   -.280E-04 0.169E-03 0.181E-03
   0.110E+03 0.205E+01 0.103E+02   -.117E+03 -.224E+01 -.111E+02   0.750E+01 0.474E+00 0.103E+01   0.739E-03 0.882E-04 0.171E-03
   -.139E+03 0.124E+03 0.139E+03   0.148E+03 -.138E+03 -.154E+03   -.817E+01 0.134E+02 0.154E+02   -.290E-03 0.858E-03 0.102E-02
   -.715E+02 -.122E+03 -.151E+03   0.763E+02 0.142E+03 0.176E+03   -.555E+01 -.207E+02 -.253E+02   0.108E-02 0.195E-03 0.325E-03
 -----------------------------------------------------------------------------------------------
   0.881E+00 0.671E+01 0.827E+01   0.426E-13 0.284E-13 0.000E+00   -.882E+00 -.672E+01 -.827E+01   0.147E-02 0.114E-02 0.152E-02
 
 
 POSITION                                       TOTAL-FORCE (eV/Angst)
 -----------------------------------------------------------------------------------
     14.26618     14.01294     15.21676         0.026198      0.144409      0.086476
     14.36125     15.33597     13.99411         0.051065      0.048322      0.160228
     14.11152     15.73317     15.72985        -0.533158      0.150454      0.121920
     14.57690     15.04893     15.03204        -0.064667      0.281760      0.326942
     16.53576     14.54759     14.57371         1.249667     -0.242526     -0.229402
     16.09042     15.27870     15.41859        -0.729105     -0.382420     -0.466164
 -----------------------------------------------------------------------------------
    total drift:                                0.000373     -0.008909      0.002443


--------------------------------------------------------------------------------------------------------



  FREE ENERGIE OF THE ION-ELECTRON SYSTEM (eV)
  ---------------------------------------------------
  free  energy   TOTEN  =       -34.28553620 eV

  energy  without entropy=      -34.28553620  energy(sigma->0) =      -34.28553620
 


--------------------------------------------------------------------------------------------------------


    POTLOK:  cpu time   22.4586: real time   22.4962


--------------------------------------------------------------------------------------------------------


 NEB: the previous image is higher in energy: F
 NEB: the next image is higher in energy    : T
 NEB: only next energy greater

 NEB: Tangent
 ----------------------------------------------
     -0.05899     -0.08853     -0.05704
     -0.07665     -0.03493     -0.10331
      0.31614     -0.07944     -0.06410
      0.05280     -0.16635     -0.18943
     -0.64572      0.08938      0.07870
      0.40966      0.28262      0.33485

 NEB: forces: par spring, perp REAL, dneb     0.012790    0.269156    0.000000
 NEB: distance to prev, next image, angle between     0.234397    0.236955  157.076527
 NEB: projections on to tangent (spring, REAL)     0.012790   -1.751476

 stress matrix after NEB project (eV)
      0.65720     -1.16322     -1.25772
     -1.16322     -0.98000      0.04196
     -1.25772      0.04196     -1.10992
  FORCES: max atom, RMS     0.170494    0.110006
  FORCE total and by dimension    0.269459    0.124596
  Stress total and by dimension    2.915068    1.257719
 
 OPT: Flag T
 OPT: FIRE Step
 OPT: FIRE, TIMESTEP      0.10000
 OPT: FIRE, alpha         0.10000


--------------------------------------------------------------------------------------------------------


    WAVPRE:  cpu time    7.8348: real time    8.1432
 FEWALD executed in parallel
    FEWALD:  cpu time    0.0000: real time    0.0004
    ORTHCH:  cpu time    7.2649: real time    7.2814
     LOOP+:  cpu time 2815.3550: real time 2821.3068


----------------------------------------- Iteration    2(   1)  ---------------------------------------


    POTLOK:  cpu time   23.4574: real time   23.5143
    SETDIJ:  cpu time    0.0060: real time    0.0066
     EDDAV:  cpu time   85.6990: real time   85.9093
       DOS:  cpu time    0.0000: real time    0.0002
    CHARGE:  cpu time    7.2869: real time    7.3045
    MIXING:  cpu time    0.6439: real time    0.6466
    --------------------------------------------
      LOOP:  cpu time  117.0962: real time  117.3837

 eigenvalue-minimisations  :   124
 total energy-change (2. order) :-0.1995058E-03  (-0.2464142E-02)
 number of electron      16.0000004 magnetization 
 augmentation part        0.3984343 magnetization 

 Broyden mixing:
  rms(total) = 0.68527E-02    rms(broyden)= 0.68269E-02
  rms(prec ) = 0.69939E-02
  weight for this iteration     100.00

 Free energy of the ion-electron system (eV)
  ---------------------------------------------------
  alpha Z        PSCENC =         0.04144063
  Ewald energy   TEWEN  =       707.37422704
  -Hartree energ DENC   =     -1185.03467538
  -exchange      EXHF   =         0.00000000
  -V(xc)+E(xc)   XCENC  =        54.49941561
  PAW double counting   =      1210.32769669    -1213.09713555
  entropy T*S    EENTRO =         0.00000000
  eigenvalues    EBANDS =      -204.56198129
  atomic energy  EATOM  =       596.16534815
  Solvation  Ediel_sol  =         0.00000000
  ---------------------------------------------------
  free energy    TOTEN  =       -34.28566411 eV

  energy without entropy =      -34.28566411  energy(sigma->0) =      -34.28566411


--------------------------------------------------------------------------------------------------------




----------------------------------------- Iteration    2(   2)  ---------------------------------------


    POTLOK:  cpu time   23.8464: real time   23.9043
    SETDIJ:  cpu time    0.0070: real time    0.0069
     EDDAV:  cpu time   88.2946: real time   88.5113
       DOS:  cpu time    0.0000: real time    0.0002
    CHARGE:  cpu time    7.4739: real time    7.4967
    MIXING:  cpu time    0.7089: real time    0.7110
    --------------------------------------------
      LOOP:  cpu time  120.3317: real time  120.6347

 eigenvalue-minimisations  :   128
 total energy-change (2. order) : 0.6146304E-04  (-0.4106773E-04)
 number of electron      16.0000004 magnetization 
 augmentation part        0.3981836 magnetization 

 Broyden mixing:
  rms(total) = 0.36010E-02    rms(broyden)= 0.35992E-02
  rms(prec ) = 0.36846E-02
  weight for this iteration     100.00

 eigenvalues of (default mixing * dielectric matrix)
  average eigenvalue GAMMA=   1.2837
  1.2837

 Free energy of the ion-electron system (eV)
  ---------------------------------------------------
  alpha Z        PSCENC =         0.04144063
  Ewald energy   TEWEN  =       707.37422704
  -Hartree energ DENC   =     -1184.94910974
  -exchange      EXHF   =         0.00000000
  -V(xc)+E(xc)   XCENC  =        54.49465358
  PAW double counting   =      1208.33399699    -1211.10156689
  entropy T*S    EENTRO =         0.00000000
  eigenvalues    EBANDS =      -204.64459240
  atomic energy  EATOM  =       596.16534815
  Solvation  Ediel_sol  =         0.00000000
  ---------------------------------------------------
  free energy    TOTEN  =       -34.28560264 eV

  energy without entropy =      -34.28560264  energy(sigma->0) =      -34.28560264


--------------------------------------------------------------------------------------------------------




----------------------------------------- Iteration    2(   3)  ---------------------------------------


    POTLOK:  cpu time   27.1659: real time   27.2358
    SETDIJ:  cpu time    0.0070: real time    0.0066
     EDDAV:  cpu time   71.4131: real time   71.5817
       DOS:  cpu time    0.0000: real time    0.0002
    CHARGE:  cpu time    7.2439: real time    7.2612
    MIXING:  cpu time    0.8309: real time    0.8329
    --------------------------------------------
      LOOP:  cpu time  106.6618: real time  106.9231

 eigenvalue-minimisations  :    96
 total energy-change (2. order) : 0.7399412E-05  (-0.1115422E-04)
 number of electron      16.0000004 magnetization 
 augmentation part        0.3983325 magnetization 

 Broyden mixing:
  rms(total) = 0.14826E-02    rms(broyden)= 0.14819E-02
  rms(prec ) = 0.14981E-02
  weight for this iteration     100.00

 eigenvalues of (default mixing * dielectric matrix)
  average eigenvalue GAMMA=   1.3878
  0.9064  1.8692

 Free energy of the ion-electron system (eV)
  ---------------------------------------------------
  alpha Z        PSCENC =         0.04144063
  Ewald energy   TEWEN  =       707.37422704
  -Hartree energ DENC   =     -1184.87052714
  -exchange      EXHF   =         0.00000000
  -V(xc)+E(xc)   XCENC  =        54.49064916
  PAW double counting   =      1206.83484965    -1209.60084052
  entropy T*S    EENTRO =         0.00000000
  eigenvalues    EBANDS =      -204.72074222
  atomic energy  EATOM  =       596.16534815
  Solvation  Ediel_sol  =         0.00000000
  ---------------------------------------------------
  free energy    TOTEN  =       -34.28559524 eV

  energy without entropy =      -34.28559524  energy(sigma->0) =      -34.28559524


--------------------------------------------------------------------------------------------------------




----------------------------------------- Iteration    2(   4)  ---------------------------------------


    POTLOK:  cpu time   27.8368: real time   27.9380
    SETDIJ:  cpu time    0.0070: real time    0.0066
     EDDAV:  cpu time   66.1659: real time   66.3176
[...]
  Solvation  Ediel_sol  =         0.00000000
  ---------------------------------------------------
  free energy    TOTEN  =       -34.31122277 eV

  energy without entropy =      -34.31122277  energy(sigma->0) =      -34.31122277


--------------------------------------------------------------------------------------------------------




----------------------------------------- Iteration   28(   2)  ---------------------------------------


    POTLOK:  cpu time   23.5614: real time   23.6172
    SETDIJ:  cpu time    0.0070: real time    0.0068
     EDDAV:  cpu time   41.3147: real time   41.4111
       DOS:  cpu time    0.0000: real time    0.0002
    CHARGE:  cpu time    5.4802: real time    5.4922
    MIXING:  cpu time    0.6999: real time    0.7030
    --------------------------------------------
      LOOP:  cpu time   71.0652: real time   71.2336

 eigenvalue-minimisations  :    48
 total energy-change (2. order) :-0.4752496E-07  (-0.7816809E-07)
 number of electron      16.0000003 magnetization 
 augmentation part        0.4003098 magnetization 

 Broyden mixing:
  rms(total) = 0.69784E-04    rms(broyden)= 0.69642E-04
  rms(prec ) = 0.70571E-04
  weight for this iteration     100.00

 eigenvalues of (default mixing * dielectric matrix)
  average eigenvalue GAMMA=   1.4975
  1.4975

 Free energy of the ion-electron system (eV)
  ---------------------------------------------------
  alpha Z        PSCENC =         0.04144063
  Ewald energy   TEWEN  =       707.33387642
  -Hartree energ DENC   =     -1184.76535707
  -exchange      EXHF   =         0.00000000
  -V(xc)+E(xc)   XCENC  =        54.50229849
  PAW double counting   =      1209.54800754    -1212.31809695
  entropy T*S    EENTRO =         0.00000000
  eigenvalues    EBANDS =      -204.81874003
  atomic energy  EATOM  =       596.16534815
  Solvation  Ediel_sol  =         0.00000000
  ---------------------------------------------------
  free energy    TOTEN  =       -34.31122282 eV

  energy without entropy =      -34.31122282  energy(sigma->0) =      -34.31122282


--------------------------------------------------------------------------------------------------------




----------------------------------------- Iteration   28(   3)  ---------------------------------------


    POTLOK:  cpu time   21.2538: real time   21.3034
    SETDIJ:  cpu time    0.0060: real time    0.0064
     EDDAV:  cpu time   43.5554: real time   43.6592
       DOS:  cpu time    0.0000: real time    0.0002
    CHARGE:  cpu time    6.7370: real time    6.7528
    MIXING:  cpu time    0.7489: real time    0.7510
    --------------------------------------------
      LOOP:  cpu time   72.3040: real time   72.4773

 eigenvalue-minimisations  :    48
 total energy-change (2. order) :-0.2699971E-07  (-0.1331596E-07)
 number of electron      16.0000003 magnetization 
 augmentation part        0.4003087 magnetization 

 Broyden mixing:
  rms(total) = 0.35101E-04    rms(broyden)= 0.35058E-04
  rms(prec ) = 0.35563E-04
  weight for this iteration     100.00

 eigenvalues of (default mixing * dielectric matrix)
  average eigenvalue GAMMA=   1.5963
  1.0022  2.1904

 Free energy of the ion-electron system (eV)
  ---------------------------------------------------
  alpha Z        PSCENC =         0.04144063
  Ewald energy   TEWEN  =       707.33387642
  -Hartree energ DENC   =     -1184.76566470
  -exchange      EXHF   =         0.00000000
  -V(xc)+E(xc)   XCENC  =        54.50231681
  PAW double counting   =      1209.54766651    -1212.31775693
  entropy T*S    EENTRO =         0.00000000
  eigenvalues    EBANDS =      -204.81844973
  atomic energy  EATOM  =       596.16534815
  Solvation  Ediel_sol  =         0.00000000
  ---------------------------------------------------
  free energy    TOTEN  =       -34.31122284 eV

  energy without entropy =      -34.31122284  energy(sigma->0) =      -34.31122284


--------------------------------------------------------------------------------------------------------




----------------------------------------- Iteration   28(   4)  ---------------------------------------


    POTLOK:  cpu time   21.3148: real time   21.3645
    SETDIJ:  cpu time    0.0070: real time    0.0065
     EDDAV:  cpu time   41.8836: real time   41.9816
       DOS:  cpu time    0.0000: real time    0.0002
    CHARGE:  cpu time    5.8651: real time    5.8791
    MIXING:  cpu time    0.7729: real time    0.7747
    --------------------------------------------
      LOOP:  cpu time   69.8464: real time   70.0121

 eigenvalue-minimisations  :    48
 total energy-change (2. order) :-0.1050216E-07  (-0.5403884E-08)
 number of electron      16.0000003 magnetization 
 augmentation part        0.4003087 magnetization 

 Broyden mixing:
  rms(total) = 0.13902E-04    rms(broyden)= 0.13883E-04
  rms(prec ) = 0.14114E-04
  weight for this iteration     100.00

 eigenvalues of (default mixing * dielectric matrix)
  average eigenvalue GAMMA=   1.6641
  2.4210  0.9365  1.6348

 Free energy of the ion-electron system (eV)
  ---------------------------------------------------
  alpha Z        PSCENC =         0.04144063
  Ewald energy   TEWEN  =       707.33387642
  -Hartree energ DENC   =     -1184.76571290
  -exchange      EXHF   =         0.00000000
  -V(xc)+E(xc)   XCENC  =        54.50231746
  PAW double counting   =      1209.54783868    -1212.31792779
  entropy T*S    EENTRO =         0.00000000
  eigenvalues    EBANDS =      -204.81840349
  atomic energy  EATOM  =       596.16534815
  Solvation  Ediel_sol  =         0.00000000
  ---------------------------------------------------
  free energy    TOTEN  =       -34.31122285 eV

  energy without entropy =      -34.31122285  energy(sigma->0) =      -34.31122285


--------------------------------------------------------------------------------------------------------




----------------------------------------- Iteration   28(   5)  ---------------------------------------


    POTLOK:  cpu time   21.6657: real time   21.7147
    SETDIJ:  cpu time    0.0060: real time    0.0065
     EDDAV:  cpu time   43.0555: real time   43.1559
       DOS:  cpu time    0.0000: real time    0.0002
    CHARGE:  cpu time    6.4470: real time    6.4622
    MIXING:  cpu time    0.8559: real time    0.8580
    --------------------------------------------
      LOOP:  cpu time   72.0310: real time   72.2023

 eigenvalue-minimisations  :    48
 total energy-change (2. order) :-0.2364914E-08  (-0.3528523E-08)
 number of electron      16.0000003 magnetization 
 augmentation part        0.4003088 magnetization 

 Broyden mixing:
  rms(total) = 0.59470E-05    rms(broyden)= 0.59370E-05
  rms(prec ) = 0.60900E-05
  weight for this iteration     100.00

 eigenvalues of (default mixing * dielectric matrix)
  average eigenvalue GAMMA=   1.7221
  2.8773  2.0733  0.9689  0.9689

 Free energy of the ion-electron system (eV)
  ---------------------------------------------------
  alpha Z        PSCENC =         0.04144063
  Ewald energy   TEWEN  =       707.33387642
  -Hartree energ DENC   =     -1184.76569187
  -exchange      EXHF   =         0.00000000
  -V(xc)+E(xc)   XCENC  =        54.50231334
  PAW double counting   =      1209.54859827    -1212.31868639
  entropy T*S    EENTRO =         0.00000000
  eigenvalues    EBANDS =      -204.81842140
  atomic energy  EATOM  =       596.16534815
  Solvation  Ediel_sol  =         0.00000000
  ---------------------------------------------------
  free energy    TOTEN  =       -34.31122286 eV

  energy without entropy =      -34.31122286  energy(sigma->0) =      -34.31122286


--------------------------------------------------------------------------------------------------------




----------------------------------------- Iteration   28(   6)  ---------------------------------------


    POTLOK:  cpu time   23.1785: real time   23.2329
    SETDIJ:  cpu time    0.0060: real time    0.0066
     EDDAV:  cpu time   41.5827: real time   41.6783
       DOS:  cpu time    0.0000: real time    0.0002
    --------------------------------------------
      LOOP:  cpu time   64.7692: real time   64.9268

 eigenvalue-minimisations  :    48
 total energy-change (2. order) :-0.1384478E-08  (-0.3070202E-08)
 number of electron      16.0000003 magnetization 
 augmentation part        0.4003088 magnetization 

 Free energy of the ion-electron system (eV)
  ---------------------------------------------------
  alpha Z        PSCENC =         0.04144063
  Ewald energy   TEWEN  =       707.33387642
  -Hartree energ DENC   =     -1184.76570543
  -exchange      EXHF   =         0.00000000
  -V(xc)+E(xc)   XCENC  =        54.50231202
  PAW double counting   =      1209.54929091    -1212.31937885
  entropy T*S    EENTRO =         0.00000000
  eigenvalues    EBANDS =      -204.81840670
  atomic energy  EATOM  =       596.16534815
  Solvation  Ediel_sol  =         0.00000000
  ---------------------------------------------------
  free energy    TOTEN  =       -34.31122286 eV

  energy without entropy =      -34.31122286  energy(sigma->0) =      -34.31122286


--------------------------------------------------------------------------------------------------------




 average (electrostatic) potential at core
  the test charge radii are     0.5201  0.6991  0.7089
  (the norm of the test charge is              1.0000)
       1 -42.8768       2 -42.8761       3 -42.9676       4 -60.4517       5 -60.1026
       6 -74.3256
 
 
 
 E-fermi :  -6.3584     XC(G=0):  -0.0620     alpha+bet : -0.0137


 k-point     1 :       0.2500    0.2500    0.2500
  band No.  band energies     occupation 
      1     -24.2360      2.00000
      2     -17.8541      2.00000
      3     -12.8019      2.00000
      4     -11.4871      2.00000
      5     -11.2006      2.00000
      6      -9.1993      2.00000
      7      -8.2769      2.00000
      8      -7.3533      2.00000
      9      -2.5104      0.00000
     10      -1.1481      0.00000
     11      -0.4113      0.00000
     12       0.0198      0.00000

 k-point     2 :      -0.2500    0.2500    0.2500
  band No.  band energies     occupation 
      1     -24.2360      2.00000
      2     -17.8541      2.00000
      3     -12.8019      2.00000
      4     -11.4871      2.00000
      5     -11.2006      2.00000
      6      -9.1993      2.00000
      7      -8.2769      2.00000
      8      -7.3533      2.00000
      9      -2.5104      0.00000
     10      -1.1481      0.00000
     11      -0.4113      0.00000
     12       0.0241      0.00000

 k-point     3 :       0.2500   -0.2500    0.2500
  band No.  band energies     occupation 
      1     -24.2360      2.00000
      2     -17.8541      2.00000
      3     -12.8019      2.00000
      4     -11.4871      2.00000
      5     -11.2006      2.00000
      6      -9.1993      2.00000
      7      -8.2769      2.00000
      8      -7.3533      2.00000
      9      -2.5105      0.00000
     10      -1.1481      0.00000
     11      -0.4113      0.00000
     12       0.0250      0.00000

 k-point     4 :      -0.2500   -0.2500    0.2500
  band No.  band energies     occupation 
      1     -24.2360      2.00000
      2     -17.8541      2.00000
      3     -12.8019      2.00000
      4     -11.4871      2.00000
      5     -11.2006      2.00000
      6      -9.1993      2.00000
      7      -8.2769      2.00000
      8      -7.3533      2.00000
      9      -2.5105      0.00000
     10      -1.1481      0.00000
     11      -0.4113      0.00000
     12       0.0255      0.00000


--------------------------------------------------------------------------------------------------------


 soft charge-density along one line, spin component           1
         0         1         2         3         4         5         6         7         8         9
 total charge-density along one line
 
 pseudopotential strength for first ion, spin component:           1
 -2.360  -4.069  -0.002   0.000  -0.001
 -4.069  -6.932  -0.005   0.001  -0.002
 -0.002  -0.005  -0.330  -0.001   0.001
  0.000   0.001  -0.001  -0.334   0.000
 -0.001  -0.002   0.001   0.000  -0.334
 total augmentation occupancy for first ion, spin component:           1
  3.556  -0.644   0.424  -0.074   0.132
 -0.644   0.133  -0.078   0.014  -0.024
  0.424  -0.078   0.052  -0.007   0.014
 -0.074   0.014  -0.007   0.010  -0.003
  0.132  -0.024   0.014  -0.003   0.011


------------------------ aborting loop because EDIFF is reached ----------------------------------------


    CHARGE:  cpu time    5.8631: real time    5.8767
    FORLOC:  cpu time    2.4646: real time    2.4702
    FORNL :  cpu time   18.3292: real time   18.3714
    STRESS:  cpu time   57.4753: real time   57.6103
    FORCOR:  cpu time   20.0959: real time   20.1394
    FORHAR:  cpu time    6.9020: real time    6.9175
    MIXING:  cpu time    0.8939: real time    0.8945
    OFIELD:  cpu time    0.0000: real time    0.0000

  FORCE on cell =-STRESS in cart. coord.  units (eV):
  Direction    XX          YY          ZZ          XY          YZ          ZX
  --------------------------------------------------------------------------------------
  Alpha Z     0.04144     0.04144     0.04144
  Ewald     388.92436   143.41041   174.99909   -61.46679   115.92671   -47.28515
  Hartree   508.08785   331.91237   344.76557   -26.03045    45.81750   -15.07296
  E(xc)     -59.24175   -59.46967   -59.36041    -0.18990     0.40046    -0.17977
  Local   -1054.14119  -643.00243  -685.11180    84.51564  -153.31419    60.15413
  n-local   -17.83030   -24.54510   -25.36805     1.97798    -3.32171     2.61963
  augment     0.52932     0.87362     0.88274    -0.01652     0.03477    -0.05263
  Kinetic   234.24267   249.69604   247.90520     0.03870    -5.60509    -1.43200
  Fock        0.00000     0.00000     0.00000     0.00000     0.00000     0.00000
  -------------------------------------------------------------------------------------
  Total       0.61239    -1.08331    -1.24621    -1.17135    -0.06156    -1.24875
  in kB       0.03634    -0.06428    -0.07395    -0.06951    -0.00365    -0.07410
  external pressure =       -0.03 kB  Pullay stress =        0.00 kB


 VOLUME and BASIS-vectors are now :
 -----------------------------------------------------------------------------
  energy-cutoff  :      400.00
  volume of cell :    27000.00
      direct lattice vectors                 reciprocal lattice vectors
    30.000000000  0.000000000  0.000000000     0.033333333  0.000000000  0.000000000
     0.000000000 30.000000000  0.000000000     0.000000000  0.033333333  0.000000000
     0.000000000  0.000000000 30.000000000     0.000000000  0.000000000  0.033333333

  length of vectors
    30.000000000 30.000000000 30.000000000     0.033333333  0.033333333  0.033333333


 FORCES acting on ions
    electron-ion (+dipol)            ewald-force                    non-local-force                 convergence-correction
 -----------------------------------------------------------------------------------------------
   0.329E+02 0.576E+02 -.993E+01   -.345E+02 -.628E+02 0.110E+02   0.170E+01 0.542E+01 -.928E+00   0.543E-06 0.207E-05 -.163E-05
   0.278E+02 -.168E+02 0.586E+02   -.289E+02 0.183E+02 -.638E+02   0.121E+01 -.147E+01 0.542E+01   0.224E-05 -.187E-05 0.133E-05
   0.410E+02 -.387E+02 -.385E+02   -.440E+02 0.427E+02 0.425E+02   0.248E+01 -.380E+01 -.389E+01   0.670E-06 -.235E-05 -.175E-05
   0.110E+03 0.207E+01 0.102E+02   -.117E+03 -.225E+01 -.109E+02   0.744E+01 0.466E+00 0.102E+01   0.249E-05 0.621E-06 -.462E-05
   -.140E+03 0.124E+03 0.137E+03   0.150E+03 -.138E+03 -.152E+03   -.829E+01 0.135E+02 0.153E+02   0.134E-04 -.190E-04 -.375E-04
   -.701E+02 -.122E+03 -.149E+03   0.748E+02 0.142E+03 0.173E+03   -.539E+01 -.207E+02 -.250E+02   -.173E-04 0.104E-05 -.170E-04
 -----------------------------------------------------------------------------------------------
   0.837E+00 0.660E+01 0.800E+01   0.000E+00 0.284E-13 -.284E-13   -.840E+00 -.661E+01 -.800E+01   0.207E-05 -.195E-04 -.611E-04
 
 
 POSITION                                       TOTAL-FORCE (eV/Angst)
 -----------------------------------------------------------------------------------
     14.26214     14.01466     15.21638         0.062321      0.165142      0.096618
     14.35558     15.33603     13.99552         0.080968      0.056321      0.183667
     14.11027     15.73441     15.73209        -0.538591      0.143899      0.116681
     14.57678     15.05104     15.03390        -0.104704      0.291588      0.326474
     16.54922     14.54392     14.57576         1.205420     -0.139981     -0.103193
     16.08746     15.27780     15.41133        -0.705414     -0.516969     -0.620248
 -----------------------------------------------------------------------------------
    total drift:                               -0.002201     -0.010286      0.001296


--------------------------------------------------------------------------------------------------------



  FREE ENERGIE OF THE ION-ELECTRON SYSTEM (eV)
  ---------------------------------------------------
  free  energy   TOTEN  =       -34.31122286 eV

  energy  without entropy=      -34.31122286  energy(sigma->0) =      -34.31122286
 
 d Force =-0.1113540E-03[-0.111E-03,-0.111E-03]  d Energy =-0.1113373E-03-0.167E-07
 d Force =-0.3230104E-02[-0.323E-02,-0.323E-02]  d Ewald  =-0.3230104E-02-0.180E-10


--------------------------------------------------------------------------------------------------------


    POTLOK:  cpu time   21.5417: real time   21.5904


--------------------------------------------------------------------------------------------------------


 NEB: the previous image is higher in energy: F
 NEB: the next image is higher in energy    : T
 NEB: only next energy greater

 NEB: Tangent
 ----------------------------------------------
     -0.03125     -0.09333     -0.05593
     -0.04352     -0.02862     -0.10354
      0.30378     -0.08248     -0.06371
      0.05835     -0.16238     -0.18351
     -0.66908      0.07289      0.06299
      0.38159      0.29402      0.34374

 NEB: forces: par spring, perp REAL, dneb     0.010920    0.029748    0.000000
 NEB: distance to prev, next image, angle between     0.195191    0.193007  167.207072
 NEB: projections on to tangent (spring, REAL)    -0.010920   -1.800804

 stress matrix after NEB project (eV)
      0.61239     -1.17135     -1.24875
     -1.17135     -1.08331     -0.06156
     -1.24875     -0.06156     -1.24621
  FORCES: max atom, RMS     0.024777    0.012937
  FORCE total and by dimension    0.031689    0.022415
  Stress total and by dimension    2.995343    1.248749
 OPT: skip step - force has converged


--------------------------------------------------------------------------------------------------------


  
 reached required accuracy - stopping structural energy minimisation
     LOOP+:  cpu time  739.1596: real time  740.7943
    4ORBIT:  cpu time    0.0000: real time    0.0000

 total amount of memory used by VASP on root node  3203889. kBytes
========================================================================

   base      :      30000. kBytes
   nonlr-proj:        693. kBytes
   fftplans  :     924480. kBytes
   grid      :    1872000. kBytes
   one-center:         18. kBytes
   wavefun   :     376698. kBytes
 
  
  
 General timing and accounting informations for this job:
 ========================================================
  
                  Total CPU time used (sec):    22538.912
                            User time (sec):    22245.387
                          System time (sec):      293.524
                         Elapsed time (sec):    22605.906
  
                   Maximum memory used (kb):     4760592.
                   Average memory used (kb):           0.
  
                          Minor page faults:      2337728
                          Major page faults:            8
                 Voluntary context switches:         3709
