unknown system                          
           1
    30.000000    0.000000    0.000000
     0.000000   30.000000    0.000000
     0.000000    0.000000   30.000000
   H    C    N 
   3   2   1
Direct configuration=     1
   0.47551350  0.46709406  0.50722068
   0.47868015  0.51119441  0.46646284
   0.47039204  0.52444227  0.52433114
   0.48590611  0.50162706  0.50106546
   0.55122872  0.48489147  0.48576016
   0.53634516  0.50932865  0.51399447
Direct configuration=     2
   0.47550800  0.46709381  0.50721978
   0.47867421  0.51119341  0.46646201
   0.47039316  0.52444286  0.52433156
   0.48590747  0.50162654  0.50106505
   0.55122909  0.48489917  0.48576963
   0.53635339  0.50932250  0.51398668
Direct configuration=     3
   0.47549644  0.46709304  0.50721776
   0.47866168  0.51119128  0.46646001
   0.47039625  0.52444391  0.52433238
   0.48591033  0.50162513  0.50106376
   0.55123090  0.48491114  0.48578472
   0.53636897  0.50931452  0.51397600
Direct configuration=     4
   0.47547857  0.46709158  0.50721437
   0.47864220  0.51118792  0.46645665
   0.47040258  0.52444514  0.52433342
   0.48591465  0.50162228  0.50106097
   0.55123618  0.48492114  0.48579835
   0.53638928  0.50931208  0.51397071
Direct configuration=     5
   0.47545568  0.46708969  0.50720969
   0.47861708  0.51118340  0.46645232
   0.47041277  0.52444610  0.52433438
   0.48591984  0.50161796  0.50105649
   0.55124572  0.48492439  0.48580513
   0.53641099  0.50932000  0.51397628
Direct configuration=     6
   0.47542937  0.46708820  0.50720405
   0.47858794  0.51117796  0.46644806
   0.47042602  0.52444668  0.52433521
   0.48592518  0.50161286  0.50105103
   0.55126050  0.48491990  0.48580418
   0.53643141  0.50933758  0.51399154
Direct configuration=     7
   0.47540113  0.46708839  0.50719785
   0.47855622  0.51117177  0.46644536
   0.47044127  0.52444696  0.52433601
   0.48593006  0.50160813  0.50104578
   0.55128075  0.48491008  0.48579907
   0.53644911  0.50935974  0.51400972
Direct configuration=     8
   0.47540096  0.46708886  0.50719785
   0.47855593  0.51117169  0.46644584
   0.47044131  0.52444701  0.52433611
   0.48593001  0.50160843  0.50104609
   0.55128168  0.48491009  0.48579959
   0.53644860  0.50935905  0.51400830
Direct configuration=     9
   0.47540103  0.46708996  0.50719802
   0.47855580  0.51117166  0.46644703
   0.47044085  0.52444728  0.52433649
   0.48592996  0.50160941  0.50104717
   0.55128449  0.48490961  0.48580025
   0.53644626  0.50935732  0.51400481
Direct configuration=    10
   0.47540184  0.46709174  0.50719857
   0.47855632  0.51117188  0.46644907
   0.47043910  0.52444801  0.52433742
   0.48592988  0.50161152  0.50104949
   0.55129034  0.48490805  0.48580068
   0.53644075  0.50935420  0.51399852
Direct configuration=    11
   0.47540334  0.46709419  0.50719950
   0.47855745  0.51117234  0.46645192
   0.47043613  0.52444916  0.52433887
   0.48592974  0.50161469  0.50105297
   0.55129907  0.48490542  0.48580087
   0.53643228  0.50934981  0.51398957
Direct configuration=    12
   0.47540543  0.46709727  0.50720075
   0.47855905  0.51117303  0.46645553
   0.47043205  0.52445070  0.52434083
   0.48592945  0.50161882  0.50105751
   0.55131053  0.48490176  0.48580091
   0.53642124  0.50934428  0.51397815
Direct configuration=    13
   0.47540799  0.46710094  0.50720226
   0.47856098  0.51117393  0.46645983
   0.47042695  0.52445258  0.52434324
   0.48592890  0.50162381  0.50106293
   0.55132449  0.48489717  0.48580089
   0.53640812  0.50933777  0.51396446
Direct configuration=    14
   0.47541115  0.46710560  0.50720416
   0.47856322  0.51117513  0.46646530
   0.47042028  0.52445498  0.52434641
   0.48592784  0.50163013  0.50106972
   0.55134258  0.48489111  0.48580100
   0.53639194  0.50932968  0.51394698
Direct configuration=    15
   0.47541472  0.46711141  0.50720642
   0.47856543  0.51117667  0.46647204
   0.47041177  0.52445795  0.52435048
   0.48592594  0.50163788  0.50107791
   0.55136568  0.48488344  0.48580151
   0.53637290  0.50931982  0.51392514
Direct configuration=    16
   0.47541831  0.46711840  0.50720894
   0.47856705  0.51117859  0.46648010
   0.47040118  0.52446154  0.52435565
   0.48592291  0.50164713  0.50108736
   0.55139469  0.48487414  0.48580302
   0.53635159  0.50930807  0.51389835
Direct configuration=    17
   0.47542118  0.46712647  0.50721151
   0.47856703  0.51118100  0.46648925
   0.47038858  0.52446576  0.52436216
   0.48591861  0.50165768  0.50109768
   0.55143040  0.48486324  0.48580647
   0.53632903  0.50929463  0.51386625
Direct configuration=    18
   0.47542217  0.46713514  0.50721364
   0.47856380  0.51118403  0.46649886
   0.47037471  0.52447040  0.52437030
   0.48591328  0.50166901  0.50110804
   0.55147336  0.48485054  0.48581295
   0.53630632  0.50928083  0.51382944
Direct configuration=    19
   0.47542045  0.46714387  0.50721513
   0.47855615  0.51118793  0.46650815
   0.47036018  0.52447535  0.52438023
   0.48590692  0.50168076  0.50111788
   0.55152433  0.48483512  0.48582229
   0.53628414  0.50926838  0.51378943
Direct configuration=    20
   0.47541524  0.46715177  0.50721571
   0.47854292  0.51119297  0.46651594
   0.47034628  0.52448011  0.52439175
   0.48589970  0.50169241  0.50112655
   0.55158277  0.48481650  0.48583435
   0.53626348  0.50925938  0.51374870
Direct configuration=    21
   0.47540627  0.46715779  0.50721490
   0.47852356  0.51119933  0.46652077
   0.47033542  0.52448357  0.52440388
   0.48589192  0.50170333  0.50113352
   0.55164462  0.48479647  0.48585099
   0.53624659  0.50925460  0.51370883
Direct configuration=    22
   0.47540612  0.46715765  0.50721479
   0.47852327  0.51119939  0.46652056
   0.47033578  0.52448342  0.52440382
   0.48589195  0.50170321  0.50113332
   0.55164432  0.48479660  0.48585141
   0.53624692  0.50925482  0.51370897
Direct configuration=    23
   0.47540585  0.46715738  0.50721457
   0.47852274  0.51119953  0.46652016
   0.47033649  0.52448310  0.52440371
   0.48589202  0.50170298  0.50113295
   0.55164375  0.48479684  0.48585224
   0.53624750  0.50925526  0.51370925
Direct configuration=    24
   0.47540551  0.46715699  0.50721425
   0.47852202  0.51119975  0.46651960
   0.47033755  0.52448263  0.52440355
   0.48589212  0.50170265  0.50113240
   0.55164298  0.48479712  0.48585344
   0.53624817  0.50925597  0.51370965
Direct configuration=    25
   0.47540515  0.46715651  0.50721381
   0.47852116  0.51120005  0.46651889
   0.47033894  0.52448201  0.52440337
   0.48589224  0.50170225  0.50113171
   0.55164208  0.48479735  0.48585496
   0.53624873  0.50925696  0.51371015
Direct configuration=    26
   0.47540487  0.46715594  0.50721328
   0.47852027  0.51120047  0.46651809
   0.47034061  0.52448126  0.52440321
   0.48589240  0.50170181  0.50113090
   0.55164120  0.48479741  0.48585673
   0.53624893  0.50925827  0.51371069
Direct configuration=    27
   0.47540476  0.46715534  0.50721267
   0.47851946  0.51120101  0.46651726
   0.47034244  0.52448041  0.52440310
   0.48589255  0.50170139  0.50113005
   0.55164051  0.48479720  0.48585869
   0.53624852  0.50925984  0.51371116
Direct configuration=    28
   0.47540476  0.46715534  0.50721267
   0.47851946  0.51120101  0.46651726
   0.47034244  0.52448041  0.52440310
   0.48589255  0.50170139  0.50113005
   0.55164051  0.48479720  0.48585869
   0.53624852  0.50925984  0.51371116
