   6   6   0   0
  0.4500000E+04  0.3000000E-08  0.3000000E-08  0.3000000E-08  0.0000000E+00
  1.000000000000000E-004
  CAR 
 unknown system                          
      2.02397162    -25.90102044  301     -6.16699578      1.00000000
    -25.901  0.0000E+00  0.0000E+00
    -25.808  0.0000E+00  0.0000E+00
    -25.715  0.0000E+00  0.0000E+00
    -25.622  0.0000E+00  0.0000E+00
    -25.529  0.0000E+00  0.0000E+00
    -25.436  0.0000E+00  0.0000E+00
    -25.343  0.0000E+00  0.0000E+00
    -25.249  0.0000E+00  0.0000E+00
    -25.156  0.0000E+00  0.0000E+00
    -25.063  0.7951E-17  0.7401E-18
    -24.970  0.1435E-14  0.1343E-15
    -24.877  0.1822E-12  0.1710E-13
    -24.784  0.1511E-10  0.1424E-11
    -24.691  0.8189E-09  0.7765E-10
    -24.598  0.2901E-07  0.2778E-08
    -24.505  0.6728E-06  0.6540E-07
    -24.412  0.1022E-04  0.1017E-05
    -24.319  0.1019E-03  0.1050E-04
    -24.226  0.6664E-03  0.7253E-04
    -24.132  0.2865E-02  0.3392E-03
    -24.039  0.8101E-02  0.1093E-02
    -23.946  0.1508E-01  0.2497E-02
    -23.853  0.1847E-01  0.4216E-02
    -23.760  0.1490E-01  0.5603E-02
    -23.667  0.7916E-02  0.6340E-02
    -23.574  0.2767E-02  0.6598E-02
    -23.481  0.6361E-03  0.6657E-02
    -23.388  0.9611E-04  0.6666E-02
    -23.295  0.9533E-05  0.6667E-02
    -23.202  0.6201E-06  0.6667E-02
    -23.109  0.2643E-07  0.6667E-02
    -23.015  0.7373E-09  0.6667E-02
    -22.922  0.1345E-10  0.6667E-02
    -22.829  0.1602E-12  0.6667E-02
    -22.736  0.1248E-14  0.6667E-02
    -22.643  0.7951E-17  0.6667E-02
    -22.550  0.0000E+00  0.6667E-02
    -22.457  0.0000E+00  0.6667E-02
    -22.364  0.0000E+00  0.6667E-02
    -22.271  0.0000E+00  0.6667E-02
    -22.178  0.0000E+00  0.6667E-02
    -22.085  0.0000E+00  0.6667E-02
    -21.992  0.0000E+00  0.6667E-02
    -21.898  0.0000E+00  0.6667E-02
    -21.805  0.0000E+00  0.6667E-02
    -21.712  0.0000E+00  0.6667E-02
    -21.619  0.0000E+00  0.6667E-02
    -21.526  0.0000E+00  0.6667E-02
    -21.433  0.0000E+00  0.6667E-02
    -21.340  0.0000E+00  0.6667E-02
    -21.247  0.0000E+00  0.6667E-02
    -21.154  0.0000E+00  0.6667E-02
    -21.061  0.0000E+00  0.6667E-02
    -20.968  0.0000E+00  0.6667E-02
    -20.875  0.0000E+00  0.6667E-02
    -20.781  0.0000E+00  0.6667E-02
    -20.688  0.0000E+00  0.6667E-02
    -20.595  0.0000E+00  0.6667E-02
    -20.502  0.0000E+00  0.6667E-02
    -20.409  0.4373E-16  0.6667E-02
    -20.316  0.7355E-14  0.6667E-02
    -20.223  0.8125E-12  0.6667E-02
    -20.130  0.5860E-10  0.6667E-02
    -20.037  0.2762E-08  0.6667E-02
    -19.944  0.8516E-07  0.6667E-02
    -19.851  0.1719E-05  0.6667E-02
    -19.758  0.2274E-04  0.6669E-02
    -19.664  0.1974E-03  0.6687E-02
    -19.571  0.1126E-02  0.6792E-02
    -19.478  0.4218E-02  0.7185E-02
    -19.385  0.1040E-01  0.8153E-02
    -19.292  0.1687E-01  0.9723E-02
    -19.199  0.1803E-01  0.1140E-01
    -19.106  0.1268E-01  0.1258E-01
    -19.013  0.5874E-02  0.1313E-01
    -18.920  0.1790E-02  0.1330E-01
    -18.827  0.3587E-03  0.1333E-01
    -18.734  0.4721E-04  0.1333E-01
    -18.641  0.4079E-05  0.1333E-01
    -18.547  0.2310E-06  0.1333E-01
    -18.454  0.8570E-08  0.1333E-01
    -18.361  0.2080E-09  0.1333E-01
    -18.268  0.3300E-11  0.1333E-01
    -18.175  0.3420E-13  0.1333E-01
    -18.082  0.2306E-15  0.1333E-01
    -17.989  0.0000E+00  0.1333E-01
    -17.896  0.0000E+00  0.1333E-01
    -17.803  0.0000E+00  0.1333E-01
    -17.710  0.0000E+00  0.1333E-01
    -17.617  0.0000E+00  0.1333E-01
    -17.524  0.0000E+00  0.1333E-01
    -17.430  0.0000E+00  0.1333E-01
    -17.337  0.0000E+00  0.1333E-01
    -17.244  0.0000E+00  0.1333E-01
    -17.151  0.0000E+00  0.1333E-01
    -17.058  0.0000E+00  0.1333E-01
    -16.965  0.0000E+00  0.1333E-01
    -16.872  0.0000E+00  0.1333E-01
    -16.779  0.0000E+00  0.1333E-01
    -16.686  0.0000E+00  0.1333E-01
    -16.593  0.0000E+00  0.1333E-01
    -16.500  0.0000E+00  0.1333E-01
    -16.407  0.0000E+00  0.1333E-01
    -16.313  0.0000E+00  0.1333E-01
    -16.220  0.0000E+00  0.1333E-01
    -16.127  0.0000E+00  0.1333E-01
    -16.034  0.0000E+00  0.1333E-01
    -15.941  0.0000E+00  0.1333E-01
    -15.848  0.0000E+00  0.1333E-01
    -15.755  0.0000E+00  0.1333E-01
    -15.662  0.0000E+00  0.1333E-01
    -15.569  0.0000E+00  0.1333E-01
    -15.476  0.0000E+00  0.1333E-01
    -15.383  0.0000E+00  0.1333E-01
    -15.290  0.0000E+00  0.1333E-01
    -15.196  0.0000E+00  0.1333E-01
    -15.103  0.0000E+00  0.1333E-01
    -15.010  0.1193E-16  0.1333E-01
    -14.917  0.2511E-14  0.1333E-01
    -14.824  0.3040E-12  0.1333E-01
    -14.731  0.2405E-10  0.1333E-01
    -14.638  0.1243E-08  0.1333E-01
    -14.545  0.4201E-07  0.1333E-01
    -14.452  0.9294E-06  0.1333E-01
    -14.359  0.1347E-04  0.1333E-01
    -14.266  0.1281E-03  0.1335E-01
    -14.173  0.8000E-03  0.1342E-01
    -14.079  0.3283E-02  0.1373E-01
    -13.986  0.8861E-02  0.1455E-01
    -13.893  0.1574E-01  0.1602E-01
    -13.800  0.1841E-01  0.1773E-01
    -13.707  0.1418E-01  0.1905E-01
    -13.614  0.7190E-02  0.1972E-01
    -13.521  0.2399E-02  0.1994E-01
    -13.428  0.5265E-03  0.1999E-01
    -13.335  0.7591E-04  0.2000E-01
    -13.242  0.7186E-05  0.2000E-01
    -13.149  0.4460E-06  0.2000E-01
    -13.056  0.1814E-07  0.2000E-01
    -12.962  0.4826E-09  0.2000E-01
    -12.869  0.8401E-11  0.2000E-01
    -12.776  0.6137E-12  0.2000E-01
    -12.683  0.4056E-10  0.2000E-01
    -12.590  0.2082E-08  0.2000E-01
    -12.497  0.7016E-07  0.2000E-01
    -12.404  0.1555E-05  0.2000E-01
    -12.311  0.2270E-04  0.2000E-01
    -12.218  0.2186E-03  0.2002E-01
    -12.125  0.1390E-02  0.2015E-01
    -12.032  0.5843E-02  0.2070E-01
    -11.939  0.1626E-01  0.2221E-01
    -11.845  0.2998E-01  0.2500E-01
    -11.752  0.3664E-01  0.2841E-01
    -11.659  0.2969E-01  0.3118E-01
    -11.566  0.1594E-01  0.3266E-01
    -11.473  0.5673E-02  0.3319E-01
    -11.380  0.1336E-02  0.3331E-01
    -11.287  0.2080E-03  0.3333E-01
    -11.194  0.2139E-04  0.3333E-01
    -11.101  0.1451E-05  0.3333E-01
    -11.008  0.6481E-07  0.3333E-01
    -10.915  0.1904E-08  0.3333E-01
    -10.822  0.3672E-10  0.3333E-01
    -10.728  0.4645E-12  0.3333E-01
    -10.635  0.3849E-14  0.3333E-01
    -10.542  0.1590E-16  0.3333E-01
    -10.449  0.0000E+00  0.3333E-01
    -10.356  0.0000E+00  0.3333E-01
    -10.263  0.0000E+00  0.3333E-01
    -10.170  0.0000E+00  0.3333E-01
    -10.077  0.0000E+00  0.3333E-01
     -9.984  0.0000E+00  0.3333E-01
     -9.891  0.0000E+00  0.3333E-01
     -9.798  0.0000E+00  0.3333E-01
     -9.705  0.0000E+00  0.3333E-01
     -9.611  0.0000E+00  0.3333E-01
     -9.518  0.0000E+00  0.3333E-01
     -9.425  0.3697E-15  0.3333E-01
     -9.332  0.5365E-13  0.3333E-01
     -9.239  0.5127E-11  0.3333E-01
     -9.146  0.3213E-09  0.3333E-01
     -9.053  0.1322E-07  0.3333E-01
     -8.960  0.3577E-06  0.3333E-01
     -8.867  0.6376E-05  0.3333E-01
     -8.774  0.7499E-04  0.3334E-01
     -8.681  0.5829E-03  0.3340E-01
     -8.588  0.2999E-02  0.3367E-01
     -8.494  0.1022E-01  0.3463E-01
     -8.401  0.2313E-01  0.3678E-01
     -8.308  0.3476E-01  0.4002E-01
     -8.215  0.3470E-01  0.4325E-01
     -8.122  0.2301E-01  0.4539E-01
     -8.029  0.1013E-01  0.4633E-01
     -7.936  0.2961E-02  0.4661E-01
     -7.843  0.5735E-03  0.4666E-01
     -7.750  0.7411E-04  0.4667E-01
     -7.657  0.1538E-04  0.4667E-01
     -7.564  0.9329E-04  0.4668E-01
     -7.471  0.6193E-03  0.4673E-01
     -7.377  0.2712E-02  0.4699E-01
     -7.284  0.7810E-02  0.4771E-01
     -7.191  0.1480E-01  0.4909E-01
     -7.098  0.1847E-01  0.5081E-01
     -7.005  0.1517E-01  0.5222E-01
     -6.912  0.8209E-02  0.5299E-01
     -6.819  0.2922E-02  0.5326E-01
     -6.726  0.6843E-03  0.5332E-01
     -6.633  0.1053E-03  0.5333E-01
     -6.540  0.1064E-04  0.5333E-01
     -6.447  0.7049E-06  0.5333E-01
     -6.354  0.3061E-07  0.5333E-01
     -6.260  0.8697E-09  0.5333E-01
     -6.167  0.1616E-10  0.5333E-01
     -6.074  0.1962E-12  0.5333E-01
     -5.981  0.1551E-14  0.5333E-01
     -5.888  0.7951E-17  0.5333E-01
     -5.795  0.0000E+00  0.5333E-01
     -5.702  0.0000E+00  0.5333E-01
     -5.609  0.0000E+00  0.5333E-01
     -5.516  0.0000E+00  0.5333E-01
     -5.423  0.0000E+00  0.5333E-01
     -5.330  0.0000E+00  0.5333E-01
     -5.237  0.0000E+00  0.5333E-01
     -5.143  0.0000E+00  0.5333E-01
     -5.050  0.0000E+00  0.5333E-01
     -4.957  0.0000E+00  0.5333E-01
     -4.864  0.0000E+00  0.5333E-01
     -4.771  0.0000E+00  0.5333E-01
     -4.678  0.0000E+00  0.5333E-01
     -4.585  0.0000E+00  0.5333E-01
     -4.492  0.0000E+00  0.5333E-01
     -4.399  0.0000E+00  0.5333E-01
     -4.306  0.0000E+00  0.5333E-01
     -4.213  0.0000E+00  0.5333E-01
     -4.120  0.0000E+00  0.5333E-01
     -4.026  0.0000E+00  0.5333E-01
     -3.933  0.0000E+00  0.5333E-01
     -3.840  0.0000E+00  0.5333E-01
     -3.747  0.0000E+00  0.5333E-01
     -3.654  0.0000E+00  0.5333E-01
     -3.561  0.0000E+00  0.5333E-01
     -3.468  0.0000E+00  0.5333E-01
     -3.375  0.0000E+00  0.5333E-01
     -3.282  0.0000E+00  0.5333E-01
     -3.189  0.0000E+00  0.5333E-01
     -3.096  0.0000E+00  0.5333E-01
     -3.003  0.0000E+00  0.5333E-01
     -2.909  0.0000E+00  0.5333E-01
     -2.816  0.0000E+00  0.5333E-01
     -2.723  0.0000E+00  0.5333E-01
     -2.630  0.0000E+00  0.5333E-01
     -2.537  0.0000E+00  0.5333E-01
     -2.444  0.0000E+00  0.5333E-01
     -2.351  0.0000E+00  0.5333E-01
     -2.258  0.0000E+00  0.5333E-01
     -2.165  0.0000E+00  0.5333E-01
     -2.072  0.0000E+00  0.5333E-01
     -1.979  0.2505E-15  0.5333E-01
     -1.886  0.3657E-13  0.5333E-01
     -1.792  0.3508E-11  0.5333E-01
     -1.699  0.2198E-09  0.5333E-01
     -1.606  0.9003E-08  0.5333E-01
     -1.513  0.2413E-06  0.5333E-01
     -1.420  0.4238E-05  0.5333E-01
     -1.327  0.4886E-04  0.5334E-01
     -1.234  0.3708E-03  0.5337E-01
     -1.141  0.1862E-02  0.5355E-01
     -1.048  0.6270E-02  0.5413E-01
     -0.955  0.1457E-01  0.5549E-01
     -0.862  0.2484E-01  0.5780E-01
     -0.769  0.3418E-01  0.6098E-01
     -0.675  0.4044E-01  0.6474E-01
     -0.582  0.3967E-01  0.6844E-01
     -0.489  0.2956E-01  0.7119E-01
     -0.396  0.1576E-01  0.7266E-01
     -0.303  0.6358E-02  0.7325E-01
     -0.210  0.4198E-02  0.7364E-01
     -0.117  0.8184E-02  0.7440E-01
     -0.024  0.1496E-01  0.7579E-01
      0.069  0.1847E-01  0.7751E-01
      0.162  0.1505E-01  0.7891E-01
      0.255  0.8068E-02  0.7966E-01
      0.348  0.2847E-02  0.7993E-01
      0.442  0.6609E-03  0.7999E-01
      0.535  0.1008E-03  0.8000E-01
      0.628  0.1009E-04  0.8000E-01
      0.721  0.6630E-06  0.8000E-01
      0.814  0.2853E-07  0.8000E-01
      0.907  0.8037E-09  0.8000E-01
      1.000  0.1480E-10  0.8000E-01
      1.093  0.1781E-12  0.8000E-01
      1.186  0.1399E-14  0.8000E-01
      1.279  0.7951E-17  0.8000E-01
      1.372  0.0000E+00  0.8000E-01
      1.465  0.0000E+00  0.8000E-01
      1.559  0.0000E+00  0.8000E-01
      1.652  0.0000E+00  0.8000E-01
      1.745  0.0000E+00  0.8000E-01
      1.838  0.0000E+00  0.8000E-01
      1.931  0.0000E+00  0.8000E-01
      2.024  0.0000E+00  0.8000E-01
