    6    6  300    1
  0.4500000E+04  0.3000000E-08  0.3000000E-08  0.3000000E-08  0.0000000E+00
  1.000000000000000E-004
  CAR 
 unknown system                          
     16      4     12
 
  0.2500000E+00  0.2500000E+00  0.2500000E+00  0.2500000E+00
    1      -23.901020   1.000000
    2      -19.277359   1.000000
    3      -13.858363   1.000000
    4      -11.818354   1.000000
    5      -11.781666   1.000000
    6       -8.329759   1.000000
    7       -8.287613   1.000000
    8       -7.141957   1.000000
    9       -0.877662   0.000000
   10       -0.675773   0.000000
   11       -0.595983   0.000000
   12        0.023004   0.000000
 
 -0.2500000E+00  0.2500000E+00  0.2500000E+00  0.2500000E+00
    1      -23.901020   1.000000
    2      -19.277360   1.000000
    3      -13.858363   1.000000
    4      -11.818360   1.000000
    5      -11.781670   1.000000
    6       -8.329743   1.000000
    7       -8.287611   1.000000
    8       -7.141964   1.000000
    9       -0.877665   0.000000
   10       -0.675770   0.000000
   11       -0.595983   0.000000
   12        0.023972   0.000000
 
  0.2500000E+00 -0.2500000E+00  0.2500000E+00  0.2500000E+00
    1      -23.901020   1.000000
    2      -19.277358   1.000000
    3      -13.858361   1.000000
    4      -11.818367   1.000000
    5      -11.781669   1.000000
    6       -8.329750   1.000000
    7       -8.287623   1.000000
    8       -7.141958   1.000000
    9       -0.877659   0.000000
   10       -0.675770   0.000000
   11       -0.595978   0.000000
   12        0.023472   0.000000
 
 -0.2500000E+00 -0.2500000E+00  0.2500000E+00  0.2500000E+00
    1      -23.901020   1.000000
    2      -19.277359   1.000000
    3      -13.858361   1.000000
    4      -11.818366   1.000000
    5      -11.781669   1.000000
    6       -8.329750   1.000000
    7       -8.287630   1.000000
    8       -7.141958   1.000000
    9       -0.877659   0.000000
   10       -0.675769   0.000000
   11       -0.595978   0.000000
   12        0.023578   0.000000
