 vasp.5.4.1 24Jun15 (build Jan 13 2020 12:58:22) complex                        
  
 executed on           IFC91_ompi date 2020.02.03  02:42:24
 running on   15 total cores
 each image running on    1 cores
 distrk:  each k-point on    1 cores,    1 groups
 distr:  one band on NCORES_PER_BAND=   1 cores,    1 groups


--------------------------------------------------------------------------------------------------------


 INCAR:
 POTCAR:    PAW_PBE H 15Jun2001                   
 POTCAR:    PAW_PBE C 08Apr2002                   
 POTCAR:    PAW_PBE N 08Apr2002                   
 POTCAR:    PAW_PBE H 15Jun2001                   
   VRHFIN =H: ultrasoft test                                                    
   LEXCH  = PE                                                                  
   EATOM  =    12.4884 eV,    0.9179 Ry                                         
                                                                                
   TITEL  = PAW_PBE H 15Jun2001                                                 
   LULTRA =        F    use ultrasoft PP ?                                      
   IUNSCR =        0    unscreen: 0-lin 1-nonlin 2-no                           
   RPACOR =    0.000    partial core radius                                     
   POMASS =    1.000; ZVAL   =    1.000    mass and valenz                      
   RCORE  =    1.100    outmost cutoff radius                                   
   RWIGS  =    0.700; RWIGS  =    0.370    wigner-seitz radius (au A)           
   ENMAX  =  250.000; ENMIN  =  200.000 eV                                      
   RCLOC  =    0.701    cutoff for local pot                                    
   LCOR   =        T    correct aug charges                                     
   LPAW   =        T    paw PP                                                  
   EAUG   =  400.000                                                            
   RMAX   =    1.123    core radius for proj-oper                               
   RAUG   =    1.200    factor for augmentation sphere                          
   RDEP   =    1.112    radius for radial grids                                 
   RDEPT  =    0.926    core radius for aug-charge                              
                                                                                
   Atomic configuration                                                         
    2 entries                                                                   
     n  l   j            E        occ.                                          
     1  0  0.50        -6.4927   1.0000                                         
     2  1  0.50        -3.4015   0.0000                                         
   Description                                                                  
     l       E           TYP  RCUT    TYP  RCUT                                 
     0     -6.4927494     23  1.100                                             
     0      6.8029130     23  1.100                                             
     1     -4.0817478     23  1.100                                             
  local pseudopotential read in
  atomic valenz-charges read in
  non local Contribution for L=           0  read in
    real space projection operators read in
  non local Contribution for L=           0  read in
    real space projection operators read in
  non local Contribution for L=           1  read in
    real space projection operators read in
    PAW grid and wavefunctions read in
 
   number of l-projection  operators is LMAX  =           3
   number of lm-projection operators is LMMAX =           5
 
 POTCAR:    PAW_PBE C 08Apr2002                   
   VRHFIN =C: s2p2                                                              
   LEXCH  = PE                                                                  
   EATOM  =   147.1560 eV,   10.8157 Ry                                         
                                                                                
   TITEL  = PAW_PBE C 08Apr2002                                                 
   LULTRA =        F    use ultrasoft PP ?                                      
   IUNSCR =        1    unscreen: 0-lin 1-nonlin 2-no                           
   RPACOR =    1.200    partial core radius                                     
   POMASS =   12.011; ZVAL   =    4.000    mass and valenz                      
   RCORE  =    1.500    outmost cutoff radius                                   
   RWIGS  =    1.630; RWIGS  =    0.863    wigner-seitz radius (au A)           
   ENMAX  =  400.000; ENMIN  =  300.000 eV                                      
   ICORE  =        2    local potential                                         
   LCOR   =        T    correct aug charges                                     
   LPAW   =        T    paw PP                                                  
   EAUG   =  644.873                                                            
   DEXC   =    0.000                                                            
   RMAX   =    1.529    core radius for proj-oper                               
   RAUG   =    1.300    factor for augmentation sphere                          
   RDEP   =    1.501    radius for radial grids                                 
   RDEPT  =    1.300    core radius for aug-charge                              
                                                                                
   Atomic configuration                                                         
    4 entries                                                                   
     n  l   j            E        occ.                                          
     1  0  0.50      -273.3789   2.0000                                         
     2  0  0.50       -13.7508   2.0000                                         
     2  1  0.50        -5.2854   2.0000                                         
     3  2  1.50        -5.4423   0.0000                                         
   Description                                                                  
     l       E           TYP  RCUT    TYP  RCUT                                 
     0    -13.7508458     23  1.200                                             
     0     -8.2022199     23  1.200                                             
     1     -5.2854383     23  1.500                                             
     1     34.0145650     23  1.500                                             
     2     -5.4423304      7  1.500                                             
  local pseudopotential read in
  partial core-charges read in
  partial kinetic energy density read in
  atomic valenz-charges read in
  non local Contribution for L=           0  read in
    real space projection operators read in
  non local Contribution for L=           0  read in
    real space projection operators read in
  non local Contribution for L=           1  read in
    real space projection operators read in
  non local Contribution for L=           1  read in
    real space projection operators read in
    PAW grid and wavefunctions read in
 
   number of l-projection  operators is LMAX  =           4
   number of lm-projection operators is LMMAX =           8
 
 POTCAR:    PAW_PBE N 08Apr2002                   
   VRHFIN =N: s2p3                                                              
   LEXCH  = PE                                                                  
   EATOM  =   264.5486 eV,   19.4438 Ry                                         
                                                                                
   TITEL  = PAW_PBE N 08Apr2002                                                 
   LULTRA =        F    use ultrasoft PP ?                                      
   IUNSCR =        1    unscreen: 0-lin 1-nonlin 2-no                           
   RPACOR =    1.200    partial core radius                                     
   POMASS =   14.001; ZVAL   =    5.000    mass and valenz                      
   RCORE  =    1.500    outmost cutoff radius                                   
   RWIGS  =    1.400; RWIGS  =    0.741    wigner-seitz radius (au A)           
   ENMAX  =  400.000; ENMIN  =  300.000 eV                                      
   ICORE  =        2    local potential                                         
   LCOR   =        T    correct aug charges                                     
   LPAW   =        T    paw PP                                                  
   EAUG   =  627.112                                                            
   DEXC   =    0.000                                                            
   RMAX   =    1.529    core radius for proj-oper                               
   RAUG   =    1.300    factor for augmentation sphere                          
   RDEP   =    1.514    radius for radial grids                                 
   RDEPT  =    1.338    core radius for aug-charge                              
                                                                                
   Atomic configuration                                                         
    4 entries                                                                   
     n  l   j            E        occ.                                          
     1  0  0.50      -384.7179   2.0000                                         
     2  0  0.50       -18.5828   2.0000                                         
     2  1  0.50        -7.0898   3.0000                                         
     3  2  1.50        -6.8029   0.0000                                         
   Description                                                                  
     l       E           TYP  RCUT    TYP  RCUT                                 
     0    -18.5828119     23  1.200                                             
     0    -13.5018863     23  1.200                                             
     1     -7.0897853     23  1.500                                             
     1      9.5240782     23  1.500                                             
     2     -6.8029130      7  1.500                                             
  local pseudopotential read in
  partial core-charges read in
  partial kinetic energy density read in
  atomic valenz-charges read in
  non local Contribution for L=           0  read in
    real space projection operators read in
  non local Contribution for L=           0  read in
    real space projection operators read in
  non local Contribution for L=           1  read in
    real space projection operators read in
  non local Contribution for L=           1  read in
    real space projection operators read in
    PAW grid and wavefunctions read in
 
   number of l-projection  operators is LMAX  =           4
   number of lm-projection operators is LMMAX =           8
 

 ----------------------------------------------------------------------------- 
|                                                                             |
|  ADVICE TO THIS USER RUNNING 'VASP/VAMP'   (HEAR YOUR MASTER'S VOICE ...):  |
|                                                                             |
|      You have a (more or less) 'small supercell' and for smaller cells      |
|      it is recommended  to use the reciprocal-space projection scheme!      |
|      The real space optimization is not  efficient for small cells and it   |
|      is also less accurate ...                                              |
|      Therefore set LREAL=.FALSE. in the  INCAR file                         |
|                                                                             |
 ----------------------------------------------------------------------------- 

 Optimization of the real space projectors (new method)

 maximal supplied QI-value         = 34.20
 optimisation between [QCUT,QGAM] = [  9.92, 20.18] = [ 27.55,114.04] Ry 
 Optimized for a Real-space Cutoff    1.26 Angstroem

   l    n(q)    QCUT    max X(q) W(low)/X(q) W(high)/X(q)  e(spline) 
   0      8     9.919    19.460    0.50E-03    0.23E-03    0.29E-06
   0      8     9.919    12.209    0.48E-03    0.23E-03    0.28E-06
   1      7     9.919     4.655    0.17E-03    0.75E-03    0.30E-06
 Optimization of the real space projectors (new method)

 maximal supplied QI-value         = 25.13
 optimisation between [QCUT,QGAM] = [ 10.05, 20.36] = [ 28.30,116.06] Ry 
 Optimized for a Real-space Cutoff    1.30 Angstroem

   l    n(q)    QCUT    max X(q) W(low)/X(q) W(high)/X(q)  e(spline) 
   0      8    10.053   115.676    0.49E-03    0.72E-03    0.18E-06
   0      8    10.053    87.132    0.49E-03    0.71E-03    0.18E-06
   1      7    10.053     4.429    0.32E-03    0.31E-03    0.18E-06
   1      7    10.053     2.733    0.23E-03    0.19E-03    0.20E-06
 Optimization of the real space projectors (new method)

 maximal supplied QI-value         = 25.13
 optimisation between [QCUT,QGAM] = [ 10.05, 20.36] = [ 28.30,116.06] Ry 
 Optimized for a Real-space Cutoff    1.65 Angstroem

   l    n(q)    QCUT    max X(q) W(low)/X(q) W(high)/X(q)  e(spline) 
   0     10    10.053    79.467    0.76E-04    0.72E-04    0.56E-06
   0     10    10.053    66.151    0.76E-04    0.72E-04    0.55E-06
   1     10    10.053     8.350    0.25E-03    0.92E-03    0.41E-05
   1     10    10.053     5.531    0.27E-03    0.10E-02    0.45E-05
  PAW_PBE H 15Jun2001                   :
 energy of atom  1       EATOM=  -12.4884
 kinetic energy error for atom=    0.0098 (will be added to EATOM!!)
  PAW_PBE C 08Apr2002                   :
 energy of atom  2       EATOM= -147.1560
 kinetic energy error for atom=    0.0288 (will be added to EATOM!!)
  PAW_PBE N 08Apr2002                   :
 energy of atom  3       EATOM= -264.5486
 kinetic energy error for atom=    0.0736 (will be added to EATOM!!)
 
 
 POSCAR: H3 C2 N1                                
  positions in direct lattice
  velocities in cartesian coordinates
 exchange correlation table for  LEXCH =        8
   RHO(1)=    0.500       N(1)  =     2000
   RHO(2)=  100.500       N(2)  =     4000

 VTST: version 3.2, (02/03/18)

 CHAIN: initializing optimizer
 
 OPT: Using FIRE optimizer
 OPT: FIRE, Init
 OPT: FIRE, MAXMOVE       0.20000
 OPT: FIRE, TIMESTEP      0.10000
 OPT: FIRE, FTIMEMAX      1.00000
 OPT: FIRE, FTIMEINC      1.10000
 OPT: FIRE, FTIMEDEC      0.50000
 OPT: FIRE, FALPHADEC     0.99000
 OPT: FIRE, FALPHA        0.10000
 OPT: FIRE, FNMIN         5
 
 CHAIN: Read ICHAIN            0
 CHAIN: Running the NEB
 NEB:          SPRING     -5.000000
 NEB:          LCLIMB      T
 NEB:     LTANGENTOLD      F
 NEB:           LDNEB      F
 NEB:        LDNEBORG      F
 NEB:        LNEBCELL      F
 NEB:          EFIRST      0.000000
 NEB:           ELAST      0.000000
 
 POSCAR: H3 C2 N1                                
  positions in direct lattice
  No initial velocities read in
 
 POSCAR: H3 C2 N1                                
  positions in direct lattice
  No initial velocities read in
 


--------------------------------------------------------------------------------------------------------


 ion  position               nearest neighbor table
   1  0.470  0.469  0.509-   4 1.10
   2  0.472  0.511  0.468-   4 1.10
   3  0.472  0.526  0.525-   4 1.10
   4  0.484  0.502  0.501-   2 1.10   1 1.10   3 1.10   6 1.42
   5  0.569  0.492  0.495-   6 1.18
   6  0.531  0.499  0.501-   5 1.18   4 1.42
 
  LATTYP: Found a simple cubic cell.
 ALAT       =    30.0000000000
  
  Lattice vectors:
  
 A1 = (  30.0000000000,   0.0000000000,   0.0000000000)
 A2 = (   0.0000000000,  30.0000000000,   0.0000000000)
 A3 = (   0.0000000000,   0.0000000000,  30.0000000000)


Analysis of symmetry for initial positions (statically):
=====================================================================
 Subroutine PRICEL returns:
 Original cell was already a primitive cell.
 

 Routine SETGRP: Setting up the symmetry group for a 
 simple cubic supercell.


 Subroutine GETGRP returns: Found  1 space group operations
 (whereof  1 operations were pure point group operations)
 out of a pool of 48 trial point group operations.


The static configuration has the point symmetry C_1 .


Analysis of symmetry for dynamics (positions and initial velocities):
=====================================================================
 Subroutine PRICEL returns:
 Original cell was already a primitive cell.
 

 Routine SETGRP: Setting up the symmetry group for a 
 simple cubic supercell.


 Subroutine GETGRP returns: Found  1 space group operations
 (whereof  1 operations were pure point group operations)
 out of a pool of 48 trial point group operations.


The dynamic configuration has the point symmetry C_1 .
 
 
 KPOINTS: Mo2C                                    

Automatic generation of k-mesh.
Space group operators:
 irot       det(A)        alpha          n_x          n_y          n_z        tau_x        tau_y        tau_z
    1     1.000000     0.000000     1.000000     0.000000     0.000000     0.000000     0.000000     0.000000
 
 Subroutine IBZKPT returns following result:
 ===========================================
 
 Found      4 irreducible k-points:
 
 Following reciprocal coordinates:
            Coordinates               Weight
  0.250000  0.250000  0.250000      2.000000
 -0.250000  0.250000  0.250000      2.000000
  0.250000 -0.250000  0.250000      2.000000
 -0.250000 -0.250000  0.250000      2.000000
 
 Following cartesian coordinates:
            Coordinates               Weight
  0.008333  0.008333  0.008333      2.000000
 -0.008333  0.008333  0.008333      2.000000
  0.008333 -0.008333  0.008333      2.000000
 -0.008333 -0.008333  0.008333      2.000000
 


--------------------------------------------------------------------------------------------------------




 Dimension of arrays:
   k-points           NKPTS =      4   k-points in BZ     NKDIM =      4   number of bands    NBANDS=     12
   number of dos      NEDOS =    301   number of ions     NIONS =      6
   non local maximal  LDIM  =      4   non local SUM 2l+1 LMDIM =      8
   total plane-waves  NPLWV = ******
   max r-space proj   IRMAX =   2395   max aug-charges    IRDMAX=   1738
   dimension x,y,z NGX =   150 NGY =  150 NGZ =  150
   dimension x,y,z NGXF=   300 NGYF=  300 NGZF=  300
   support grid    NGXF=   300 NGYF=  300 NGZF=  300
   ions per type =               3   2   1
 NGX,Y,Z   is equivalent  to a cutoff of   8.31,  8.31,  8.31 a.u.
 NGXF,Y,Z  is equivalent  to a cutoff of  16.62, 16.62, 16.62 a.u.


 I would recommend the setting:
   dimension x,y,z NGX =   147 NGY =  147 NGZ =  147
 SYSTEM =  unknown system                          
 POSCAR =  H3 C2 N1                                

 Startparameter for this run:
   NWRITE =      2    write-flag & timer
   PREC   = normal    normal or accurate (medium, high low for compatibility)
   ISTART =      0    job   : 0-new  1-cont  2-samecut
   ICHARG =      2    charge: 1-file 2-atom 10-const
   ISPIN  =      1    spin polarized calculation?
   LNONCOLLINEAR =      F non collinear calculations
   LSORBIT =      F    spin-orbit coupling
   INIWAV =      1    electr: 0-lowe 1-rand  2-diag
   LASPH  =      F    aspherical Exc in radial PAW
   METAGGA=      F    non-selfconsistent MetaGGA calc.

 Electronic Relaxation 1
   ENCUT  =  400.0 eV  29.40 Ry    5.42 a.u.  48.92 48.92 48.92*2*pi/ulx,y,z
   ENINI  =  400.0     initial cutoff
   ENAUG  =  644.9 eV  augmentation charge cutoff
   NELM   =    500;   NELMIN=  6; NELMDL= -5     # of ELM steps 
   EDIFF  = 0.1E-03   stopping-criterion for ELM
   LREAL  =      T    real-space projection
   NLSPLINE    = F    spline interpolate recip. space projectors
   LCOMPAT=      F    compatible to vasp.4.4
   GGA_COMPAT  = T    GGA compatible to vasp.4.4-vasp.4.6
   LMAXPAW     = -100 max onsite density
   LMAXMIX     =    2 max onsite mixed and CHGCAR
   VOSKOWN=      0    Vosko Wilk Nusair interpolation
   ROPT   =   -0.00050  -0.00050  -0.00050
 Ionic relaxation
   EDIFFG = -.1E+00   stopping-criterion for IOM
   NSW    =    300    number of steps for IOM
   NBLOCK =      1;   KBLOCK =    300    inner block; outer block 
   IBRION =      3    ionic relax: 0-MD 1-quasi-New 2-CG
   NFREE  =      0    steps in history (QN), initial steepest desc. (CG)
   ISIF   =      2    stress and relaxation
   IWAVPR =     11    prediction:  0-non 1-charg 2-wave 3-comb
   ISYM   =      2    0-nonsym 1-usesym 2-fastsym
   LCORR  =      T    Harris-Foulkes like correction to forces

   POTIM  = 0.0000    time-step for ionic-motion
   TEIN   =    0.0    initial temperature
   TEBEG  =    0.0;   TEEND  =   0.0 temperature during run
   SMASS  =   2.00    Nose mass-parameter (am)
   estimated Nose-frequenzy (Omega)   =  0.12E+10 period in steps =  0.00 mass=   0.137E-25a.u.
   SCALEE = 1.0000    scale energy and forces
   NPACO  =    256;   APACO  = 16.0  distance and # of slots for P.C.
   PSTRESS=    0.0 pullay stress

  Mass of Ions in am
   POMASS =   1.00 12.01 14.00
  Ionic Valenz
   ZVAL   =   1.00  4.00  5.00
  Atomic Wigner-Seitz radii
   RWIGS  =  -1.00 -1.00 -1.00
  virtual crystal weights 
   VCA    =   1.00  1.00  1.00
   NELECT =      16.0000    total number of electrons
   NUPDOWN=      -1.0000    fix difference up-down

 DOS related values:
   EMIN   =  10.00;   EMAX   =-10.00  energy-range for DOS
   EFERMI =   0.00
   ISMEAR =     0;   SIGMA  =   0.20  broadening in eV -4-tet -1-fermi 0-gaus

 Electronic relaxation 2 (details)
   IALGO  =     38    algorithm
   LDIAG  =      T    sub-space diagonalisation (order eigenvalues)
   LSUBROT=      F    optimize rotation matrix (better conditioning)
   TURBO    =      0    0=normal 1=particle mesh
   IRESTART =      0    0=no restart 2=restart with 2 vectors
   NREBOOT  =      0    no. of reboots
   NMIN     =      0    reboot dimension
   EREF     =   0.00    reference energy to select bands
   IMIX   =      4    mixing-type and parameters
     AMIX     =   0.40;   BMIX     =  1.00
     AMIX_MAG =   1.60;   BMIX_MAG =  1.00
     AMIN     =   0.10
     WC   =   100.;   INIMIX=   1;  MIXPRE=   1;  MAXMIX= -45

 Intra band minimization:
   WEIMIN = 0.0010     energy-eigenvalue tresh-hold
   EBREAK =  0.21E-05  absolut break condition
   DEPER  =   0.30     relativ break condition  

   TIME   =   0.40     timestep for ELM

  volume/ion in A,a.u.               =    4500.00     30367.50
  Fermi-wavevector in a.u.,A,eV,Ry     =   0.137508  0.259852  0.257264  0.018908
  Thomas-Fermi vector in A             =   0.790710
 
 Write flags
   LWAVE  =      F    write WAVECAR
   LCHARG =      F    write CHGCAR
   LVTOT  =      F    write LOCPOT, total local potential
   LVHAR  =      F    write LOCPOT, Hartree potential only
   LELF   =      F    write electronic localiz. function (ELF)
   LORBIT =      0    0 simple, 1 ext, 2 COOP (PROOUT)


 Dipole corrections
   LMONO  =      F    monopole corrections only (constant potential shift)
   LDIPOL =      F    correct potential (dipole corrections)
   IDIPOL =      0    1-x, 2-y, 3-z, 4-all directions 
   EPSILON=  1.0000000 bulk dielectric constant

 Exchange correlation treatment:
   GGA     =    PE    GGA type
   LEXCH   =     8    internal setting for exchange type
   VOSKOWN=      0    Vosko Wilk Nusair interpolation
   LHFCALC =     F    Hartree Fock is set to
   LHFONE  =     F    Hartree Fock one center treatment
   AEXX    =    0.0000 exact exchange contribution

 Linear response parameters
   LEPSILON=     F    determine dielectric tensor
   LRPA    =     F    only Hartree local field effects (RPA)
   LNABLA  =     F    use nabla operator in PAW spheres
   LVEL    =     F    velocity operator in full k-point grid
   LINTERFAST=   F  fast interpolation
   KINTER  =     0    interpolate to denser k-point grid
   CSHIFT  =0.1000    complex shift for real part using Kramers Kronig
   OMEGAMAX=  -1.0    maximum frequency
   DEG_THRESHOLD= 0.2000000E-02 threshold for treating states as degnerate
   RTIME   =    0.100 relaxation time in fs

 Orbital magnetization related:
   ORBITALMAG=     F  switch on orbital magnetization
   LCHIMAG   =     F  perturbation theory with respect to B field
   DQ        =  0.001000  dq finite difference perturbation B field



--------------------------------------------------------------------------------------------------------


 quickmin algorithm: (dynamic with friction)
 charge density and potential will be updated during run
 non-spin polarized calculation
 Variant of blocked Davidson
 Davidson routine will perform the subspace rotation
 perform sub-space diagonalisation
    after iterative eigenvector-optimisation
 modified Broyden-mixing scheme, WC =      100.0
 initial mixing is a Kerker type mixing with AMIX =  0.4000 and BMIX =      1.0000
 Hartree-type preconditioning will be used
 using additional bands            4
 real space projection scheme for non local part
 use partial core corrections
 calculate Harris-corrections to forces 
   (improved forces if not selfconsistent)
 use gradient corrections 
 use of overlap-Matrix (Vanderbilt PP)
 Gauss-broadening in eV      SIGMA  =   0.20


--------------------------------------------------------------------------------------------------------


  energy-cutoff  :      400.00
  volume of cell :    27000.00
      direct lattice vectors                 reciprocal lattice vectors
    30.000000000  0.000000000  0.000000000     0.033333333  0.000000000  0.000000000
     0.000000000 30.000000000  0.000000000     0.000000000  0.033333333  0.000000000
     0.000000000  0.000000000 30.000000000     0.000000000  0.000000000  0.033333333

  length of vectors
    30.000000000 30.000000000 30.000000000     0.033333333  0.033333333  0.033333333


 
 k-points in units of 2pi/SCALE and weight: Mo2C                                    
   0.00833333  0.00833333  0.00833333       0.250
  -0.00833333  0.00833333  0.00833333       0.250
   0.00833333 -0.00833333  0.00833333       0.250
  -0.00833333 -0.00833333  0.00833333       0.250
 
 k-points in reciprocal lattice and weights: Mo2C                                    
   0.25000000  0.25000000  0.25000000       0.250
  -0.25000000  0.25000000  0.25000000       0.250
   0.25000000 -0.25000000  0.25000000       0.250
  -0.25000000 -0.25000000  0.25000000       0.250
 
 position of ions in fractional coordinates (direct lattice) 
   0.46983036  0.46886055  0.50941537
   0.47230602  0.51136146  0.46756803
   0.47150065  0.52632118  0.52531720
   0.48361268  0.50170972  0.50101075
   0.56910180  0.49203276  0.49499918
   0.53073671  0.49882683  0.50061841
 
 position of ions in cartesian coordinates  (Angst):
  14.09491085 14.06581639 15.28246104
  14.16918051 15.34084376 14.02704094
  14.14501940 15.78963540 15.75951602
  14.50838054 15.05129153 15.03032247
  17.07305412 14.76098267 14.84997552
  15.92210127 14.96480488 15.01855242
 


--------------------------------------------------------------------------------------------------------


 k-point  1 :   0.2500 0.2500 0.2500  plane waves:  490454
 k-point  2 :  -0.2500 0.2500 0.2500  plane waves:  490454
 k-point  3 :   0.2500-0.2500 0.2500  plane waves:  490454
 k-point  4 :  -0.2500-0.2500 0.2500  plane waves:  490454

 maximum and minimum number of plane-waves per node :    490454   490454

 maximum number of plane-waves:    490454
 maximum index in each direction: 
   IXMAX=   49   IYMAX=   49   IZMAX=   48
   IXMIN=  -49   IYMIN=  -49   IZMIN=  -49

 WARNING: aliasing errors must be expected set NGX to 198 to avoid them
 WARNING: aliasing errors must be expected set NGY to 198 to avoid them
 WARNING: aliasing errors must be expected set NGZ to 196 to avoid them
 aliasing errors are usually negligible using standard VASP settings
 and one can safely disregard these warnings

 serial   3D FFT for wavefunctions
 parallel 3D FFT for charge:
    minimum data exchange during FFTs selected (reduces bandwidth)


 total amount of memory used by VASP on root node  3203887. kBytes
========================================================================

   base      :      30000. kBytes
   nonlr-proj:        691. kBytes
   fftplans  :     924480. kBytes
   grid      :    1872000. kBytes
   one-center:         18. kBytes
   wavefun   :     376698. kBytes
 
     INWAV:  cpu time    0.0000: real time    0.0005
 Broyden mixing: mesh for mixing (old mesh)
   NGX = 97   NGY = 97   NGZ = 97
  (NGX  =300   NGY  =300   NGZ  =300)
  gives a total of 912673 points

 initial charge density was supplied:
 charge density of overlapping atoms calculated
 number of electron      16.0000000 magnetization 
 keeping initial charge density in first step


--------------------------------------------------------------------------------------------------------


 Maximum index for non-local projection operator         2266
 Maximum index for augmentation-charges         1495 (set IRDMAX)


--------------------------------------------------------------------------------------------------------


 First call to EWALD:  gamma=   0.059
 Maximum number of real-space cells 3x 3x 3
 Maximum number of reciprocal cells 3x 3x 3

 FEWALD executed in parallel
    FEWALD:  cpu time    0.0020: real time    0.0022


----------------------------------------- Iteration    1(   1)  ---------------------------------------


    POTLOK:  cpu time   27.5168: real time   27.5766
    SETDIJ:  cpu time    0.0070: real time    0.0067
     EDDAV:  cpu time  118.1430: real time  118.4015
       DOS:  cpu time    0.0000: real time    0.0003
    --------------------------------------------
      LOOP:  cpu time  145.6719: real time  145.9910

 eigenvalue-minimisations  :   160
 total energy-change (2. order) : 0.1139495E+03  (-0.2136810E+03)
 number of electron      16.0000000 magnetization 
 augmentation part       16.0000000 magnetization 

 Free energy of the ion-electron system (eV)
  ---------------------------------------------------
  alpha Z        PSCENC =         0.04144063
  Ewald energy   TEWEN  =       703.56696807
  -Hartree energ DENC   =     -1117.84867815
  -exchange      EXHF   =         0.00000000
  -V(xc)+E(xc)   XCENC  =        51.42374504
  PAW double counting   =       428.37890668     -430.73533574
  entropy T*S    EENTRO =        -0.18600753
  eigenvalues    EBANDS =      -116.85692107
  atomic energy  EATOM  =       596.16534815
  Solvation  Ediel_sol  =         0.00000000
  ---------------------------------------------------
  free energy    TOTEN  =       113.94946607 eV

  energy without entropy =      114.13547360  energy(sigma->0) =      114.04246983


--------------------------------------------------------------------------------------------------------




----------------------------------------- Iteration    1(   2)  ---------------------------------------


     EDDAV:  cpu time  142.7443: real time  143.0579
       DOS:  cpu time    0.0000: real time    0.0001
    --------------------------------------------
      LOOP:  cpu time  142.7463: real time  143.0616

 eigenvalue-minimisations  :   192
 total energy-change (2. order) :-0.1164836E+03  (-0.1143554E+03)
 number of electron      16.0000000 magnetization 
 augmentation part       16.0000000 magnetization 

 Free energy of the ion-electron system (eV)
  ---------------------------------------------------
  alpha Z        PSCENC =         0.04144063
  Ewald energy   TEWEN  =       703.56696807
  -Hartree energ DENC   =     -1117.84867815
  -exchange      EXHF   =         0.00000000
  -V(xc)+E(xc)   XCENC  =        51.42374504
  PAW double counting   =       428.37890668     -430.73533574
  entropy T*S    EENTRO =         0.00000000
  eigenvalues    EBANDS =      -233.52655276
  atomic energy  EATOM  =       596.16534815
  Solvation  Ediel_sol  =         0.00000000
  ---------------------------------------------------
  free energy    TOTEN  =        -2.53415809 eV

  energy without entropy =       -2.53415809  energy(sigma->0) =       -2.53415809


--------------------------------------------------------------------------------------------------------




----------------------------------------- Iteration    1(   3)  ---------------------------------------


     EDDAV:  cpu time  111.6810: real time  111.9269
       DOS:  cpu time    0.0000: real time    0.0001
    --------------------------------------------
      LOOP:  cpu time  111.6820: real time  111.9305

 eigenvalue-minimisations  :   136
 total energy-change (2. order) :-0.3212495E+02  (-0.3202787E+02)
 number of electron      16.0000000 magnetization 
 augmentation part       16.0000000 magnetization 

 Free energy of the ion-electron system (eV)
  ---------------------------------------------------
  alpha Z        PSCENC =         0.04144063
  Ewald energy   TEWEN  =       703.56696807
  -Hartree energ DENC   =     -1117.84867815
  -exchange      EXHF   =         0.00000000
  -V(xc)+E(xc)   XCENC  =        51.42374504
  PAW double counting   =       428.37890668     -430.73533574
  entropy T*S    EENTRO =         0.00000000
  eigenvalues    EBANDS =      -265.65150388
  atomic energy  EATOM  =       596.16534815
  Solvation  Ediel_sol  =         0.00000000
  ---------------------------------------------------
  free energy    TOTEN  =       -34.65910920 eV

  energy without entropy =      -34.65910920  energy(sigma->0) =      -34.65910920


--------------------------------------------------------------------------------------------------------




----------------------------------------- Iteration    1(   4)  ---------------------------------------


     EDDAV:  cpu time  107.5127: real time  107.7485
       DOS:  cpu time    0.0000: real time    0.0001
    --------------------------------------------
      LOOP:  cpu time  107.5137: real time  107.7518

 eigenvalue-minimisations  :   128
 total energy-change (2. order) :-0.4278727E+01  (-0.4223194E+01)
 number of electron      16.0000000 magnetization 
 augmentation part       16.0000000 magnetization 

 Free energy of the ion-electron system (eV)
  ---------------------------------------------------
  alpha Z        PSCENC =         0.04144063
  Ewald energy   TEWEN  =       703.56696807
  -Hartree energ DENC   =     -1117.84867815
  -exchange      EXHF   =         0.00000000
  -V(xc)+E(xc)   XCENC  =        51.42374504
  PAW double counting   =       428.37890668     -430.73533574
  entropy T*S    EENTRO =         0.00000000
  eigenvalues    EBANDS =      -269.93023103
  atomic energy  EATOM  =       596.16534815
  Solvation  Ediel_sol  =         0.00000000
  ---------------------------------------------------
  free energy    TOTEN  =       -38.93783636 eV

  energy without entropy =      -38.93783636  energy(sigma->0) =      -38.93783636


--------------------------------------------------------------------------------------------------------




----------------------------------------- Iteration    1(   5)  ---------------------------------------


     EDDAV:  cpu time   94.0217: real time   94.2249
       DOS:  cpu time    0.0000: real time    0.0002
    CHARGE:  cpu time    7.7388: real time    7.7564
    MIXING:  cpu time    0.7369: real time    0.7393
    --------------------------------------------
      LOOP:  cpu time  102.4984: real time  102.7248

 eigenvalue-minimisations  :   108
 total energy-change (2. order) :-0.1378131E+00  (-0.1366931E+00)
 number of electron      15.9999994 magnetization 
 augmentation part        0.5193534 magnetization 

 Broyden mixing:
  rms(total) = 0.10389E+01    rms(broyden)= 0.10382E+01
  rms(prec ) = 0.10752E+01
  weight for this iteration     100.00

 Free energy of the ion-electron system (eV)
  ---------------------------------------------------
  alpha Z        PSCENC =         0.04144063
  Ewald energy   TEWEN  =       703.56696807
  -Hartree energ DENC   =     -1117.84867815
  -exchange      EXHF   =         0.00000000
  -V(xc)+E(xc)   XCENC  =        51.42374504
  PAW double counting   =       428.37890668     -430.73533574
  entropy T*S    EENTRO =         0.00000000
  eigenvalues    EBANDS =      -270.06804413
  atomic energy  EATOM  =       596.16534815
  Solvation  Ediel_sol  =         0.00000000
  ---------------------------------------------------
  free energy    TOTEN  =       -39.07564945 eV

  energy without entropy =      -39.07564945  energy(sigma->0) =      -39.07564945


--------------------------------------------------------------------------------------------------------




----------------------------------------- Iteration    1(   6)  ---------------------------------------


    POTLOK:  cpu time   27.0609: real time   27.1203
    SETDIJ:  cpu time    0.0060: real time    0.0065
     EDDAV:  cpu time   96.0034: real time   96.2134
       DOS:  cpu time    0.0000: real time    0.0002
    CHARGE:  cpu time    8.5087: real time    8.5279
    MIXING:  cpu time    0.8759: real time    0.8778
    --------------------------------------------
      LOOP:  cpu time  132.4589: real time  132.7503

 eigenvalue-minimisations  :   112
 total energy-change (2. order) : 0.2690238E+01  (-0.4399088E+00)
 number of electron      15.9999994 magnetization 
 augmentation part        0.4736231 magnetization 

 Broyden mixing:
  rms(total) = 0.56276E+00    rms(broyden)= 0.56266E+00
  rms(prec ) = 0.57826E+00
  weight for this iteration     100.00

 eigenvalues of (default mixing * dielectric matrix)
  average eigenvalue GAMMA=   1.6102
  1.6102

 Free energy of the ion-electron system (eV)
  ---------------------------------------------------
  alpha Z        PSCENC =         0.04144063
  Ewald energy   TEWEN  =       703.56696807
  -Hartree energ DENC   =     -1147.00942657
  -exchange      EXHF   =         0.00000000
  -V(xc)+E(xc)   XCENC  =        53.02546319
  PAW double counting   =       719.76045689     -722.45211965
  entropy T*S    EENTRO =         0.00000000
  eigenvalues    EBANDS =      -239.48354202
  atomic energy  EATOM  =       596.16534815
  Solvation  Ediel_sol  =         0.00000000
  ---------------------------------------------------
  free energy    TOTEN  =       -36.38541133 eV

  energy without entropy =      -36.38541133  energy(sigma->0) =      -36.38541133


--------------------------------------------------------------------------------------------------------




----------------------------------------- Iteration    1(   7)  ---------------------------------------


    POTLOK:  cpu time   29.3405: real time   29.4074
    SETDIJ:  cpu time    0.0070: real time    0.0064
     EDDAV:  cpu time  101.8895: real time  102.1095
       DOS:  cpu time    0.0000: real time    0.0002
    CHARGE:  cpu time    7.7618: real time    7.7788
    MIXING:  cpu time    0.8209: real time    0.8233
    --------------------------------------------
      LOOP:  cpu time  139.8217: real time  140.1300

 eigenvalue-minimisations  :   120
 total energy-change (2. order) : 0.6996262E+00  (-0.1838226E+00)
 number of electron      15.9999994 magnetization 
 augmentation part        0.4580026 magnetization 

 Broyden mixing:
  rms(total) = 0.22544E+00    rms(broyden)= 0.22537E+00
  rms(prec ) = 0.23056E+00
  weight for this iteration     100.00

 eigenvalues of (default mixing * dielectric matrix)
  average eigenvalue GAMMA=   1.5678
  1.0786  2.0570

 Free energy of the ion-electron system (eV)
  ---------------------------------------------------
  alpha Z        PSCENC =         0.04144063
  Ewald energy   TEWEN  =       703.56696807
  -Hartree energ DENC   =     -1166.92761724
  -exchange      EXHF   =         0.00000000
  -V(xc)+E(xc)   XCENC  =        54.29536995
  PAW double counting   =      1098.28146133    -1101.16432918
  entropy T*S    EENTRO =         0.00000000
  eigenvalues    EBANDS =      -219.94442682
  atomic energy  EATOM  =       596.16534815
  Solvation  Ediel_sol  =         0.00000000
  ---------------------------------------------------
  free energy    TOTEN  =       -35.68578511 eV

  energy without entropy =      -35.68578511  energy(sigma->0) =      -35.68578511


--------------------------------------------------------------------------------------------------------




----------------------------------------- Iteration    1(   8)  ---------------------------------------


    POTLOK:  cpu time   26.6969: real time   26.7566
    SETDIJ:  cpu time    0.0060: real time    0.0067
     EDDAV:  cpu time  107.6746: real time  107.9200
       DOS:  cpu time    0.0010: real time    0.0002
    CHARGE:  cpu time    8.1338: real time    8.1542
    MIXING:  cpu time    0.9089: real time    0.9116
    --------------------------------------------
      LOOP:  cpu time  143.4242: real time  143.7531

 eigenvalue-minimisations  :   128
 total energy-change (2. order) : 0.6975784E-01  (-0.1440011E-01)
 number of electron      15.9999994 magnetization 
 augmentation part        0.4491245 magnetization 

 Broyden mixing:
  rms(total) = 0.89642E-01    rms(broyden)= 0.89620E-01
  rms(prec ) = 0.93889E-01
  weight for this iteration     100.00

 eigenvalues of (default mixing * dielectric matrix)
  average eigenvalue GAMMA=   1.5917
  2.3183  1.6356  0.8213

 Free energy of the ion-electron system (eV)
  ---------------------------------------------------
  alpha Z        PSCENC =         0.04144063
  Ewald energy   TEWEN  =       703.56696807
  -Hartree energ DENC   =     -1173.25149684
  -exchange      EXHF   =         0.00000000
  -V(xc)+E(xc)   XCENC  =        54.70627111
  PAW double counting   =      1273.02647829    -1275.93017329
  entropy T*S    EENTRO =         0.00000000
  eigenvalues    EBANDS =      -213.94086339
  atomic energy  EATOM  =       596.16534815
  Solvation  Ediel_sol  =         0.00000000
  ---------------------------------------------------
  free energy    TOTEN  =       -35.61602727 eV

  energy without entropy =      -35.61602727  energy(sigma->0) =      -35.61602727


--------------------------------------------------------------------------------------------------------




----------------------------------------- Iteration    1(   9)  ---------------------------------------


    POTLOK:  cpu time   29.3915: real time   29.4574
    SETDIJ:  cpu time    0.0060: real time    0.0066
     EDDAV:  cpu time  107.8986: real time  108.1335
       DOS:  cpu time    0.0000: real time    0.0002
    CHARGE:  cpu time    8.0568: real time    8.0750
    MIXING:  cpu time    1.0358: real time    1.0398
    --------------------------------------------
      LOOP:  cpu time  146.3907: real time  146.7171

 eigenvalue-minimisations  :   128
 total energy-change (2. order) : 0.1875710E-01  (-0.2347414E-02)
 number of electron      15.9999994 magnetization 
 augmentation part        0.4497124 magnetization 

 Broyden mixing:
  rms(total) = 0.21883E-01    rms(broyden)= 0.21871E-01
  rms(prec ) = 0.28044E-01
  weight for this iteration     100.00

 eigenvalues of (default mixing * dielectric matrix)
  average eigenvalue GAMMA=   1.5324
  2.0881  1.8961  0.8452  1.3001

 Free energy of the ion-electron system (eV)
  ---------------------------------------------------
  alpha Z        PSCENC =         0.04144063
  Ewald energy   TEWEN  =       703.56696807
  -Hartree energ DENC   =     -1174.48922755
  -exchange      EXHF   =         0.00000000
  -V(xc)+E(xc)   XCENC  =        54.79285488
  PAW double counting   =      1340.25435750    -1343.13001681
  entropy T*S    EENTRO =         0.00000000
  eigenvalues    EBANDS =      -212.79899504
  atomic energy  EATOM  =       596.16534815
  Solvation  Ediel_sol  =         0.00000000
  ---------------------------------------------------
  free energy    TOTEN  =       -35.59727017 eV

  energy without entropy =      -35.59727017  energy(sigma->0) =      -35.59727017


--------------------------------------------------------------------------------------------------------




----------------------------------------- Iteration    1(  10)  ---------------------------------------


    POTLOK:  cpu time   26.5400: real time   26.5978
    SETDIJ:  cpu time    0.0070: real time    0.0065
     EDDAV:  cpu time  108.4115: real time  108.6551
       DOS:  cpu time    0.0000: real time    0.0002
    CHARGE:  cpu time    8.2347: real time    8.2539
    MIXING:  cpu time    1.0718: real time    1.0744
    --------------------------------------------
      LOOP:  cpu time  144.2671: real time  144.5935

 eigenvalue-minimisations  :   128
 total energy-change (2. order) : 0.2461029E-03  (-0.4313030E-03)
 number of electron      15.9999994 magnetization 
 augmentation part        0.4505131 magnetization 

 Broyden mixing:
  rms(total) = 0.13213E-01    rms(broyden)= 0.13205E-01
  rms(prec ) = 0.18910E-01
  weight for this iteration     100.00

 eigenvalues of (default mixing * dielectric matrix)
  average eigenvalue GAMMA=   1.5071
  2.1857  2.1857  0.8746  0.8746  1.4147

 Free energy of the ion-electron system (eV)
  ---------------------------------------------------
  alpha Z        PSCENC =         0.04144063
  Ewald energy   TEWEN  =       703.56696807
  -Hartree energ DENC   =     -1175.45686072
  -exchange      EXHF   =         0.00000000
  -V(xc)+E(xc)   XCENC  =        54.81571801
  PAW double counting   =      1334.79948546    -1337.67101567
  entropy T*S    EENTRO =         0.00000000
  eigenvalues    EBANDS =      -211.85810801
  atomic energy  EATOM  =       596.16534815
  Solvation  Ediel_sol  =         0.00000000
  ---------------------------------------------------
  free energy    TOTEN  =       -35.59702407 eV

  energy without entropy =      -35.59702407  energy(sigma->0) =      -35.59702407


--------------------------------------------------------------------------------------------------------




----------------------------------------- Iteration    1(  11)  ---------------------------------------


    POTLOK:  cpu time   26.9359: real time   26.9962
    SETDIJ:  cpu time    0.0070: real time    0.0068
     EDDAV:  cpu time  109.0984: real time  109.3402
       DOS:  cpu time    0.0000: real time    0.0002
    CHARGE:  cpu time    8.7847: real time    8.8054
    MIXING:  cpu time    1.4438: real time    1.4466
    --------------------------------------------
      LOOP:  cpu time  146.2728: real time  146.5998

 eigenvalue-minimisations  :   128
 total energy-change (2. order) :-0.1592060E-02  (-0.1567163E-03)
 number of electron      15.9999994 magnetization 
 augmentation part        0.4500730 magnetization 

 Broyden mixing:
  rms(total) = 0.82294E-02    rms(broyden)= 0.82279E-02
  rms(prec ) = 0.13134E-01
  weight for this iteration     100.00

 eigenvalues of (default mixing * dielectric matrix)
  average eigenvalue GAMMA=   1.6626
  2.7596  2.5418  1.4527  1.4527  0.8843  0.8843

 Free energy of the ion-electron system (eV)
  ---------------------------------------------------
  alpha Z        PSCENC =         0.04144063
  Ewald energy   TEWEN  =       703.56696807
  -Hartree energ DENC   =     -1176.47500880
  -exchange      EXHF   =         0.00000000
  -V(xc)+E(xc)   XCENC  =        54.84654166
  PAW double counting   =      1333.90325648    -1336.77291035
  entropy T*S    EENTRO =         0.00000000
  eigenvalues    EBANDS =      -210.87425197
  atomic energy  EATOM  =       596.16534815
  Solvation  Ediel_sol  =         0.00000000
  ---------------------------------------------------
  free energy    TOTEN  =       -35.59861613 eV

  energy without entropy =      -35.59861613  energy(sigma->0) =      -35.59861613


--------------------------------------------------------------------------------------------------------




----------------------------------------- Iteration    1(  12)  ---------------------------------------


    POTLOK:  cpu time   27.7168: real time   27.7771
    SETDIJ:  cpu time    0.0060: real time    0.0065
     EDDAV:  cpu time   97.2122: real time   97.4275
       DOS:  cpu time    0.0000: real time    0.0002
    CHARGE:  cpu time    8.1528: real time    8.1715
    MIXING:  cpu time    1.2928: real time    1.2947
    --------------------------------------------
      LOOP:  cpu time  134.3826: real time  134.6820

 eigenvalue-minimisations  :   112
 total energy-change (2. order) :-0.5712087E-02  (-0.3256754E-03)
 number of electron      15.9999994 magnetization 
 augmentation part        0.4497477 magnetization 

 Broyden mixing:
  rms(total) = 0.46628E-02    rms(broyden)= 0.46562E-02
  rms(prec ) = 0.73963E-02
  weight for this iteration     100.00

 eigenvalues of (default mixing * dielectric matrix)
  average eigenvalue GAMMA=   1.7928
  3.8393  2.2038  2.0118  1.5806  0.8933  1.0104  1.0104

 Free energy of the ion-electron system (eV)
  ---------------------------------------------------
  alpha Z        PSCENC =         0.04144063
  Ewald energy   TEWEN  =       703.56696807
  -Hartree energ DENC   =     -1177.75404122
  -exchange      EXHF   =         0.00000000
  -V(xc)+E(xc)   XCENC  =        54.87774087
  PAW double counting   =      1330.72567813    -1333.59283671
  entropy T*S    EENTRO =         0.00000000
  eigenvalues    EBANDS =      -209.63462613
  atomic energy  EATOM  =       596.16534815
  Solvation  Ediel_sol  =         0.00000000
  ---------------------------------------------------
  free energy    TOTEN  =       -35.60432822 eV

  energy without entropy =      -35.60432822  energy(sigma->0) =      -35.60432822


--------------------------------------------------------------------------------------------------------




----------------------------------------- Iteration    1(  13)  ---------------------------------------


    POTLOK:  cpu time   25.9691: real time   26.0260
    SETDIJ:  cpu time    0.0060: real time    0.0063
     EDDAV:  cpu time  110.8911: real time  111.1375
       DOS:  cpu time    0.0000: real time    0.0002
    CHARGE:  cpu time    7.9648: real time    7.9827
    MIXING:  cpu time    1.4788: real time    1.4822
    --------------------------------------------
      LOOP:  cpu time  146.3118: real time  146.6398

 eigenvalue-minimisations  :   128
 total energy-change (2. order) :-0.6145310E-02  (-0.1697022E-03)
 number of electron      15.9999994 magnetization 
 augmentation part        0.4495566 magnetization 

 Broyden mixing:
  rms(total) = 0.29284E-02    rms(broyden)= 0.29255E-02
  rms(prec ) = 0.43759E-02
  weight for this iteration     100.00

 eigenvalues of (default mixing * dielectric matrix)
  average eigenvalue GAMMA=   1.8762
  4.8533  2.4115  1.7507  1.7507  1.4258  0.9058  0.9058  1.0062

 Free energy of the ion-electron system (eV)
  ---------------------------------------------------
  alpha Z        PSCENC =         0.04144063
  Ewald energy   TEWEN  =       703.56696807
  -Hartree energ DENC   =     -1178.35493555
  -exchange      EXHF   =         0.00000000
  -V(xc)+E(xc)   XCENC  =        54.88437100
  PAW double counting   =      1329.83412432    -1332.70191325
  entropy T*S    EENTRO =         0.00000000
  eigenvalues    EBANDS =      -209.04587689
  atomic energy  EATOM  =       596.16534815
  Solvation  Ediel_sol  =         0.00000000
  ---------------------------------------------------
  free energy    TOTEN  =       -35.61047353 eV

  energy without entropy =      -35.61047353  energy(sigma->0) =      -35.61047353


--------------------------------------------------------------------------------------------------------




----------------------------------------- Iteration    1(  14)  ---------------------------------------


    POTLOK:  cpu time   26.2420: real time   26.3002
    SETDIJ:  cpu time    0.0060: real time    0.0066
     EDDAV:  cpu time  107.5896: real time  107.8190
       DOS:  cpu time    0.0000: real time    0.0002
    CHARGE:  cpu time    7.6978: real time    7.7136
    MIXING:  cpu time    1.4978: real time    1.5016
    --------------------------------------------
      LOOP:  cpu time  143.0353: real time  143.3466

 eigenvalue-minimisations  :   128
 total energy-change (2. order) :-0.3591345E-02  (-0.4243675E-04)
 number of electron      15.9999994 magnetization 
 augmentation part        0.4495998 magnetization 

 Broyden mixing:
  rms(total) = 0.19101E-02    rms(broyden)= 0.19094E-02
  rms(prec ) = 0.27765E-02
  weight for this iteration     100.00

 eigenvalues of (default mixing * dielectric matrix)
  average eigenvalue GAMMA=   1.9614
  5.0750  2.5477  2.5477  1.9314  1.5824  1.1024  1.1024  0.8816  0.8816

 Free energy of the ion-electron system (eV)
  ---------------------------------------------------
  alpha Z        PSCENC =         0.04144063
  Ewald energy   TEWEN  =       703.56696807
  -Hartree energ DENC   =     -1178.52602317
  -exchange      EXHF   =         0.00000000
  -V(xc)+E(xc)   XCENC  =        54.87872320
  PAW double counting   =      1328.23925299    -1331.10685996
  entropy T*S    EENTRO =         0.00000000
  eigenvalues    EBANDS =      -208.87291478
  atomic energy  EATOM  =       596.16534815
  Solvation  Ediel_sol  =         0.00000000
  ---------------------------------------------------
  free energy    TOTEN  =       -35.61406487 eV

  energy without entropy =      -35.61406487  energy(sigma->0) =      -35.61406487


--------------------------------------------------------------------------------------------------------




----------------------------------------- Iteration    1(  15)  ---------------------------------------


    POTLOK:  cpu time   26.0550: real time   26.1100
    SETDIJ:  cpu time    0.0060: real time    0.0064
     EDDAV:  cpu time  104.2971: real time  104.5127
       DOS:  cpu time    0.0000: real time    0.0002
    CHARGE:  cpu time    7.3539: real time    7.3704
    MIXING:  cpu time    1.4898: real time    1.4929
    --------------------------------------------
      LOOP:  cpu time  139.2038: real time  139.4969

 eigenvalue-minimisations  :   128
 total energy-change (2. order) :-0.3365474E-02  (-0.3579576E-04)
 number of electron      15.9999994 magnetization 
 augmentation part        0.4496449 magnetization 

 Broyden mixing:
  rms(total) = 0.12922E-02    rms(broyden)= 0.12921E-02
  rms(prec ) = 0.17066E-02
  weight for this iteration     100.00

 eigenvalues of (default mixing * dielectric matrix)
  average eigenvalue GAMMA=   2.0775
  6.4077  3.4824  2.3686  1.6372  1.6372  1.5064  1.0244  0.9147  0.9147  0.8814

 Free energy of the ion-electron system (eV)
  ---------------------------------------------------
  alpha Z        PSCENC =         0.04144063
  Ewald energy   TEWEN  =       703.56696807
  -Hartree energ DENC   =     -1178.56077297
  -exchange      EXHF   =         0.00000000
  -V(xc)+E(xc)   XCENC  =        54.87271491
  PAW double counting   =      1329.22974201    -1332.09757573
  entropy T*S    EENTRO =         0.00000000
  eigenvalues    EBANDS =      -208.83529542
  atomic energy  EATOM  =       596.16534815
  Solvation  Ediel_sol  =         0.00000000
  ---------------------------------------------------
  free energy    TOTEN  =       -35.61743035 eV

  energy without entropy =      -35.61743035  energy(sigma->0) =      -35.61743035


--------------------------------------------------------------------------------------------------------




----------------------------------------- Iteration    1(  16)  ---------------------------------------


    POTLOK:  cpu time   24.6742: real time   24.7266
    SETDIJ:  cpu time    0.0070: real time    0.0064
     EDDAV:  cpu time   99.8468: real time  100.0522
       DOS:  cpu time    0.0000: real time    0.0002
    CHARGE:  cpu time    7.4589: real time    7.4741
    MIXING:  cpu time    1.6597: real time    1.6631
    --------------------------------------------
      LOOP:  cpu time  133.6477: real time  133.9261

 eigenvalue-minimisations  :   128
 total energy-change (2. order) :-0.1272604E-02  (-0.1222558E-04)
 number of electron      15.9999994 magnetization 
 augmentation part        0.4496164 magnetization 

 Broyden mixing:
  rms(total) = 0.70336E-03    rms(broyden)= 0.70305E-03
  rms(prec ) = 0.94931E-03
  weight for this iteration     100.00

 eigenvalues of (default mixing * dielectric matrix)
  average eigenvalue GAMMA=   2.0954
  7.0634  3.4055  2.0738  2.0738  1.6837  1.6837  1.2876  1.0034  1.0034  0.8855
  0.8855

 Free energy of the ion-electron system (eV)
  ---------------------------------------------------
  alpha Z        PSCENC =         0.04144063
  Ewald energy   TEWEN  =       703.56696807
  -Hartree energ DENC   =     -1178.59100695
  -exchange      EXHF   =         0.00000000
  -V(xc)+E(xc)   XCENC  =        54.87032935
  PAW double counting   =      1329.07494509    -1331.94284014
  entropy T*S    EENTRO =         0.00000000
  eigenvalues    EBANDS =      -208.80388715
  atomic energy  EATOM  =       596.16534815
  Solvation  Ediel_sol  =         0.00000000
  ---------------------------------------------------
  free energy    TOTEN  =       -35.61870295 eV

  energy without entropy =      -35.61870295  energy(sigma->0) =      -35.61870295


--------------------------------------------------------------------------------------------------------




----------------------------------------- Iteration    1(  17)  ---------------------------------------


    POTLOK:  cpu time   25.2142: real time   25.2677
    SETDIJ:  cpu time    0.0060: real time    0.0066
     EDDAV:  cpu time   70.9892: real time   71.1344
       DOS:  cpu time    0.0000: real time    0.0002
    CHARGE:  cpu time    7.6048: real time    7.6219
    MIXING:  cpu time    1.7797: real time    1.7830
    --------------------------------------------
      LOOP:  cpu time  105.5959: real time  105.8321

 eigenvalue-minimisations  :    80
 total energy-change (2. order) :-0.7117325E-03  (-0.2177248E-05)
 number of electron      15.9999994 magnetization 
 augmentation part        0.4495904 magnetization 

 Broyden mixing:
  rms(total) = 0.41214E-03    rms(broyden)= 0.41196E-03
  rms(prec ) = 0.57296E-03
  weight for this iteration     100.00

 eigenvalues of (default mixing * dielectric matrix)
  average eigenvalue GAMMA=   2.2416
  8.0584  4.1800  2.7036  2.3466  1.6167  1.6167  1.5723  0.9938  0.9938  1.0556
  0.8808  0.8808

 Free energy of the ion-electron system (eV)
  ---------------------------------------------------
  alpha Z        PSCENC =         0.04144063
  Ewald energy   TEWEN  =       703.56696807
  -Hartree energ DENC   =     -1178.60258574
  -exchange      EXHF   =         0.00000000
  -V(xc)+E(xc)   XCENC  =        54.86944236
  PAW double counting   =      1328.86279852    -1331.73047492
  entropy T*S    EENTRO =         0.00000000
  eigenvalues    EBANDS =      -208.79235175
  atomic energy  EATOM  =       596.16534815
  Solvation  Ediel_sol  =         0.00000000
  ---------------------------------------------------
  free energy    TOTEN  =       -35.61941468 eV

  energy without entropy =      -35.61941468  energy(sigma->0) =      -35.61941468


--------------------------------------------------------------------------------------------------------




----------------------------------------- Iteration    1(  18)  ---------------------------------------


    POTLOK:  cpu time   24.8342: real time   24.8862
    SETDIJ:  cpu time    0.0070: real time    0.0064
     EDDAV:  cpu time   76.4024: real time   76.5608
       DOS:  cpu time    0.0000: real time    0.0002
    CHARGE:  cpu time    7.5069: real time    7.5228
    MIXING:  cpu time    1.8267: real time    1.8305
    --------------------------------------------
      LOOP:  cpu time  110.5822: real time  110.8111

 eigenvalue-minimisations  :    88
 total energy-change (2. order) :-0.4955470E-03  (-0.3306857E-05)
 number of electron      15.9999994 magnetization 
 augmentation part        0.4495903 magnetization 

 Broyden mixing:
  rms(total) = 0.27026E-03    rms(broyden)= 0.27020E-03
  rms(prec ) = 0.33787E-03
  weight for this iteration     100.00

 eigenvalues of (default mixing * dielectric matrix)
  average eigenvalue GAMMA=   2.2994
  8.2919  4.7020  2.6457  2.3295  2.3295  1.6631  1.6631  1.4955  1.0077  1.0077
  0.8893  0.8893  0.9785

 Free energy of the ion-electron system (eV)
  ---------------------------------------------------
  alpha Z        PSCENC =         0.04144063
  Ewald energy   TEWEN  =       703.56696807
  -Hartree energ DENC   =     -1178.59681304
  -exchange      EXHF   =         0.00000000
  -V(xc)+E(xc)   XCENC  =        54.86853328
  PAW double counting   =      1329.09500117    -1331.96265231
  entropy T*S    EENTRO =         0.00000000
  eigenvalues    EBANDS =      -208.79773619
  atomic energy  EATOM  =       596.16534815
  Solvation  Ediel_sol  =         0.00000000
  ---------------------------------------------------
  free energy    TOTEN  =       -35.61991023 eV

  energy without entropy =      -35.61991023  energy(sigma->0) =      -35.61991023


--------------------------------------------------------------------------------------------------------




----------------------------------------- Iteration    1(  19)  ---------------------------------------


    POTLOK:  cpu time   24.4343: real time   24.4838
    SETDIJ:  cpu time    0.0060: real time    0.0065
     EDDAV:  cpu time   64.5432: real time   64.6749
       DOS:  cpu time    0.0000: real time    0.0002
    CHARGE:  cpu time    7.7698: real time    7.7857
    MIXING:  cpu time    2.2817: real time    2.2877
    --------------------------------------------
      LOOP:  cpu time   99.0359: real time   99.2428

 eigenvalue-minimisations  :    72
 total energy-change (2. order) :-0.2170138E-03  (-0.1089921E-05)
 number of electron      15.9999994 magnetization 
 augmentation part        0.4496018 magnetization 

 Broyden mixing:
  rms(total) = 0.20617E-03    rms(broyden)= 0.20608E-03
  rms(prec ) = 0.23514E-03
  weight for this iteration     100.00

 eigenvalues of (default mixing * dielectric matrix)
  average eigenvalue GAMMA=   2.3254
  8.6465  5.3060  3.2132  2.5974  1.9961  1.7922  1.6216  1.6216  1.0298  1.0298
  1.0705  0.8794  0.8794  0.8722

 Free energy of the ion-electron system (eV)
  ---------------------------------------------------
  alpha Z        PSCENC =         0.04144063
  Ewald energy   TEWEN  =       703.56696807
  -Hartree energ DENC   =     -1178.58893595
  -exchange      EXHF   =         0.00000000
  -V(xc)+E(xc)   XCENC  =        54.86801348
  PAW double counting   =      1329.08681397    -1331.95455648
  entropy T*S    EENTRO =         0.00000000
  eigenvalues    EBANDS =      -208.80521910
  atomic energy  EATOM  =       596.16534815
  Solvation  Ediel_sol  =         0.00000000
  ---------------------------------------------------
  free energy    TOTEN  =       -35.62012724 eV

  energy without entropy =      -35.62012724  energy(sigma->0) =      -35.62012724


--------------------------------------------------------------------------------------------------------




----------------------------------------- Iteration    1(  20)  ---------------------------------------


    POTLOK:  cpu time   24.4923: real time   24.5431
    SETDIJ:  cpu time    0.0060: real time    0.0064
     EDDAV:  cpu time   67.4707: real time   67.6064
       DOS:  cpu time    0.0000: real time    0.0002
    --------------------------------------------
      LOOP:  cpu time   91.9710: real time   92.1597

 eigenvalue-minimisations  :    84
 total energy-change (2. order) :-0.6719432E-04  (-0.3277786E-06)
 number of electron      15.9999994 magnetization 
 augmentation part        0.4496018 magnetization 

 Free energy of the ion-electron system (eV)
  ---------------------------------------------------
  alpha Z        PSCENC =         0.04144063
  Ewald energy   TEWEN  =       703.56696807
  -Hartree energ DENC   =     -1178.58952156
  -exchange      EXHF   =         0.00000000
  -V(xc)+E(xc)   XCENC  =        54.86786628
  PAW double counting   =      1328.97442543    -1331.84213194
  entropy T*S    EENTRO =         0.00000000
  eigenvalues    EBANDS =      -208.80458949
  atomic energy  EATOM  =       596.16534815
  Solvation  Ediel_sol  =         0.00000000
  ---------------------------------------------------
  free energy    TOTEN  =       -35.62019444 eV

  energy without entropy =      -35.62019444  energy(sigma->0) =      -35.62019444


--------------------------------------------------------------------------------------------------------




 average (electrostatic) potential at core
  the test charge radii are     0.5201  0.6991  0.7089
  (the norm of the test charge is              1.0000)
       1 -43.0796       2 -43.0789       3 -43.0664       4 -60.5223       5 -59.3589
       6 -74.8250
 
 
 
 E-fermi :  -6.1935     XC(G=0):  -0.0948     alpha+bet : -0.0137


 k-point     1 :       0.2500    0.2500    0.2500
  band No.  band energies     occupation 
      1     -23.9050      2.00000
      2     -19.2753      2.00000
      3     -13.8580      2.00000
      4     -11.8227      2.00000
      5     -11.7826      2.00000
      6      -8.3317      2.00000
      7      -8.2833      2.00000
      8      -7.1437      2.00000
      9      -0.8960      0.00000
     10      -0.6802      0.00000
     11      -0.5904      0.00000
     12      -0.0132      0.00000

 k-point     2 :      -0.2500    0.2500    0.2500
  band No.  band energies     occupation 
      1     -23.9050      2.00000
      2     -19.2753      2.00000
      3     -13.8580      2.00000
      4     -11.8228      2.00000
      5     -11.7826      2.00000
      6      -8.3317      2.00000
      7      -8.2833      2.00000
      8      -7.1437      2.00000
      9      -0.8960      0.00000
     10      -0.6802      0.00000
     11      -0.5904      0.00000
     12      -0.0119      0.00000

 k-point     3 :       0.2500   -0.2500    0.2500
  band No.  band energies     occupation 
      1     -23.9050      2.00000
      2     -19.2753      2.00000
      3     -13.8580      2.00000
      4     -11.8228      2.00000
      5     -11.7826      2.00000
      6      -8.3317      2.00000
      7      -8.2833      2.00000
      8      -7.1437      2.00000
      9      -0.8960      0.00000
     10      -0.6802      0.00000
     11      -0.5905      0.00000
     12      -0.0127      0.00000

 k-point     4 :      -0.2500   -0.2500    0.2500
  band No.  band energies     occupation 
      1     -23.9050      2.00000
      2     -19.2753      2.00000
      3     -13.8580      2.00000
      4     -11.8228      2.00000
      5     -11.7826      2.00000
      6      -8.3317      2.00000
      7      -8.2833      2.00000
      8      -7.1437      2.00000
      9      -0.8960      0.00000
     10      -0.6802      0.00000
     11      -0.5905      0.00000
     12      -0.0125      0.00000


--------------------------------------------------------------------------------------------------------


 soft charge-density along one line, spin component           1
         0         1         2         3         4         5         6         7         8         9
 total charge-density along one line
 
 pseudopotential strength for first ion, spin component:           1
 -2.362  -4.075  -0.002   0.000  -0.001
 -4.075  -6.942  -0.005   0.001  -0.002
 -0.002  -0.005  -0.330  -0.001   0.002
  0.000   0.001  -0.001  -0.334   0.000
 -0.001  -0.002   0.002   0.000  -0.333
 total augmentation occupancy for first ion, spin component:           1
  3.524  -0.634   0.400  -0.102   0.169
 -0.634   0.132  -0.074   0.019  -0.031
  0.400  -0.074   0.047  -0.010   0.017
 -0.102   0.019  -0.010   0.011  -0.004
  0.169  -0.031   0.017  -0.004   0.013


------------------------ aborting loop because EDIFF is reached ----------------------------------------


    CHARGE:  cpu time    7.0699: real time    7.0851
    FORLOC:  cpu time    2.4646: real time    2.4685
    FORNL :  cpu time   19.7120: real time   19.7519
    STRESS:  cpu time   58.1022: real time   58.2205
    FORCOR:  cpu time   20.3079: real time   20.3478
    FORHAR:  cpu time    6.4490: real time    6.4606
    MIXING:  cpu time    1.1488: real time    1.1512
    OFIELD:  cpu time    0.0000: real time    0.0000

  FORCE on cell =-STRESS in cart. coord.  units (eV):
  Direction    XX          YY          ZZ          XY          YZ          ZX
  --------------------------------------------------------------------------------------
  Alpha Z     0.04144     0.04144     0.04144
  Ewald     609.36403    49.12795    45.07465   -68.72020     6.43744   -45.27524
  Hartree   591.16184   294.71848   292.71324   -32.64995     2.54970   -19.63392
  E(xc)     -58.81965   -60.17417   -60.18556    -0.19701     0.02203    -0.14565
  Local   -1340.43956  -517.90754  -512.11783    96.16289    -8.27382    60.95439
  n-local   -26.49724   -24.48648   -24.45183     0.66358    -0.08409     0.64934
  augment     0.47528     0.98748     0.99047     0.06531    -0.00667     0.04313
  Kinetic   224.11510   256.68671   256.93531     4.79096    -0.67843     3.57237
  Fock        0.00000     0.00000     0.00000     0.00000     0.00000     0.00000
  -------------------------------------------------------------------------------------
  Total      -0.59875    -1.00613    -1.00011     0.11558    -0.03383     0.16442
  in kB      -0.03553    -0.05970    -0.05935     0.00686    -0.00201     0.00976
  external pressure =       -0.05 kB  Pullay stress =        0.00 kB


 VOLUME and BASIS-vectors are now :
 -----------------------------------------------------------------------------
  energy-cutoff  :      400.00
  volume of cell :    27000.00
      direct lattice vectors                 reciprocal lattice vectors
    30.000000000  0.000000000  0.000000000     0.033333333  0.000000000  0.000000000
     0.000000000 30.000000000  0.000000000     0.000000000  0.033333333  0.000000000
     0.000000000  0.000000000 30.000000000     0.000000000  0.000000000  0.033333333

  length of vectors
    30.000000000 30.000000000 30.000000000     0.033333333  0.033333333  0.033333333


 FORCES acting on ions
    electron-ion (+dipol)            ewald-force                    non-local-force                 convergence-correction
 -----------------------------------------------------------------------------------------------
   0.370E+02 0.541E+02 -.146E+02   -.393E+02 -.592E+02 0.159E+02   0.216E+01 0.511E+01 -.130E+01   -.425E-04 0.222E-03 -.557E-04
   0.330E+02 -.174E+02 0.559E+02   -.349E+02 0.190E+02 -.611E+02   0.177E+01 -.150E+01 0.520E+01   -.617E-04 -.610E-04 0.217E-03
   0.327E+02 -.418E+02 -.407E+02   -.345E+02 0.456E+02 0.445E+02   0.194E+01 -.380E+01 -.374E+01   -.283E-04 -.172E-03 -.170E-03
   0.121E+03 -.105E+02 -.468E+01   -.129E+03 0.109E+02 0.468E+01   0.758E+01 -.435E+00 -.340E-01   -.135E-02 0.727E-04 0.503E-04
   -.226E+03 0.362E+02 0.286E+02   0.252E+03 -.410E+02 -.326E+02   -.257E+02 0.490E+01 0.418E+01   0.138E-02 -.314E-03 -.282E-03
   0.117E+02 -.221E+02 -.256E+02   -.143E+02 0.247E+02 0.286E+02   0.262E+01 -.273E+01 -.310E+01   -.188E-02 0.286E-03 0.250E-03
 -----------------------------------------------------------------------------------------------
   0.962E+01 -.153E+01 -.121E+01   0.000E+00 -.355E-14 0.711E-14   -.963E+01 0.154E+01 0.120E+01   -.199E-02 0.347E-04 0.985E-05
 
 
 POSITION                                       TOTAL-FORCE (eV/Angst)
 -----------------------------------------------------------------------------------
     14.09491     14.06582     15.28246        -0.091263     -0.005828      0.011549
     14.16918     15.34084     14.02704        -0.116425      0.014554     -0.006867
     14.14502     15.78964     15.75952         0.126155      0.000115      0.009452
     14.50838     15.05129     15.03032        -0.013935     -0.021074     -0.034369
     17.07305     14.76098     14.84998         0.059785      0.105712      0.131134
     15.92210     14.96480     15.01855         0.035683     -0.093479     -0.110898
 -----------------------------------------------------------------------------------
    total drift:                               -0.005100      0.007028     -0.007910


--------------------------------------------------------------------------------------------------------



  FREE ENERGIE OF THE ION-ELECTRON SYSTEM (eV)
  ---------------------------------------------------
  free  energy   TOTEN  =       -35.62019444 eV

  energy  without entropy=      -35.62019444  energy(sigma->0) =      -35.62019444
 


--------------------------------------------------------------------------------------------------------


    POTLOK:  cpu time   16.6895: real time   16.7221


--------------------------------------------------------------------------------------------------------


 NEB: the previous image is higher in energy: F
 NEB: the next image is higher in energy    : T
 NEB: only next energy greater

 NEB: Tangent
 ----------------------------------------------
      0.26672     -0.03583     -0.06090
      0.33648      0.04187      0.00272
     -0.36885     -0.02558      0.01211
      0.02788      0.09639      0.11112
     -0.27592     -0.38128     -0.44679
      0.05525      0.29385      0.37297

 NEB: forces: par spring, perp REAL, dneb     0.049139    0.073414    0.000000
 NEB: distance to prev, next image, angle between     0.172452    0.182279  140.598348
 NEB: projections on to tangent (spring, REAL)     0.049139   -0.298328

 stress matrix after NEB project (eV)
     -0.59875      0.11558      0.16442
      0.11558     -1.00613     -0.03383
      0.16442     -0.03383     -1.00011
  FORCES: max atom, RMS     0.058615    0.036065
  FORCE total and by dimension    0.088342    0.054881
  Stress total and by dimension    1.566553    1.006130
 
 OPT: Flag T
 OPT: FIRE Step
 OPT: FIRE, TIMESTEP      0.10000
 OPT: FIRE, alpha         0.10000


--------------------------------------------------------------------------------------------------------


    WAVPRE:  cpu time    7.5029: real time    7.5198
 FEWALD executed in parallel
    FEWALD:  cpu time    0.0010: real time    0.0004
    ORTHCH:  cpu time    5.9371: real time    5.9514
     LOOP+:  cpu time 2807.7682: real time 2813.8774


----------------------------------------- Iteration    2(   1)  ---------------------------------------


    POTLOK:  cpu time   21.8057: real time   21.8562
    SETDIJ:  cpu time    0.0060: real time    0.0064
     EDDAV:  cpu time   73.9858: real time   74.1616
       DOS:  cpu time    0.0000: real time    0.0002
    CHARGE:  cpu time    6.1701: real time    6.1849
    MIXING:  cpu time    0.5569: real time    0.5587
    --------------------------------------------
      LOOP:  cpu time  102.5254: real time  102.7704

 eigenvalue-minimisations  :   104
 total energy-change (2. order) : 0.1175094E-04  (-0.2256329E-03)
 number of electron      15.9999994 magnetization 
 augmentation part        0.4496968 magnetization 

 Broyden mixing:
  rms(total) = 0.18633E-02    rms(broyden)= 0.18599E-02
  rms(prec ) = 0.19124E-02
  weight for this iteration     100.00

 Free energy of the ion-electron system (eV)
  ---------------------------------------------------
  alpha Z        PSCENC =         0.04144063
  Ewald energy   TEWEN  =       703.61191705
  -Hartree energ DENC   =     -1178.60685565
  -exchange      EXHF   =         0.00000000
  -V(xc)+E(xc)   XCENC  =        54.86898768
  PAW double counting   =      1329.01516067    -1331.88287791
  entropy T*S    EENTRO =         0.00000000
  eigenvalues    EBANDS =      -208.83323610
  atomic energy  EATOM  =       596.16534815
  Solvation  Ediel_sol  =         0.00000000
  ---------------------------------------------------
  free energy    TOTEN  =       -35.62011549 eV

  energy without entropy =      -35.62011549  energy(sigma->0) =      -35.62011549


--------------------------------------------------------------------------------------------------------




----------------------------------------- Iteration    2(   2)  ---------------------------------------


    POTLOK:  cpu time   18.8771: real time   18.9220
    SETDIJ:  cpu time    0.0060: real time    0.0063
     EDDAV:  cpu time   71.2182: real time   71.3880
       DOS:  cpu time    0.0000: real time    0.0002
    CHARGE:  cpu time    7.0759: real time    7.0947
    MIXING:  cpu time    0.7409: real time    0.7422
    --------------------------------------------
      LOOP:  cpu time   97.9201: real time   98.1572

 eigenvalue-minimisations  :    96
 total energy-change (2. order) :-0.6597761E-05  (-0.5468115E-05)
 number of electron      15.9999994 magnetization 
 augmentation part        0.4497959 magnetization 

 Broyden mixing:
  rms(total) = 0.95501E-03    rms(broyden)= 0.95426E-03
  rms(prec ) = 0.97742E-03
  weight for this iteration     100.00

 eigenvalues of (default mixing * dielectric matrix)
  average eigenvalue GAMMA=   1.1372
  1.1372

 Free energy of the ion-electron system (eV)
  ---------------------------------------------------
  alpha Z        PSCENC =         0.04144063
  Ewald energy   TEWEN  =       703.61191705
  -Hartree energ DENC   =     -1178.60630922
  -exchange      EXHF   =         0.00000000
  -V(xc)+E(xc)   XCENC  =        54.86924330
  PAW double counting   =      1329.28145428    -1332.14936841
  entropy T*S    EENTRO =         0.00000000
  eigenvalues    EBANDS =      -208.83384786
  atomic energy  EATOM  =       596.16534815
  Solvation  Ediel_sol  =         0.00000000
  ---------------------------------------------------
  free energy    TOTEN  =       -35.62012209 eV

  energy without entropy =      -35.62012209  energy(sigma->0) =      -35.62012209


--------------------------------------------------------------------------------------------------------




----------------------------------------- Iteration    2(   3)  ---------------------------------------


    POTLOK:  cpu time   21.1438: real time   21.1934
    SETDIJ:  cpu time    0.0070: real time    0.0063
     EDDAV:  cpu time   59.6469: real time   59.7867
       DOS:  cpu time    0.0000: real time    0.0002
    CHARGE:  cpu time    7.1579: real time    7.1760
    MIXING:  cpu time    0.7899: real time    0.7920
    --------------------------------------------
      LOOP:  cpu time   88.7475: real time   88.9592

 eigenvalue-minimisations  :    80
 total energy-change (2. order) :-0.6403142E-05  (-0.9832981E-06)
 number of electron      15.9999994 magnetization 
 augmentation part        0.4497972 magnetization 

 Broyden mixing:
  rms(total) = 0.50439E-03    rms(broyden)= 0.50422E-03
  rms(prec ) = 0.51369E-03
  weight for this iteration     100.00

 eigenvalues of (default mixing * dielectric matrix)
  average eigenvalue GAMMA=   1.5073
  1.0817  1.9330

 Free energy of the ion-electron system (eV)
  ---------------------------------------------------
  alpha Z        PSCENC =         0.04144063
  Ewald energy   TEWEN  =       703.61191705
  -Hartree energ DENC   =     -1178.61809118
  -exchange      EXHF   =         0.00000000
  -V(xc)+E(xc)   XCENC  =        54.86985088
  PAW double counting   =      1329.46139870    -1332.32954032
  entropy T*S    EENTRO =         0.00000000
  eigenvalues    EBANDS =      -208.82245240
  atomic energy  EATOM  =       596.16534815
  Solvation  Ediel_sol  =         0.00000000
  ---------------------------------------------------
  free energy    TOTEN  =       -35.62012849 eV

  energy without entropy =      -35.62012849  energy(sigma->0) =      -35.62012849


--------------------------------------------------------------------------------------------------------




----------------------------------------- Iteration    2(   4)  ---------------------------------------


    POTLOK:  cpu time   23.3734: real time   23.4294
    SETDIJ:  cpu time    0.0060: real time    0.0064
     EDDAV:  cpu time   50.5183: real time   50.6368
[...]
  Solvation  Ediel_sol  =         0.00000000
  ---------------------------------------------------
  free energy    TOTEN  =       -35.62435623 eV

  energy without entropy =      -35.62435623  energy(sigma->0) =      -35.62435623


--------------------------------------------------------------------------------------------------------




----------------------------------------- Iteration   28(   2)  ---------------------------------------


    POTLOK:  cpu time   28.5167: real time   33.9651
    SETDIJ:  cpu time    0.0060: real time    0.0065
     EDDAV:  cpu time   54.6627: real time   61.8372
       DOS:  cpu time    0.0000: real time    0.0002
    CHARGE:  cpu time    6.8160: real time    8.3869
    MIXING:  cpu time    1.0348: real time    1.0375
    --------------------------------------------
      LOOP:  cpu time   91.0382: real time  105.2418

 eigenvalue-minimisations  :    60
 total energy-change (2. order) :-0.2032459E-07  (-0.1499110E-06)
 number of electron      15.9999992 magnetization 
 augmentation part        0.4495691 magnetization 

 Broyden mixing:
  rms(total) = 0.11205E-03    rms(broyden)= 0.11197E-03
  rms(prec ) = 0.11495E-03
  weight for this iteration     100.00

 eigenvalues of (default mixing * dielectric matrix)
  average eigenvalue GAMMA=   1.0329
  1.0329

 Free energy of the ion-electron system (eV)
  ---------------------------------------------------
  alpha Z        PSCENC =         0.04144063
  Ewald energy   TEWEN  =       703.30953274
  -Hartree energ DENC   =     -1178.34748126
  -exchange      EXHF   =         0.00000000
  -V(xc)+E(xc)   XCENC  =        54.86383214
  PAW double counting   =      1328.66924434    -1331.53689223
  entropy T*S    EENTRO =         0.00000000
  eigenvalues    EBANDS =      -208.78938075
  atomic energy  EATOM  =       596.16534815
  Solvation  Ediel_sol  =         0.00000000
  ---------------------------------------------------
  free energy    TOTEN  =       -35.62435625 eV

  energy without entropy =      -35.62435625  energy(sigma->0) =      -35.62435625


--------------------------------------------------------------------------------------------------------




----------------------------------------- Iteration   28(   3)  ---------------------------------------


    POTLOK:  cpu time   30.1314: real time   35.3700
    SETDIJ:  cpu time    0.0060: real time    0.0068
     EDDAV:  cpu time   46.8319: real time   55.5255
       DOS:  cpu time    0.0000: real time    0.0002
    CHARGE:  cpu time    6.8580: real time    8.4966
    MIXING:  cpu time    0.8279: real time    0.8998
    --------------------------------------------
      LOOP:  cpu time   84.6571: real time  100.3200

 eigenvalue-minimisations  :    48
 total energy-change (2. order) : 0.2400498E-07  (-0.1920380E-07)
 number of electron      15.9999992 magnetization 
 augmentation part        0.4495681 magnetization 

 Broyden mixing:
  rms(total) = 0.72532E-04    rms(broyden)= 0.72518E-04
  rms(prec ) = 0.74223E-04
  weight for this iteration     100.00

 eigenvalues of (default mixing * dielectric matrix)
  average eigenvalue GAMMA=   1.5931
  1.0303  2.1558

 Free energy of the ion-electron system (eV)
  ---------------------------------------------------
  alpha Z        PSCENC =         0.04144063
  Ewald energy   TEWEN  =       703.30953274
  -Hartree energ DENC   =     -1178.34604536
  -exchange      EXHF   =         0.00000000
  -V(xc)+E(xc)   XCENC  =        54.86374828
  PAW double counting   =      1328.64624092    -1331.51386068
  entropy T*S    EENTRO =         0.00000000
  eigenvalues    EBANDS =      -208.79076092
  atomic energy  EATOM  =       596.16534815
  Solvation  Ediel_sol  =         0.00000000
  ---------------------------------------------------
  free energy    TOTEN  =       -35.62435623 eV

  energy without entropy =      -35.62435623  energy(sigma->0) =      -35.62435623


--------------------------------------------------------------------------------------------------------




----------------------------------------- Iteration   28(   4)  ---------------------------------------


    POTLOK:  cpu time   25.4581: real time   28.3992
    SETDIJ:  cpu time    0.0060: real time    0.0066
     EDDAV:  cpu time   47.9317: real time   52.6080
       DOS:  cpu time    0.0000: real time    0.0002
    CHARGE:  cpu time    6.8120: real time    7.1578
    MIXING:  cpu time    0.8229: real time    1.0056
    --------------------------------------------
      LOOP:  cpu time   81.0337: real time   89.1931

 eigenvalue-minimisations  :    48
 total energy-change (2. order) : 0.1049477E-07  (-0.1302348E-07)
 number of electron      15.9999992 magnetization 
 augmentation part        0.4495721 magnetization 

 Broyden mixing:
  rms(total) = 0.22332E-04    rms(broyden)= 0.22314E-04
  rms(prec ) = 0.23224E-04
  weight for this iteration     100.00

 eigenvalues of (default mixing * dielectric matrix)
  average eigenvalue GAMMA=   1.3504
  2.0901  0.9806  0.9806

 Free energy of the ion-electron system (eV)
  ---------------------------------------------------
  alpha Z        PSCENC =         0.04144063
  Ewald energy   TEWEN  =       703.30953274
  -Hartree energ DENC   =     -1178.34403898
  -exchange      EXHF   =         0.00000000
  -V(xc)+E(xc)   XCENC  =        54.86364179
  PAW double counting   =      1328.61139135    -1331.47897914
  entropy T*S    EENTRO =         0.00000000
  eigenvalues    EBANDS =      -208.79269275
  atomic energy  EATOM  =       596.16534815
  Solvation  Ediel_sol  =         0.00000000
  ---------------------------------------------------
  free energy    TOTEN  =       -35.62435622 eV

  energy without entropy =      -35.62435622  energy(sigma->0) =      -35.62435622


--------------------------------------------------------------------------------------------------------




----------------------------------------- Iteration   28(   5)  ---------------------------------------


    POTLOK:  cpu time   25.0412: real time   25.6486
    SETDIJ:  cpu time    0.0070: real time    0.0066
     EDDAV:  cpu time   47.5258: real time   49.7163
       DOS:  cpu time    0.0000: real time    0.0002
    CHARGE:  cpu time    6.8540: real time    6.9090
    MIXING:  cpu time    1.3568: real time    1.5386
    --------------------------------------------
      LOOP:  cpu time   80.7877: real time   83.8388

 eigenvalue-minimisations  :    48
 total energy-change (2. order) :-0.3518153E-08  (-0.5050509E-08)
 number of electron      15.9999992 magnetization 
 augmentation part        0.4495718 magnetization 

 Broyden mixing:
  rms(total) = 0.18840E-04    rms(broyden)= 0.18833E-04
  rms(prec ) = 0.19373E-04
  weight for this iteration     100.00

 eigenvalues of (default mixing * dielectric matrix)
  average eigenvalue GAMMA=   1.2864
  1.8988  1.2916  1.2916  0.6635

 Free energy of the ion-electron system (eV)
  ---------------------------------------------------
  alpha Z        PSCENC =         0.04144063
  Ewald energy   TEWEN  =       703.30953274
  -Hartree energ DENC   =     -1178.34433717
  -exchange      EXHF   =         0.00000000
  -V(xc)+E(xc)   XCENC  =        54.86365756
  PAW double counting   =      1328.60932647    -1331.47691866
  entropy T*S    EENTRO =         0.00000000
  eigenvalues    EBANDS =      -208.79240594
  atomic energy  EATOM  =       596.16534815
  Solvation  Ediel_sol  =         0.00000000
  ---------------------------------------------------
  free energy    TOTEN  =       -35.62435622 eV

  energy without entropy =      -35.62435622  energy(sigma->0) =      -35.62435622


--------------------------------------------------------------------------------------------------------




----------------------------------------- Iteration   28(   6)  ---------------------------------------


    POTLOK:  cpu time   29.1956: real time   33.1891
    SETDIJ:  cpu time    0.0060: real time    0.0064
     EDDAV:  cpu time   44.6032: real time   50.0620
       DOS:  cpu time    0.0000: real time    0.0002
    --------------------------------------------
      LOOP:  cpu time   73.8058: real time   83.2727

 eigenvalue-minimisations  :    48
 total energy-change (2. order) :-0.5168658E-08  (-0.2834171E-08)
 number of electron      15.9999992 magnetization 
 augmentation part        0.4495718 magnetization 

 Free energy of the ion-electron system (eV)
  ---------------------------------------------------
  alpha Z        PSCENC =         0.04144063
  Ewald energy   TEWEN  =       703.30953274
  -Hartree energ DENC   =     -1178.34455127
  -exchange      EXHF   =         0.00000000
  -V(xc)+E(xc)   XCENC  =        54.86367044
  PAW double counting   =      1328.60835341    -1331.47594915
  entropy T*S    EENTRO =         0.00000000
  eigenvalues    EBANDS =      -208.79220117
  atomic energy  EATOM  =       596.16534815
  Solvation  Ediel_sol  =         0.00000000
  ---------------------------------------------------
  free energy    TOTEN  =       -35.62435622 eV

  energy without entropy =      -35.62435622  energy(sigma->0) =      -35.62435622


--------------------------------------------------------------------------------------------------------




 average (electrostatic) potential at core
  the test charge radii are     0.5201  0.6991  0.7089
  (the norm of the test charge is              1.0000)
       1 -43.0767       2 -43.0772       3 -43.0684       4 -60.5269       5 -59.3551
       6 -74.8250
 
 
 
 E-fermi :  -6.1670     XC(G=0):  -0.0614     alpha+bet : -0.0137


 k-point     1 :       0.2500    0.2500    0.2500
  band No.  band energies     occupation 
      1     -23.9010      2.00000
      2     -19.2774      2.00000
      3     -13.8584      2.00000
      4     -11.8184      2.00000
      5     -11.7817      2.00000
      6      -8.3298      2.00000
      7      -8.2876      2.00000
      8      -7.1420      2.00000
      9      -0.8777      0.00000
     10      -0.6758      0.00000
     11      -0.5960      0.00000
     12       0.0230      0.00000

 k-point     2 :      -0.2500    0.2500    0.2500
  band No.  band energies     occupation 
      1     -23.9010      2.00000
      2     -19.2774      2.00000
      3     -13.8584      2.00000
      4     -11.8184      2.00000
      5     -11.7817      2.00000
      6      -8.3297      2.00000
      7      -8.2876      2.00000
      8      -7.1420      2.00000
      9      -0.8777      0.00000
     10      -0.6758      0.00000
     11      -0.5960      0.00000
     12       0.0240      0.00000

 k-point     3 :       0.2500   -0.2500    0.2500
  band No.  band energies     occupation 
      1     -23.9010      2.00000
      2     -19.2774      2.00000
      3     -13.8584      2.00000
      4     -11.8184      2.00000
      5     -11.7817      2.00000
      6      -8.3298      2.00000
      7      -8.2876      2.00000
      8      -7.1420      2.00000
      9      -0.8777      0.00000
     10      -0.6758      0.00000
     11      -0.5960      0.00000
     12       0.0235      0.00000

 k-point     4 :      -0.2500   -0.2500    0.2500
  band No.  band energies     occupation 
      1     -23.9010      2.00000
      2     -19.2774      2.00000
      3     -13.8584      2.00000
      4     -11.8184      2.00000
      5     -11.7817      2.00000
      6      -8.3298      2.00000
      7      -8.2876      2.00000
      8      -7.1420      2.00000
      9      -0.8777      0.00000
     10      -0.6758      0.00000
     11      -0.5960      0.00000
     12       0.0236      0.00000


--------------------------------------------------------------------------------------------------------


 soft charge-density along one line, spin component           1
         0         1         2         3         4         5         6         7         8         9
 total charge-density along one line
 
 pseudopotential strength for first ion, spin component:           1
 -2.362  -4.075  -0.002   0.000  -0.001
 -4.075  -6.942  -0.005   0.001  -0.002
 -0.002  -0.005  -0.330  -0.001   0.002
  0.000   0.001  -0.001  -0.334   0.000
 -0.001  -0.002   0.002   0.000  -0.333
 total augmentation occupancy for first ion, spin component:           1
  3.522  -0.634   0.399  -0.094   0.173
 -0.634   0.131  -0.074   0.017  -0.032
  0.399  -0.074   0.047  -0.009   0.017
 -0.094   0.017  -0.009   0.011  -0.004
  0.173  -0.032   0.017  -0.004   0.013


------------------------ aborting loop because EDIFF is reached ----------------------------------------


    CHARGE:  cpu time    6.2590: real time    7.1418
    FORLOC:  cpu time    2.6156: real time    2.9011
    FORNL :  cpu time   19.2131: real time   20.1690
    STRESS:  cpu time   60.3638: real time   67.8384
    FORCOR:  cpu time   20.3029: real time   21.2819
    FORHAR:  cpu time    6.9479: real time    8.0755
    MIXING:  cpu time    0.7599: real time    0.7989
    OFIELD:  cpu time    0.0000: real time    0.0000

  FORCE on cell =-STRESS in cart. coord.  units (eV):
  Direction    XX          YY          ZZ          XY          YZ          ZX
  --------------------------------------------------------------------------------------
  Alpha Z     0.04144     0.04144     0.04144
  Ewald     608.69619    49.88673    44.72628   -72.29728     6.62291   -46.14033
  Hartree   590.68581   295.08889   292.56959   -34.74185     2.69868   -20.50968
  E(xc)     -58.81618   -60.16798   -60.18240    -0.20379     0.02207    -0.14399
  Local   -1339.26945  -519.00650  -511.68421   101.65642    -8.62036    62.75046
  n-local   -26.49036   -24.48543   -24.44088     0.65022    -0.08389     0.60323
  augment     0.47528     0.98788     0.99104     0.06868    -0.00670     0.04359
  Kinetic   224.05352   256.62682   256.96441     4.96383    -0.65527     3.52740
  Fock        0.00000     0.00000     0.00000     0.00000     0.00000     0.00000
  -------------------------------------------------------------------------------------
  Total      -0.62375    -1.02815    -1.01473     0.09622    -0.02255     0.13068
  in kB      -0.03701    -0.06101    -0.06021     0.00571    -0.00134     0.00775
  external pressure =       -0.05 kB  Pullay stress =        0.00 kB


 VOLUME and BASIS-vectors are now :
 -----------------------------------------------------------------------------
  energy-cutoff  :      400.00
  volume of cell :    27000.00
      direct lattice vectors                 reciprocal lattice vectors
    30.000000000  0.000000000  0.000000000     0.033333333  0.000000000  0.000000000
     0.000000000 30.000000000  0.000000000     0.000000000  0.033333333  0.000000000
     0.000000000  0.000000000 30.000000000     0.000000000  0.000000000  0.033333333

  length of vectors
    30.000000000 30.000000000 30.000000000     0.033333333  0.033333333  0.033333333


 FORCES acting on ions
    electron-ion (+dipol)            ewald-force                    non-local-force                 convergence-correction
 -----------------------------------------------------------------------------------------------
   0.375E+02 0.540E+02 -.136E+02   -.397E+02 -.591E+02 0.148E+02   0.221E+01 0.510E+01 -.120E+01   0.280E-04 0.220E-04 -.447E-05
   0.333E+02 -.191E+02 0.550E+02   -.352E+02 0.208E+02 -.602E+02   0.182E+01 -.165E+01 0.513E+01   0.252E-04 -.118E-04 0.217E-04
   0.318E+02 -.412E+02 -.420E+02   -.336E+02 0.449E+02 0.459E+02   0.185E+01 -.373E+01 -.386E+01   0.212E-04 -.163E-04 -.198E-04
   0.121E+03 -.114E+02 -.529E+01   -.128E+03 0.119E+02 0.536E+01   0.757E+01 -.514E+00 -.103E+00   0.740E-04 -.127E-04 -.867E-05
   -.226E+03 0.371E+02 0.279E+02   0.252E+03 -.419E+02 -.318E+02   -.257E+02 0.495E+01 0.401E+01   -.301E-04 0.284E-04 0.189E-04
   0.121E+02 -.208E+02 -.231E+02   -.148E+02 0.233E+02 0.258E+02   0.264E+01 -.259E+01 -.281E+01   -.146E-03 0.430E-04 0.283E-04
 -----------------------------------------------------------------------------------------------
   0.964E+01 -.156E+01 -.117E+01   0.000E+00 0.000E+00 -.107E-13   -.965E+01 0.157E+01 0.117E+01   -.282E-04 0.526E-04 0.359E-04
 
 
 POSITION                                       TOTAL-FORCE (eV/Angst)
 -----------------------------------------------------------------------------------
     14.08965     14.06562     15.26362        -0.081113      0.011163      0.005415
     14.16443     15.37129     14.03864        -0.091064      0.007438      0.006323
     14.16608     15.77723     15.78189         0.115517     -0.004735      0.005478
     14.51218     15.05264     15.03073        -0.001850     -0.027341     -0.031855
     17.07634     14.74481     14.84398         0.084070      0.093722      0.113477
     15.92545     14.95163     15.00656        -0.025560     -0.080247     -0.098839
 -----------------------------------------------------------------------------------
    total drift:                               -0.009019      0.009489     -0.004799


--------------------------------------------------------------------------------------------------------



  FREE ENERGIE OF THE ION-ELECTRON SYSTEM (eV)
  ---------------------------------------------------
  free  energy   TOTEN  =       -35.62435622 eV

  energy  without entropy=      -35.62435622  energy(sigma->0) =      -35.62435622
 
 d Force = 0.5895370E-05[ 0.533E-05, 0.646E-05]  d Energy = 0.5795451E-05 0.999E-07
 d Force = 0.1038180E-01[ 0.104E-01, 0.104E-01]  d Ewald  = 0.1038180E-01 0.836E-10


--------------------------------------------------------------------------------------------------------


    POTLOK:  cpu time   19.7370: real time   22.2834


--------------------------------------------------------------------------------------------------------


 NEB: the previous image is higher in energy: F
 NEB: the next image is higher in energy    : T
 NEB: only next energy greater

 NEB: Tangent
 ----------------------------------------------
      0.25812     -0.02658     -0.06996
      0.32665      0.06152      0.01836
     -0.34481     -0.03051      0.03473
      0.03815      0.09774      0.11736
     -0.27516     -0.41081     -0.46792
      0.06460      0.26948      0.36182

 NEB: forces: par spring, perp REAL, dneb     0.009420    0.051819    0.000000
 NEB: distance to prev, next image, angle between     0.190916    0.192801  137.830052
 NEB: projections on to tangent (spring, REAL)     0.009420   -0.270535

 stress matrix after NEB project (eV)
     -0.62375      0.09622      0.13068
      0.09622     -1.02815     -0.02255
      0.13068     -0.02255     -1.01473
  FORCES: max atom, RMS     0.028452    0.021502
  FORCE total and by dimension    0.052668    0.024660
  Stress total and by dimension    1.590449    1.028149
 OPT: skip step - force has converged


--------------------------------------------------------------------------------------------------------


  
 reached required accuracy - stopping structural energy minimisation
     LOOP+:  cpu time  663.6491: real time  741.2503
    4ORBIT:  cpu time    0.0000: real time    0.0000

 total amount of memory used by VASP on root node  3203887. kBytes
========================================================================

   base      :      30000. kBytes
   nonlr-proj:        691. kBytes
   fftplans  :     924480. kBytes
   grid      :    1872000. kBytes
   one-center:         18. kBytes
   wavefun   :     376698. kBytes
 
  
  
 General timing and accounting informations for this job:
 ========================================================
  
                  Total CPU time used (sec):    22458.316
                            User time (sec):    22159.675
                          System time (sec):      298.642
                         Elapsed time (sec):    22606.009
  
                   Maximum memory used (kb):     4761436.
                   Average memory used (kb):           0.
  
                          Minor page faults:      2976386
                          Major page faults:            1
                 Voluntary context switches:         3989
