 vasp.5.4.1 24Jun15 (build Jan 13 2020 12:58:22) complex                        
  
 POSCAR found type information on POSCAR  H  C  N 
 02/POSCAR found :  3 types and       6 ions
 scaLAPACK will be used

 ----------------------------------------------------------------------------- 
|                                                                             |
|  ADVICE TO THIS USER RUNNING 'VASP/VAMP'   (HEAR YOUR MASTER'S VOICE ...):  |
|                                                                             |
|      You have a (more or less) 'small supercell' and for smaller cells      |
|      it is recommended  to use the reciprocal-space projection scheme!      |
|      The real space optimization is not  efficient for small cells and it   |
|      is also less accurate ...                                              |
|      Therefore set LREAL=.FALSE. in the  INCAR file                         |
|                                                                             |
 ----------------------------------------------------------------------------- 

 LDA part: xc-table for Pade appr. of Perdew
 POSCAR found type information on POSCAR  H  C  N 
 00/POSCAR found :  3 types and       6 ions
 POSCAR found type information on POSCAR  H  C  N 
 16/POSCAR found :  3 types and       6 ions
 Jacobian:    40.4401846379183     
 POSCAR, INCAR and KPOINTS ok, starting setup
 WARNING: small aliasing (wrap around) errors must be expected
 FFT: planning ...
 WAVECAR not read
 entering main loop
       N       E                     dE             d eps       ncg     rms          rms(c)
DAV:   1     0.113949466069E+03    0.11395E+03   -0.21368E+03   160   0.366E+02
DAV:   2    -0.253415808803E+01   -0.11648E+03   -0.11436E+03   192   0.109E+02
DAV:   3    -0.346591092040E+02   -0.32125E+02   -0.32028E+02   136   0.865E+01
DAV:   4    -0.389378363609E+02   -0.42787E+01   -0.42232E+01   128   0.302E+01
DAV:   5    -0.390756494542E+02   -0.13781E+00   -0.13669E+00   108   0.590E+00    0.104E+01
DAV:   6    -0.363854113254E+02    0.26902E+01   -0.43991E+00   112   0.147E+01    0.563E+00
DAV:   7    -0.356857851145E+02    0.69963E+00   -0.18382E+00   120   0.933E+00    0.225E+00
DAV:   8    -0.356160272745E+02    0.69758E-01   -0.14400E-01   128   0.292E+00    0.896E-01
DAV:   9    -0.355972701738E+02    0.18757E-01   -0.23474E-02   128   0.127E+00    0.219E-01
DAV:  10    -0.355970240708E+02    0.24610E-03   -0.43130E-03   128   0.506E-01    0.132E-01
DAV:  11    -0.355986161309E+02   -0.15921E-02   -0.15672E-03   128   0.324E-01    0.823E-02
DAV:  12    -0.356043282179E+02   -0.57121E-02   -0.32568E-03   112   0.438E-01    0.466E-02
DAV:  13    -0.356104735274E+02   -0.61453E-02   -0.16970E-03   128   0.256E-01    0.293E-02
DAV:  14    -0.356140648725E+02   -0.35913E-02   -0.42437E-04   128   0.114E-01    0.191E-02
DAV:  15    -0.356174303470E+02   -0.33655E-02   -0.35796E-04   128   0.899E-02    0.129E-02
DAV:  16    -0.356187029505E+02   -0.12726E-02   -0.12226E-04   128   0.564E-02    0.703E-03
DAV:  17    -0.356194146830E+02   -0.71173E-03   -0.21772E-05    80   0.359E-02    0.412E-03
DAV:  18    -0.356199102300E+02   -0.49555E-03   -0.33069E-05    88   0.266E-02    0.270E-03
DAV:  19    -0.356201272438E+02   -0.21701E-03   -0.10899E-05    72   0.208E-02    0.206E-03
DAV:  20    -0.356201944381E+02   -0.67194E-04   -0.32778E-06    84   0.117E-02
   1 F= -.35620194E+02 E0= -.35620194E+02  d E =-.356202E+02
damped:  g(F)=  0.000E+00 g(S)=  0.000E+00 dE (1.order)= 0.000E+00
 bond charge predicted
       N       E                     dE             d eps       ncg     rms          rms(c)
DAV:   1    -0.356201154928E+02    0.11751E-04   -0.22563E-03   104   0.465E-01    0.186E-02
DAV:   2    -0.356201220906E+02   -0.65978E-05   -0.54681E-05    96   0.669E-02    0.955E-03
DAV:   3    -0.356201284937E+02   -0.64031E-05   -0.98330E-06    80   0.304E-02    0.504E-03
DAV:   4    -0.356201379993E+02   -0.95056E-05   -0.50973E-06    64   0.216E-02    0.176E-03
DAV:   5    -0.356201422762E+02   -0.42769E-05   -0.94063E-07    92   0.100E-02    0.103E-03
DAV:   6    -0.356201458740E+02   -0.35978E-05   -0.26261E-07    64   0.487E-03
   2 F= -.35620146E+02 E0= -.35620146E+02  d E =0.485641E-04
damped:  g(F)=  0.000E+00 g(S)=  0.000E+00 dE (1.order)= 0.000E+00
 bond charge predicted
       N       E                     dE             d eps       ncg     rms          rms(c)
DAV:   1    -0.356201362824E+02    0.59938E-05   -0.18121E-04    64   0.132E-01    0.530E-03
DAV:   2    -0.356201381191E+02   -0.18366E-05   -0.10570E-05    56   0.322E-02    0.305E-03
DAV:   3    -0.356201391784E+02   -0.10593E-05   -0.11053E-06    60   0.103E-02    0.204E-03
DAV:   4    -0.356201411266E+02   -0.19482E-05   -0.73374E-07    64   0.915E-03    0.618E-04
DAV:   5    -0.356201417512E+02   -0.62462E-06   -0.19152E-07    48   0.429E-03    0.478E-04
DAV:   6    -0.356201423324E+02   -0.58116E-06   -0.45363E-08    64   0.190E-03
   3 F= -.35620142E+02 E0= -.35620142E+02  d E =0.354167E-05
damped:  g(F)=  0.000E+00 g(S)=  0.000E+00 dE (1.order)= 0.000E+00
 bond charge predicted
       N       E                     dE             d eps       ncg     rms          rms(c)
DAV:   1    -0.356201087745E+02    0.32977E-04   -0.41063E-04   104   0.194E-01    0.855E-03
DAV:   2    -0.356201082262E+02    0.54830E-06   -0.93810E-06    52   0.276E-02    0.448E-03
DAV:   3    -0.356201081892E+02    0.37017E-07   -0.20383E-06    48   0.142E-02    0.223E-03
DAV:   4    -0.356201086085E+02   -0.41936E-06   -0.11765E-06    64   0.998E-03    0.845E-04
DAV:   5    -0.356201088630E+02   -0.25449E-06   -0.21972E-07    48   0.479E-03    0.422E-04
DAV:   6    -0.356201090947E+02   -0.23173E-06   -0.65492E-08    48   0.201E-03
   4 F= -.35620109E+02 E0= -.35620109E+02  d E =0.332376E-04
damped:  g(F)=  0.000E+00 g(S)=  0.000E+00 dE (1.order)= 0.000E+00
 bond charge predicted
       N       E                     dE             d eps       ncg     rms          rms(c)
DAV:   1    -0.356200654913E+02    0.43372E-04   -0.29226E-04    96   0.162E-01    0.543E-03
DAV:   2    -0.356200652340E+02    0.25729E-06   -0.45955E-06    48   0.185E-02    0.329E-03
DAV:   3    -0.356200651977E+02    0.36294E-07   -0.88048E-07    48   0.907E-03    0.158E-03
DAV:   4    -0.356200653517E+02   -0.15400E-06   -0.43538E-07    48   0.587E-03    0.565E-04
DAV:   5    -0.356200654650E+02   -0.11330E-06   -0.93494E-08    48   0.271E-03    0.254E-04
DAV:   6    -0.356200655702E+02   -0.10512E-06   -0.36475E-08    48   0.110E-03
   5 F= -.35620066E+02 E0= -.35620066E+02  d E =0.435246E-04
damped:  g(F)=  0.000E+00 g(S)=  0.000E+00 dE (1.order)= 0.000E+00
 bond charge predicted
       N       E                     dE             d eps       ncg     rms          rms(c)
DAV:   1    -0.356200447403E+02    0.20725E-04   -0.28756E-04    96   0.163E-01    0.466E-03
DAV:   2    -0.356200447236E+02    0.16618E-07   -0.32118E-06    48   0.162E-02    0.265E-03
DAV:   3    -0.356200448469E+02   -0.12321E-06   -0.60422E-07    60   0.692E-03    0.896E-04
DAV:   4    -0.356200449425E+02   -0.95674E-07   -0.14749E-07    48   0.329E-03    0.315E-04
DAV:   5    -0.356200450091E+02   -0.66603E-07   -0.50638E-08    96   0.149E-03    0.141E-04
DAV:   6    -0.356200450715E+02   -0.62347E-07   -0.33218E-08    48   0.845E-04
   6 F= -.35620045E+02 E0= -.35620045E+02  d E =0.204987E-04
damped:  g(F)=  0.000E+00 g(S)=  0.000E+00 dE (1.order)= 0.000E+00
 bond charge predicted
       N       E                     dE             d eps       ncg     rms          rms(c)
DAV:   1    -0.356200545055E+02   -0.94963E-05   -0.53686E-04    96   0.225E-01    0.810E-03
DAV:   2    -0.356200543582E+02    0.14724E-06   -0.10231E-05    68   0.288E-02    0.420E-03
DAV:   3    -0.356200543146E+02    0.43638E-07   -0.17756E-06    88   0.127E-02    0.204E-03
DAV:   4    -0.356200544052E+02   -0.90591E-07   -0.71333E-07    72   0.804E-03    0.664E-04
DAV:   5    -0.356200544194E+02   -0.14243E-07   -0.15642E-07    48   0.359E-03    0.359E-04
DAV:   6    -0.356200544343E+02   -0.14895E-07   -0.60571E-08    48   0.187E-03
   7 F= -.35620054E+02 E0= -.35620054E+02  d E =-.936284E-05
damped:  g(F)=  0.000E+00 g(S)=  0.000E+00 dE (1.order)= 0.000E+00
 bond charge predicted
       N       E                     dE             d eps       ncg     rms          rms(c)
DAV:   1    -0.356200950443E+02   -0.40625E-04   -0.61549E-04    96   0.239E-01    0.848E-03
DAV:   2    -0.356200948329E+02    0.21139E-06   -0.10436E-05    64   0.297E-02    0.440E-03
DAV:   3    -0.356200948150E+02    0.17858E-07   -0.18095E-06    48   0.129E-02    0.207E-03
DAV:   4    -0.356200948953E+02   -0.80265E-07   -0.68119E-07    64   0.786E-03    0.647E-04
DAV:   5    -0.356200949076E+02   -0.12326E-07   -0.15529E-07    48   0.351E-03    0.327E-04
DAV:   6    -0.356200949296E+02   -0.22013E-07   -0.60940E-08    48   0.184E-03
   8 F= -.35620095E+02 E0= -.35620095E+02  d E =-.404953E-04
damped:  g(F)=  0.000E+00 g(S)=  0.000E+00 dE (1.order)= 0.000E+00
 bond charge predicted
       N       E                     dE             d eps       ncg     rms          rms(c)
DAV:   1    -0.356201921448E+02   -0.97237E-04   -0.71853E-04    96   0.254E-01    0.757E-03
DAV:   2    -0.356201921523E+02   -0.74683E-08   -0.69446E-06    48   0.250E-02    0.441E-03
DAV:   3    -0.356201924702E+02   -0.31793E-06   -0.13887E-06    56   0.107E-02    0.117E-03
DAV:   4    -0.356201925503E+02   -0.80130E-07   -0.34974E-07    48   0.514E-03    0.410E-04
DAV:   5    -0.356201925873E+02   -0.37000E-07   -0.11940E-07    48   0.271E-03    0.233E-04
DAV:   6    -0.356201926361E+02   -0.48795E-07   -0.56892E-08    48   0.155E-03
   9 F= -.35620193E+02 E0= -.35620193E+02  d E =-.977065E-04
damped:  g(F)=  0.000E+00 g(S)=  0.000E+00 dE (1.order)= 0.000E+00
 bond charge predicted
       N       E                     dE             d eps       ncg     rms          rms(c)
DAV:   1    -0.356203600045E+02   -0.16742E-03   -0.14586E-03    96   0.360E-01    0.110E-02
DAV:   2    -0.356203596342E+02    0.37030E-06   -0.15289E-05    80   0.366E-02    0.676E-03
DAV:   3    -0.356203599886E+02   -0.35441E-06   -0.47945E-06    96   0.207E-02    0.204E-03
DAV:   4    -0.356203601467E+02   -0.15815E-06   -0.12118E-06    48   0.996E-03    0.123E-03
DAV:   5    -0.356203601881E+02   -0.41374E-07   -0.24180E-07    48   0.472E-03    0.577E-04
DAV:   6    -0.356203602478E+02   -0.59725E-07   -0.15023E-07    48   0.319E-03
  10 F= -.35620360E+02 E0= -.35620360E+02  d E =-.167612E-03
damped:  g(F)=  0.000E+00 g(S)=  0.000E+00 dE (1.order)= 0.000E+00
 bond charge predicted
       N       E                     dE             d eps       ncg     rms          rms(c)
DAV:   1    -0.356205802297E+02   -0.22004E-03   -0.29773E-03    96   0.511E-01    0.141E-02
DAV:   2    -0.356205804817E+02   -0.25206E-06   -0.29910E-05    76   0.503E-02    0.871E-03
DAV:   3    -0.356205812840E+02   -0.80233E-06   -0.75816E-06    68   0.260E-02    0.239E-03
DAV:   4    -0.356205815258E+02   -0.24177E-06   -0.20011E-06    48   0.125E-02    0.147E-03
DAV:   5    -0.356205815817E+02   -0.55918E-07   -0.43875E-07    48   0.610E-03    0.775E-04
DAV:   6    -0.356205816818E+02   -0.10002E-06   -0.27001E-07    64   0.436E-03
  11 F= -.35620582E+02 E0= -.35620582E+02  d E =-.221434E-03
damped:  g(F)=  0.000E+00 g(S)=  0.000E+00 dE (1.order)= 0.000E+00
 bond charge predicted
       N       E                     dE             d eps       ncg     rms          rms(c)
DAV:   1    -0.356208371899E+02   -0.25561E-03   -0.63597E-03    96   0.737E-01    0.192E-02
DAV:   2    -0.356208392686E+02   -0.20788E-05   -0.63365E-05    64   0.724E-02    0.114E-02
DAV:   3    -0.356208407735E+02   -0.15049E-05   -0.10483E-05    80   0.299E-02    0.371E-03
DAV:   4    -0.356208412941E+02   -0.52063E-06   -0.28998E-06    48   0.147E-02    0.113E-03
DAV:   5    -0.356208414179E+02   -0.12377E-06   -0.83794E-07    64   0.754E-03    0.540E-04
DAV:   6    -0.356208415050E+02   -0.87048E-07   -0.29240E-07    48   0.406E-03
  12 F= -.35620842E+02 E0= -.35620842E+02  d E =-.259823E-03
damped:  g(F)=  0.000E+00 g(S)=  0.000E+00 dE (1.order)= 0.000E+00
 bond charge predicted
       N       E                     dE             d eps       ncg     rms          rms(c)
DAV:   1    -0.356210765379E+02   -0.23512E-03   -0.13934E-02    96   0.109E+00    0.281E-02
DAV:   2    -0.356210826935E+02   -0.61556E-05   -0.17024E-04    96   0.109E-01    0.173E-02
DAV:   3    -0.356210825235E+02    0.17002E-06   -0.73197E-06    96   0.295E-02    0.720E-03
DAV:   4    -0.356210836500E+02   -0.11265E-05   -0.47733E-06    64   0.201E-02    0.213E-03
DAV:   5    -0.356210836974E+02   -0.47414E-07   -0.10006E-06    48   0.100E-02    0.964E-04
DAV:   6    -0.356210838259E+02   -0.12845E-06   -0.23231E-07    48   0.412E-03
  13 F= -.35621084E+02 E0= -.35621084E+02  d E =-.242321E-03
damped:  g(F)=  0.000E+00 g(S)=  0.000E+00 dE (1.order)= 0.000E+00
 bond charge predicted
       N       E                     dE             d eps       ncg     rms          rms(c)
DAV:   1    -0.356213548294E+02   -0.27113E-03   -0.25391E-02    96   0.146E+00    0.360E-02
DAV:   2    -0.356213675365E+02   -0.12707E-04   -0.29852E-04   104   0.143E-01    0.230E-02
DAV:   3    -0.356213689045E+02   -0.13681E-05   -0.14793E-05    96   0.397E-02    0.856E-03
DAV:   4    -0.356213708783E+02   -0.19738E-05   -0.51800E-06    64   0.204E-02    0.277E-03
DAV:   5    -0.356213711960E+02   -0.31764E-06   -0.10696E-06    52   0.981E-03    0.121E-03
DAV:   6    -0.356213715261E+02   -0.33007E-06   -0.36640E-07    60   0.514E-03
  14 F= -.35621372E+02 E0= -.35621372E+02  d E =-.287700E-03
damped:  g(F)=  0.000E+00 g(S)=  0.000E+00 dE (1.order)= 0.000E+00
 bond charge predicted
       N       E                     dE             d eps       ncg     rms          rms(c)
DAV:   1    -0.356216865188E+02   -0.31532E-03   -0.45267E-02    96   0.194E+00    0.461E-02
DAV:   2    -0.356217120158E+02   -0.25497E-04   -0.52031E-04   112   0.188E-01    0.293E-02
DAV:   3    -0.356217142230E+02   -0.22072E-05   -0.19228E-05    76   0.461E-02    0.108E-02
DAV:   4    -0.356217173815E+02   -0.31586E-05   -0.86197E-06    64   0.254E-02    0.321E-03
DAV:   5    -0.356217179456E+02   -0.56411E-06   -0.18590E-06    48   0.124E-02    0.120E-03
DAV:   6    -0.356217183545E+02   -0.40886E-06   -0.38968E-07    48   0.514E-03
  15 F= -.35621718E+02 E0= -.35621718E+02  d E =-.346828E-03
damped:  g(F)=  0.000E+00 g(S)=  0.000E+00 dE (1.order)= 0.000E+00
 bond charge predicted
       N       E                     dE             d eps       ncg     rms          rms(c)
DAV:   1    -0.356221480311E+02   -0.43009E-03   -0.77489E-02    96   0.255E+00    0.609E-02
DAV:   2    -0.356221896666E+02   -0.41636E-04   -0.92258E-04    96   0.251E-01    0.380E-02
DAV:   3    -0.356221878701E+02    0.17966E-05   -0.35235E-05    96   0.644E-02    0.161E-02
DAV:   4    -0.356221938980E+02   -0.60279E-05   -0.23975E-05    64   0.450E-02    0.466E-03
DAV:   5    -0.356221945119E+02   -0.61394E-06   -0.52359E-06    64   0.226E-02    0.220E-03
DAV:   6    -0.356221951892E+02   -0.67725E-06   -0.10869E-06    48   0.912E-03
  16 F= -.35622195E+02 E0= -.35622195E+02  d E =-.476835E-03
damped:  g(F)=  0.000E+00 g(S)=  0.000E+00 dE (1.order)= 0.000E+00
 bond charge predicted
       N       E                     dE             d eps       ncg     rms          rms(c)
DAV:   1    -0.356227724500E+02   -0.57794E-03   -0.11522E-01    96   0.313E+00    0.764E-02
DAV:   2    -0.356228272171E+02   -0.54767E-04   -0.14414E-03    96   0.315E-01    0.500E-02
DAV:   3    -0.356228225569E+02    0.46602E-05   -0.97618E-05    96   0.101E-01    0.206E-02
DAV:   4    -0.356228319789E+02   -0.94219E-05   -0.31259E-05    64   0.541E-02    0.697E-03
DAV:   5    -0.356228332812E+02   -0.13023E-05   -0.65134E-06    92   0.249E-02    0.349E-03
DAV:   6    -0.356228347551E+02   -0.14739E-05   -0.27584E-06    64   0.153E-02
  17 F= -.35622835E+02 E0= -.35622835E+02  d E =-.639566E-03
damped:  g(F)=  0.000E+00 g(S)=  0.000E+00 dE (1.order)= 0.000E+00
 bond charge predicted
       N       E                     dE             d eps       ncg     rms          rms(c)
DAV:   1    -0.356234091104E+02   -0.57583E-03   -0.21112E-01    96   0.433E+00    0.128E-01
DAV:   2    -0.356234118248E+02   -0.27144E-05   -0.34536E-03    96   0.504E-01    0.737E-02
DAV:   3    -0.356233502879E+02    0.61537E-04   -0.28278E-04   128   0.165E-01    0.392E-02
DAV:   4    -0.356233551146E+02   -0.48266E-05   -0.11047E-04    88   0.109E-01    0.110E-02
DAV:   5    -0.356233552793E+02   -0.16478E-06   -0.18141E-05    96   0.439E-02    0.546E-03
DAV:   6    -0.356233563829E+02   -0.11036E-05   -0.38445E-06    64   0.190E-02
  18 F= -.35623356E+02 E0= -.35623356E+02  d E =-.521628E-03
damped:  g(F)=  0.000E+00 g(S)=  0.000E+00 dE (1.order)= 0.000E+00
 bond charge predicted
       N       E                     dE             d eps       ncg     rms          rms(c)
DAV:   1    -0.356241276021E+02   -0.77232E-03   -0.23727E-02    96   0.146E+00    0.804E-02
DAV:   2    -0.356240752730E+02    0.52329E-04   -0.63156E-04   104   0.230E-01    0.365E-02
DAV:   3    -0.356240514991E+02    0.23774E-04   -0.89899E-05    96   0.992E-02    0.177E-02
DAV:   4    -0.356240546937E+02   -0.31946E-05   -0.63230E-05    64   0.787E-02    0.623E-03
DAV:   5    -0.356240562825E+02   -0.15889E-05   -0.11072E-05    96   0.327E-02    0.332E-03
DAV:   6    -0.356240571669E+02   -0.88441E-06   -0.20774E-06    64   0.146E-02
  19 F= -.35624057E+02 E0= -.35624057E+02  d E =-.700784E-03
damped:  g(F)=  0.000E+00 g(S)=  0.000E+00 dE (1.order)= 0.000E+00
 bond charge predicted
       N       E                     dE             d eps       ncg     rms          rms(c)
DAV:   1    -0.356238139144E+02    0.24237E-03   -0.20878E-02    96   0.137E+00    0.730E-02
DAV:   2    -0.356237670283E+02    0.46886E-04   -0.57786E-04   112   0.217E-01    0.338E-02
DAV:   3    -0.356237444067E+02    0.22622E-04   -0.76261E-05    96   0.912E-02    0.164E-02
DAV:   4    -0.356237437042E+02    0.70244E-06   -0.56647E-05    80   0.742E-02    0.595E-03
DAV:   5    -0.356237440021E+02   -0.29789E-06   -0.98807E-06    96   0.317E-02    0.325E-03
DAV:   6    -0.356237445222E+02   -0.52016E-06   -0.20246E-06    64   0.138E-02
  20 F= -.35623745E+02 E0= -.35623745E+02  d E =0.312645E-03
damped:  g(F)=  0.000E+00 g(S)=  0.000E+00 dE (1.order)= 0.000E+00
 bond charge predicted
       N       E                     dE             d eps       ncg     rms          rms(c)
DAV:   1    -0.356239705860E+02   -0.22658E-03   -0.11516E-03    96   0.323E-01    0.173E-02
DAV:   2    -0.356239686560E+02    0.19300E-05   -0.25904E-05    80   0.507E-02    0.792E-03
DAV:   3    -0.356239686442E+02    0.11811E-07   -0.75110E-06    64   0.275E-02    0.347E-03
DAV:   4    -0.356239697048E+02   -0.10606E-05   -0.34025E-06    96   0.174E-02    0.123E-03
DAV:   5    -0.356239703336E+02   -0.62876E-06   -0.65611E-07    64   0.783E-03    0.567E-04
DAV:   6    -0.356239707930E+02   -0.45942E-06   -0.13361E-07    48   0.350E-03
  21 F= -.35623971E+02 E0= -.35623971E+02  d E =-.226271E-03
damped:  g(F)=  0.000E+00 g(S)=  0.000E+00 dE (1.order)= 0.000E+00
 bond charge predicted
       N       E                     dE             d eps       ncg     rms          rms(c)
DAV:   1    -0.356242413105E+02   -0.27098E-03   -0.35876E-03    96   0.570E-01    0.306E-02
DAV:   2    -0.356242320863E+02    0.92242E-05   -0.81932E-05    64   0.894E-02    0.139E-02
DAV:   3    -0.356242297470E+02    0.23393E-05   -0.23345E-05    96   0.485E-02    0.609E-03
DAV:   4    -0.356242303849E+02   -0.63785E-06   -0.10539E-05    64   0.308E-02    0.215E-03
DAV:   5    -0.356242306241E+02   -0.23928E-06   -0.19909E-06    96   0.137E-02    0.103E-03
DAV:   6    -0.356242307263E+02   -0.10214E-06   -0.34200E-07    64   0.595E-03
  22 F= -.35624231E+02 E0= -.35624231E+02  d E =-.259933E-03
damped:  g(F)=  0.000E+00 g(S)=  0.000E+00 dE (1.order)= 0.000E+00
 bond charge predicted
       N       E                     dE             d eps       ncg     rms          rms(c)
DAV:   1    -0.356243404462E+02   -0.10982E-03   -0.51228E-03    96   0.682E-01    0.361E-02
DAV:   2    -0.356243259696E+02    0.14477E-04   -0.11775E-04    80   0.107E-01    0.166E-02
DAV:   3    -0.356243220512E+02    0.39184E-05   -0.33731E-05    80   0.580E-02    0.718E-03
DAV:   4    -0.356243223978E+02   -0.34663E-06   -0.14894E-05    64   0.366E-02    0.255E-03
DAV:   5    -0.356243224378E+02   -0.39980E-07   -0.28030E-06    48   0.162E-02    0.124E-03
DAV:   6    -0.356243224307E+02    0.70453E-08   -0.48227E-07    80   0.709E-03
  23 F= -.35624322E+02 E0= -.35624322E+02  d E =-.917045E-04
damped:  g(F)=  0.000E+00 g(S)=  0.000E+00 dE (1.order)= 0.000E+00
 bond charge predicted
       N       E                     dE             d eps       ncg     rms          rms(c)
DAV:   1    -0.356243262551E+02   -0.38173E-05   -0.17415E-06    48   0.131E-02    0.688E-04
DAV:   2    -0.356243264539E+02   -0.19880E-06   -0.13947E-07    48   0.348E-03    0.430E-04
DAV:   3    -0.356243267717E+02   -0.31776E-06   -0.35321E-08    48   0.134E-03    0.221E-04
DAV:   4    -0.356243272484E+02   -0.47675E-06   -0.29916E-08    64   0.846E-04    0.739E-05
DAV:   5    -0.356243274534E+02   -0.20499E-06   -0.17908E-08    48   0.491E-04    0.549E-05
DAV:   6    -0.356243278691E+02   -0.41571E-06   -0.26056E-08    68   0.484E-04
  24 F= -.35624328E+02 E0= -.35624328E+02  d E =-.543838E-05
damped:  g(F)=  0.000E+00 g(S)=  0.000E+00 dE (1.order)= 0.000E+00
 bond charge predicted
       N       E                     dE             d eps       ncg     rms          rms(c)
DAV:   1    -0.356243345945E+02   -0.71411E-05   -0.65934E-06    80   0.250E-02    0.108E-03
DAV:   2    -0.356243346792E+02   -0.84673E-07   -0.41536E-07    48   0.629E-03    0.595E-04
DAV:   3    -0.356243347408E+02   -0.61556E-07   -0.60895E-08    48   0.210E-03    0.376E-04
DAV:   4    -0.356243348625E+02   -0.12172E-06   -0.47962E-08    68   0.187E-03    0.121E-04
DAV:   5    -0.356243348972E+02   -0.34711E-07   -0.23999E-08    48   0.892E-04    0.983E-05
DAV:   6    -0.356243349368E+02   -0.39613E-07   -0.18091E-08    48   0.410E-04
  25 F= -.35624335E+02 E0= -.35624335E+02  d E =-.706770E-05
damped:  g(F)=  0.000E+00 g(S)=  0.000E+00 dE (1.order)= 0.000E+00
 bond charge predicted
       N       E                     dE             d eps       ncg     rms          rms(c)
DAV:   1    -0.356243427749E+02   -0.78777E-05   -0.13165E-05    48   0.354E-02    0.152E-03
DAV:   2    -0.356243428160E+02   -0.41066E-07   -0.81302E-07    64   0.889E-03    0.833E-04
DAV:   3    -0.356243428253E+02   -0.93526E-08   -0.10761E-07    48   0.294E-03    0.530E-04
DAV:   4    -0.356243428570E+02   -0.31743E-07   -0.78838E-08    64   0.263E-03    0.169E-04
DAV:   5    -0.356243428680E+02   -0.10961E-07   -0.33403E-08    48   0.125E-03    0.139E-04
DAV:   6    -0.356243428793E+02   -0.11273E-07   -0.21444E-08    48   0.559E-04
  26 F= -.35624343E+02 E0= -.35624343E+02  d E =-.794247E-05
damped:  g(F)=  0.000E+00 g(S)=  0.000E+00 dE (1.order)= 0.000E+00
 bond charge predicted
       N       E                     dE             d eps       ncg     rms          rms(c)
DAV:   1    -0.356243504214E+02   -0.75533E-05   -0.19811E-05    48   0.434E-02    0.184E-03
DAV:   2    -0.356243504412E+02   -0.19855E-07   -0.12176E-06    64   0.109E-02    0.102E-03
DAV:   3    -0.356243504239E+02    0.17294E-07   -0.15670E-07    48   0.362E-03    0.652E-04
DAV:   4    -0.356243504199E+02    0.40422E-08   -0.11076E-07    48   0.320E-03    0.205E-04
DAV:   5    -0.356243504238E+02   -0.38792E-08   -0.43588E-08    48   0.152E-03    0.170E-04
DAV:   6    -0.356243504283E+02   -0.45634E-08   -0.25391E-08    48   0.689E-04
  27 F= -.35624350E+02 E0= -.35624350E+02  d E =-.754904E-05
damped:  g(F)=  0.000E+00 g(S)=  0.000E+00 dE (1.order)= 0.000E+00
 bond charge predicted
       N       E                     dE             d eps       ncg     rms          rms(c)
DAV:   1    -0.356243562293E+02   -0.58055E-05   -0.24549E-05    48   0.482E-02    0.199E-03
DAV:   2    -0.356243562496E+02   -0.20325E-07   -0.14991E-06    60   0.122E-02    0.112E-03
DAV:   3    -0.356243562256E+02    0.24005E-07   -0.19204E-07    48   0.402E-03    0.725E-04
DAV:   4    -0.356243562151E+02    0.10495E-07   -0.13023E-07    48   0.349E-03    0.223E-04
DAV:   5    -0.356243562186E+02   -0.35182E-08   -0.50505E-08    48   0.166E-03    0.188E-04
DAV:   6    -0.356243562238E+02   -0.51687E-08   -0.28342E-08    48   0.771E-04
  28 F= -.35624356E+02 E0= -.35624356E+02  d E =-.579545E-05
damped:  g(F)=  0.000E+00 g(S)=  0.000E+00 dE (1.order)= 0.000E+00
 reached required accuracy - stopping structural energy minimisation
