unknown system                          
           1
    30.000000    0.000000    0.000000
     0.000000   30.000000    0.000000
     0.000000    0.000000   30.000000
   H    C    N 
   3   2   1
Direct configuration=     1
   0.46983083  0.46885445  0.50941216
   0.47230618  0.51137116  0.46756606
   0.47149998  0.52631826  0.52532175
   0.48361127  0.50171386  0.50101216
   0.56908978  0.49202383  0.49499115
   0.53075500  0.49882970  0.50062465
Direct configuration=     2
   0.46983113  0.46885356  0.50941116
   0.47230630  0.51137348  0.46756596
   0.47150000  0.52631757  0.52532297
   0.48361205  0.50171423  0.50101228
   0.56909352  0.49202060  0.49498845
   0.53075125  0.49883150  0.50062686
Direct configuration=     3
   0.46983133  0.46885186  0.50940902
   0.47230605  0.51137830  0.46756588
   0.47150054  0.52631602  0.52532552
   0.48361324  0.50171490  0.50101239
   0.56909896  0.49201481  0.49498375
   0.53074670  0.49883436  0.50063061
Direct configuration=     4
   0.46983087  0.46884960  0.50940555
   0.47230467  0.51138572  0.46756605
   0.47150240  0.52631347  0.52532950
   0.48361425  0.50171565  0.50101225
   0.56910273  0.49200768  0.49497840
   0.53074593  0.49883700  0.50063462
Direct configuration=     5
   0.46982934  0.46884718  0.50940073
   0.47230166  0.51139546  0.46756674
   0.47150622  0.52630990  0.52533487
   0.48361483  0.50171621  0.50101168
   0.56910333  0.49200036  0.49497363
   0.53075088  0.49883842  0.50063773
Direct configuration=     6
   0.46982649  0.46884490  0.50939431
   0.47229669  0.51140755  0.46756824
   0.47151262  0.52630520  0.52534176
   0.48361525  0.50171636  0.50101051
   0.56910198  0.49199317  0.49496996
   0.53076010  0.49883824  0.50063936
Direct configuration=     7
   0.46982223  0.46884298  0.50938588
   0.47228963  0.51142223  0.46757094
   0.47152226  0.52629914  0.52535051
   0.48361621  0.50171600  0.50100872
   0.56910198  0.49198574  0.49496731
   0.53076952  0.49883652  0.50063930
Direct configuration=     8
   0.46981616  0.46884139  0.50937387
   0.47227979  0.51144166  0.46757565
   0.47153695  0.52629066  0.52536262
   0.48361855  0.50171516  0.50100617
   0.56910679  0.49197658  0.49496519
   0.53077560  0.49883306  0.50063724
Direct configuration=     9
   0.46980834  0.46884028  0.50935678
   0.47226727  0.51146753  0.46758338
   0.47155806  0.52627890  0.52537955
   0.48362272  0.50171406  0.50100305
   0.56911740  0.49196475  0.49496339
   0.53077674  0.49882690  0.50063209
Direct configuration=    10
   0.46979923  0.46883981  0.50933238
   0.47225282  0.51150288  0.46759575
   0.47158710  0.52626263  0.52540380
   0.48362837  0.50171325  0.50099986
   0.56912869  0.49194897  0.49496156
   0.53077810  0.49881558  0.50062154
Direct configuration=    11
   0.46979004  0.46883990  0.50929830
   0.47223856  0.51155179  0.46761469
   0.47162469  0.52624040  0.52543862
   0.48363506  0.50171399  0.50099784
   0.56913282  0.49192637  0.49495748
   0.53078721  0.49879633  0.50060356
Direct configuration=    12
   0.46978198  0.46884058  0.50925172
   0.47222730  0.51162036  0.46764297
   0.47167185  0.52621023  0.52548851
   0.48364436  0.50171777  0.50099874
   0.56913133  0.49189013  0.49494547
   0.53080057  0.49876754  0.50057721
Direct configuration=    13
   0.46977425  0.46884183  0.50919117
   0.47221910  0.51171159  0.46768178
   0.47173104  0.52617135  0.52555624
   0.48365920  0.50172446  0.50100253
   0.56914175  0.49183610  0.49492293
   0.53079816  0.49873009  0.50054245
Direct configuration=    14
   0.46976445  0.46884366  0.50911474
   0.47221257  0.51182990  0.46773222
   0.47180602  0.52612297  0.52564585
   0.48367607  0.50173342  0.50100895
   0.56914868  0.49176653  0.49489312
   0.53080190  0.49867705  0.50049282
Direct configuration=    15
   0.46974802  0.46884575  0.50902193
   0.47220413  0.51197836  0.46779405
   0.47190149  0.52606486  0.52576017
   0.48369203  0.50174294  0.50101686
   0.56914695  0.49168470  0.49485986
   0.53082498  0.49860338  0.50042337
Direct configuration=    16
   0.46972107  0.46884742  0.50891429
   0.47219073  0.51215629  0.46786558
   0.47202097  0.52599677  0.52589778
   0.48371687  0.50175180  0.50102476
   0.56919370  0.49158335  0.49481808
   0.53080300  0.49851947  0.50034240
Direct configuration=    17
   0.46967348  0.46885025  0.50879727
   0.47216062  0.51235625  0.46794488
   0.47217067  0.52591933  0.52605091
   0.48372708  0.50175901  0.50102882
   0.56915637  0.49150160  0.49480021
   0.53090167  0.49839564  0.50022613
Direct configuration=    18
   0.46967150  0.46885074  0.50879543
   0.47215970  0.51235967  0.46794653
   0.47217560  0.52591723  0.52605294
   0.48373585  0.50175811  0.50102818
   0.56920424  0.49149229  0.49479351
   0.53084554  0.49840260  0.50023141
Direct configuration=    19
   0.46966366  0.46885231  0.50879112
   0.47215419  0.51236842  0.46795071
   0.47218992  0.52591205  0.52605811
   0.48374533  0.50175601  0.50102602
   0.56925189  0.49148466  0.49479002
   0.53079369  0.49840369  0.50023150
Direct configuration=    20
   0.46966242  0.46885252  0.50879082
   0.47215305  0.51236913  0.46795107
   0.47219153  0.52591165  0.52605854
   0.48374366  0.50175583  0.50102572
   0.56924238  0.49148708  0.49479233
   0.53080609  0.49840064  0.50022895
Direct configuration=    21
   0.46966009  0.46885293  0.50879019
   0.47215098  0.51237062  0.46795181
   0.47219467  0.52591080  0.52605944
   0.48374079  0.50175550  0.50102517
   0.56922565  0.49149129  0.49479637
   0.53082796  0.49839514  0.50022438
Direct configuration=    22
   0.46965678  0.46885356  0.50878904
   0.47214818  0.51237313  0.46795304
   0.47219937  0.52590939  0.52606096
   0.48373757  0.50175499  0.50102443
   0.56920592  0.49149616  0.49480120
   0.53085404  0.49838808  0.50021855
Direct configuration=    23
   0.46965664  0.46885360  0.50878893
   0.47214811  0.51237334  0.46795313
   0.47219963  0.52590928  0.52606108
   0.48373769  0.50175496  0.50102440
   0.56920636  0.49149603  0.49480113
   0.53085357  0.49838803  0.50021852
Direct configuration=    24
   0.46965639  0.46885366  0.50878870
   0.47214799  0.51237376  0.46795332
   0.47220013  0.52590905  0.52606135
   0.48373793  0.50175491  0.50102437
   0.56920720  0.49149574  0.49480096
   0.53085268  0.49838794  0.50021848
Direct configuration=    25
   0.46965604  0.46885376  0.50878834
   0.47214784  0.51237440  0.46795362
   0.47220083  0.52590870  0.52606175
   0.48373828  0.50175485  0.50102432
   0.56920836  0.49149525  0.49480065
   0.53085143  0.49838782  0.50021845
Direct configuration=    26
   0.46965562  0.46885389  0.50878785
   0.47214771  0.51237528  0.46795402
   0.47220171  0.52590823  0.52606229
   0.48373875  0.50175478  0.50102429
   0.56920974  0.49149454  0.49480015
   0.53084992  0.49838768  0.50021848
Direct configuration=    27
   0.46965514  0.46885406  0.50878721
   0.47214761  0.51237640  0.46795453
   0.47220274  0.52590762  0.52606299
   0.48373931  0.50175472  0.50102428
   0.56921120  0.49149357  0.49479943
   0.53084830  0.49838754  0.50021856
Direct configuration=    28
   0.46965514  0.46885406  0.50878721
   0.47214761  0.51237640  0.46795453
   0.47220274  0.52590762  0.52606299
   0.48373931  0.50175472  0.50102428
   0.56921120  0.49149357  0.49479943
   0.53084830  0.49838754  0.50021856
