   6   6   0   0
  0.4500000E+04  0.3000000E-08  0.3000000E-08  0.3000000E-08  0.0000000E+00
  1.000000000000000E-004
  CAR 
 unknown system                          
      2.02723066    -24.67937883  301     -6.87462476      1.00000000
    -24.679  0.0000E+00  0.0000E+00
    -24.590  0.0000E+00  0.0000E+00
    -24.501  0.0000E+00  0.0000E+00
    -24.412  0.0000E+00  0.0000E+00
    -24.323  0.0000E+00  0.0000E+00
    -24.234  0.0000E+00  0.0000E+00
    -24.145  0.0000E+00  0.0000E+00
    -24.056  0.0000E+00  0.0000E+00
    -23.967  0.0000E+00  0.0000E+00
    -23.878  0.0000E+00  0.0000E+00
    -23.789  0.1580E-15  0.1406E-16
    -23.700  0.1962E-13  0.1760E-14
    -23.611  0.1645E-11  0.1482E-12
    -23.522  0.9343E-10  0.8465E-11
    -23.433  0.3594E-08  0.3284E-09
    -23.344  0.9376E-07  0.8675E-08
    -23.255  0.1660E-05  0.1564E-06
    -23.166  0.1995E-04  0.1932E-05
    -23.077  0.1629E-03  0.1644E-04
    -22.988  0.9053E-03  0.9703E-04
    -22.899  0.3423E-02  0.4018E-03
    -22.810  0.8816E-02  0.1187E-02
    -22.721  0.1547E-01  0.2564E-02
    -22.632  0.1850E-01  0.4210E-02
    -22.543  0.1507E-01  0.5552E-02
    -22.454  0.8373E-02  0.6298E-02
    -22.365  0.3168E-02  0.6580E-02
    -22.276  0.8165E-03  0.6652E-02
    -22.187  0.1432E-03  0.6665E-02
    -22.098  0.1708E-04  0.6667E-02
    -22.009  0.1384E-05  0.6667E-02
    -21.920  0.7621E-07  0.6667E-02
    -21.831  0.2846E-08  0.6667E-02
    -21.742  0.7207E-10  0.6667E-02
    -21.653  0.1236E-11  0.6667E-02
    -21.564  0.1435E-13  0.6667E-02
    -21.475  0.1164E-15  0.6667E-02
    -21.386  0.0000E+00  0.6667E-02
    -21.297  0.0000E+00  0.6667E-02
    -21.208  0.0000E+00  0.6667E-02
    -21.118  0.0000E+00  0.6667E-02
    -21.029  0.0000E+00  0.6667E-02
    -20.940  0.0000E+00  0.6667E-02
    -20.851  0.0000E+00  0.6667E-02
    -20.762  0.0000E+00  0.6667E-02
    -20.673  0.0000E+00  0.6667E-02
    -20.584  0.0000E+00  0.6667E-02
    -20.495  0.0000E+00  0.6667E-02
    -20.406  0.1247E-16  0.6667E-02
    -20.317  0.1812E-14  0.6667E-02
    -20.228  0.1853E-12  0.6667E-02
    -20.139  0.1281E-10  0.6667E-02
    -20.050  0.5994E-09  0.6667E-02
    -19.961  0.1902E-07  0.6667E-02
    -19.872  0.4092E-06  0.6667E-02
    -19.783  0.5978E-05  0.6667E-02
    -19.694  0.5932E-04  0.6673E-02
    -19.605  0.4002E-03  0.6708E-02
    -19.516  0.1837E-02  0.6872E-02
    -19.427  0.5742E-02  0.7383E-02
    -19.338  0.1222E-01  0.8471E-02
    -19.249  0.1773E-01  0.1005E-01
    -19.160  0.1753E-01  0.1161E-01
    -19.071  0.1181E-01  0.1266E-01
    -18.982  0.5425E-02  0.1314E-01
    -18.893  0.1697E-02  0.1330E-01
    -18.804  0.3613E-03  0.1333E-01
    -18.715  0.5235E-04  0.1333E-01
    -18.626  0.5156E-05  0.1333E-01
    -18.537  0.3450E-06  0.1333E-01
    -18.448  0.1567E-07  0.1333E-01
    -18.359  0.4826E-09  0.1333E-01
    -18.270  0.1008E-10  0.1333E-01
    -18.181  0.1424E-12  0.1333E-01
    -18.092  0.1364E-14  0.1333E-01
    -18.003  0.8314E-17  0.1333E-01
    -17.914  0.0000E+00  0.1333E-01
    -17.825  0.0000E+00  0.1333E-01
    -17.736  0.0000E+00  0.1333E-01
    -17.647  0.0000E+00  0.1333E-01
    -17.558  0.0000E+00  0.1333E-01
    -17.469  0.0000E+00  0.1333E-01
    -17.380  0.0000E+00  0.1333E-01
    -17.291  0.0000E+00  0.1333E-01
    -17.202  0.0000E+00  0.1333E-01
    -17.113  0.0000E+00  0.1333E-01
    -17.023  0.0000E+00  0.1333E-01
    -16.934  0.0000E+00  0.1333E-01
    -16.845  0.0000E+00  0.1333E-01
    -16.756  0.0000E+00  0.1333E-01
    -16.667  0.0000E+00  0.1333E-01
    -16.578  0.0000E+00  0.1333E-01
    -16.489  0.0000E+00  0.1333E-01
    -16.400  0.0000E+00  0.1333E-01
    -16.311  0.0000E+00  0.1333E-01
    -16.222  0.0000E+00  0.1333E-01
    -16.133  0.0000E+00  0.1333E-01
    -16.044  0.0000E+00  0.1333E-01
    -15.955  0.0000E+00  0.1333E-01
    -15.866  0.0000E+00  0.1333E-01
    -15.777  0.0000E+00  0.1333E-01
    -15.688  0.0000E+00  0.1333E-01
    -15.599  0.0000E+00  0.1333E-01
    -15.510  0.0000E+00  0.1333E-01
    -15.421  0.0000E+00  0.1333E-01
    -15.332  0.0000E+00  0.1333E-01
    -15.243  0.0000E+00  0.1333E-01
    -15.154  0.0000E+00  0.1333E-01
    -15.065  0.0000E+00  0.1333E-01
    -14.976  0.0000E+00  0.1333E-01
    -14.887  0.0000E+00  0.1333E-01
    -14.798  0.0000E+00  0.1333E-01
    -14.709  0.0000E+00  0.1333E-01
    -14.620  0.0000E+00  0.1333E-01
    -14.531  0.0000E+00  0.1333E-01
    -14.442  0.0000E+00  0.1333E-01
    -14.353  0.0000E+00  0.1333E-01
    -14.264  0.0000E+00  0.1333E-01
    -14.175  0.0000E+00  0.1333E-01
    -14.086  0.0000E+00  0.1333E-01
    -13.997  0.0000E+00  0.1333E-01
    -13.908  0.0000E+00  0.1333E-01
    -13.819  0.0000E+00  0.1333E-01
    -13.730  0.4157E-16  0.1333E-01
    -13.641  0.5462E-14  0.1333E-01
    -13.552  0.5098E-12  0.1333E-01
    -13.463  0.3220E-10  0.1333E-01
    -13.374  0.1378E-08  0.1333E-01
    -13.285  0.3997E-07  0.1333E-01
    -13.196  0.7864E-06  0.1333E-01
    -13.107  0.1051E-04  0.1333E-01
    -13.017  0.9537E-04  0.1334E-01
    -12.928  0.5887E-03  0.1340E-01
    -12.839  0.2473E-02  0.1362E-01
    -12.750  0.7072E-02  0.1424E-01
    -12.661  0.1378E-01  0.1547E-01
    -12.572  0.1830E-01  0.1710E-01
    -12.483  0.1656E-01  0.1857E-01
    -12.394  0.1021E-01  0.1948E-01
    -12.305  0.4293E-02  0.1987E-01
    -12.216  0.1229E-02  0.1998E-01
    -12.127  0.2415E-03  0.2000E-01
    -12.038  0.5669E-04  0.2000E-01
    -11.949  0.2053E-03  0.2002E-01
    -11.860  0.1133E-02  0.2012E-01
    -11.771  0.4410E-02  0.2051E-01
    -11.682  0.1206E-01  0.2159E-01
    -11.593  0.2343E-01  0.2367E-01
    -11.504  0.3270E-01  0.2658E-01
    -11.415  0.3298E-01  0.2952E-01
    -11.326  0.2405E-01  0.3166E-01
    -11.237  0.1260E-01  0.3278E-01
    -11.148  0.4696E-02  0.3320E-01
    -11.059  0.1230E-02  0.3331E-01
    -10.970  0.2241E-03  0.3333E-01
    -10.881  0.2818E-04  0.3333E-01
    -10.792  0.2432E-05  0.3333E-01
    -10.703  0.1434E-06  0.3333E-01
    -10.614  0.5757E-08  0.3333E-01
    -10.525  0.1571E-09  0.3333E-01
    -10.436  0.2910E-11  0.3333E-01
    -10.347  0.3651E-13  0.3333E-01
    -10.258  0.3159E-15  0.3333E-01
    -10.169  0.0000E+00  0.3333E-01
    -10.080  0.0000E+00  0.3333E-01
     -9.991  0.0000E+00  0.3333E-01
     -9.902  0.0000E+00  0.3333E-01
     -9.813  0.3326E-16  0.3333E-01
     -9.724  0.4577E-14  0.3333E-01
     -9.635  0.4334E-12  0.3333E-01
     -9.546  0.2778E-10  0.3333E-01
     -9.457  0.1206E-08  0.3333E-01
     -9.368  0.3549E-07  0.3333E-01
     -9.279  0.7085E-06  0.3333E-01
     -9.190  0.9603E-05  0.3333E-01
     -9.101  0.8844E-04  0.3334E-01
     -9.012  0.5538E-03  0.3339E-01
     -8.922  0.2360E-02  0.3360E-01
     -8.833  0.6847E-02  0.3421E-01
     -8.744  0.1353E-01  0.3542E-01
     -8.655  0.1824E-01  0.3704E-01
     -8.566  0.1681E-01  0.3854E-01
     -8.477  0.1092E-01  0.3951E-01
     -8.388  0.6483E-02  0.4008E-01
     -8.299  0.7473E-02  0.4075E-01
     -8.210  0.1331E-01  0.4194E-01
     -8.121  0.1964E-01  0.4368E-01
     -8.032  0.2264E-01  0.4570E-01
     -7.943  0.2306E-01  0.4775E-01
     -7.854  0.2256E-01  0.4976E-01
     -7.765  0.1931E-01  0.5148E-01
     -7.676  0.1263E-01  0.5260E-01
     -7.587  0.5853E-02  0.5312E-01
     -7.498  0.1871E-02  0.5329E-01
     -7.409  0.4089E-03  0.5333E-01
     -7.320  0.6086E-04  0.5333E-01
     -7.231  0.6160E-05  0.5333E-01
     -7.142  0.4237E-06  0.5333E-01
     -7.053  0.1978E-07  0.5333E-01
     -6.964  0.6264E-09  0.5333E-01
     -6.875  0.1345E-10  0.5333E-01
     -6.786  0.1955E-12  0.5333E-01
     -6.697  0.1921E-14  0.5333E-01
     -6.608  0.1663E-16  0.5333E-01
     -6.519  0.0000E+00  0.5333E-01
     -6.430  0.0000E+00  0.5333E-01
     -6.341  0.0000E+00  0.5333E-01
     -6.252  0.0000E+00  0.5333E-01
     -6.163  0.0000E+00  0.5333E-01
     -6.074  0.0000E+00  0.5333E-01
     -5.985  0.0000E+00  0.5333E-01
     -5.896  0.0000E+00  0.5333E-01
     -5.807  0.0000E+00  0.5333E-01
     -5.718  0.0000E+00  0.5333E-01
     -5.629  0.0000E+00  0.5333E-01
     -5.540  0.0000E+00  0.5333E-01
     -5.451  0.0000E+00  0.5333E-01
     -5.362  0.0000E+00  0.5333E-01
     -5.273  0.0000E+00  0.5333E-01
     -5.184  0.0000E+00  0.5333E-01
     -5.095  0.0000E+00  0.5333E-01
     -5.006  0.0000E+00  0.5333E-01
     -4.916  0.0000E+00  0.5333E-01
     -4.827  0.0000E+00  0.5333E-01
     -4.738  0.0000E+00  0.5333E-01
     -4.649  0.0000E+00  0.5333E-01
     -4.560  0.0000E+00  0.5333E-01
     -4.471  0.0000E+00  0.5333E-01
     -4.382  0.0000E+00  0.5333E-01
     -4.293  0.0000E+00  0.5333E-01
     -4.204  0.0000E+00  0.5333E-01
     -4.115  0.0000E+00  0.5333E-01
     -4.026  0.0000E+00  0.5333E-01
     -3.937  0.0000E+00  0.5333E-01
     -3.848  0.0000E+00  0.5333E-01
     -3.759  0.0000E+00  0.5333E-01
     -3.670  0.0000E+00  0.5333E-01
     -3.581  0.0000E+00  0.5333E-01
     -3.492  0.0000E+00  0.5333E-01
     -3.403  0.0000E+00  0.5333E-01
     -3.314  0.0000E+00  0.5333E-01
     -3.225  0.0000E+00  0.5333E-01
     -3.136  0.0000E+00  0.5333E-01
     -3.047  0.0000E+00  0.5333E-01
     -2.958  0.0000E+00  0.5333E-01
     -2.869  0.0000E+00  0.5333E-01
     -2.780  0.4157E-17  0.5333E-01
     -2.691  0.6402E-15  0.5333E-01
     -2.602  0.7131E-13  0.5333E-01
     -2.513  0.5357E-11  0.5333E-01
     -2.424  0.2725E-09  0.5333E-01
     -2.335  0.9393E-08  0.5333E-01
     -2.246  0.2196E-06  0.5333E-01
     -2.157  0.3484E-05  0.5333E-01
     -2.068  0.3754E-04  0.5334E-01
     -1.979  0.2750E-03  0.5336E-01
     -1.890  0.1371E-02  0.5348E-01
     -1.801  0.4649E-02  0.5390E-01
     -1.712  0.1074E-01  0.5485E-01
     -1.623  0.1691E-01  0.5636E-01
     -1.534  0.1815E-01  0.5798E-01
     -1.445  0.1327E-01  0.5916E-01
     -1.356  0.6615E-02  0.5975E-01
     -1.267  0.2246E-02  0.5995E-01
     -1.178  0.5192E-03  0.5999E-01
     -1.089  0.8191E-04  0.6000E-01
     -1.000  0.1284E-04  0.6000E-01
     -0.910  0.4849E-04  0.6000E-01
     -0.821  0.3790E-03  0.6004E-01
     -0.732  0.2041E-02  0.6022E-01
     -0.643  0.7484E-02  0.6089E-01
     -0.554  0.1869E-01  0.6255E-01
     -0.465  0.3183E-01  0.6538E-01
     -0.376  0.3705E-01  0.6868E-01
     -0.287  0.3002E-01  0.7135E-01
     -0.198  0.1895E-01  0.7304E-01
     -0.109  0.1424E-01  0.7431E-01
     -0.020  0.1661E-01  0.7579E-01
      0.069  0.1874E-01  0.7746E-01
      0.158  0.1541E-01  0.7883E-01
      0.247  0.8722E-02  0.7961E-01
      0.336  0.3367E-02  0.7991E-01
      0.425  0.8856E-03  0.7998E-01
      0.514  0.1585E-03  0.8000E-01
      0.603  0.1930E-04  0.8000E-01
      0.692  0.1597E-05  0.8000E-01
      0.781  0.8973E-07  0.8000E-01
      0.870  0.3421E-08  0.8000E-01
      0.959  0.8844E-10  0.8000E-01
      1.048  0.1549E-11  0.8000E-01
      1.137  0.1837E-13  0.8000E-01
      1.226  0.1476E-15  0.8000E-01
      1.315  0.0000E+00  0.8000E-01
      1.404  0.0000E+00  0.8000E-01
      1.493  0.0000E+00  0.8000E-01
      1.582  0.0000E+00  0.8000E-01
      1.671  0.0000E+00  0.8000E-01
      1.760  0.0000E+00  0.8000E-01
      1.849  0.0000E+00  0.8000E-01
      1.938  0.0000E+00  0.8000E-01
      2.027  0.0000E+00  0.8000E-01
