    6    6  300    1
  0.4500000E+04  0.3000000E-08  0.3000000E-08  0.3000000E-08  0.0000000E+00
  1.000000000000000E-004
  CAR 
 unknown system                          
     16      4     12
 
  0.2500000E+00  0.2500000E+00  0.2500000E+00  0.2500000E+00
    1      -22.679379   1.000000
    2      -19.251671   1.000000
    3      -12.595564   1.000000
    4      -11.558848   1.000000
    5      -11.444621   1.000000
    6       -8.675271   1.000000
    7       -8.130087   1.000000
    8       -7.850508   1.000000
    9       -1.606301   0.000000
   10       -0.433603   0.000000
   11       -0.428182   0.000000
   12        0.027231   0.000000
 
 -0.2500000E+00  0.2500000E+00  0.2500000E+00  0.2500000E+00
    1      -22.679378   1.000000
    2      -19.251668   1.000000
    3      -12.595562   1.000000
    4      -11.558850   1.000000
    5      -11.444623   1.000000
    6       -8.675268   1.000000
    7       -8.130084   1.000000
    8       -7.850512   1.000000
    9       -1.606302   0.000000
   10       -0.433605   0.000000
   11       -0.428185   0.000000
   12        0.024098   0.000000
 
  0.2500000E+00 -0.2500000E+00  0.2500000E+00  0.2500000E+00
    1      -22.679379   1.000000
    2      -19.251668   1.000000
    3      -12.595562   1.000000
    4      -11.558853   1.000000
    5      -11.444624   1.000000
    6       -8.675264   1.000000
    7       -8.130090   1.000000
    8       -7.850499   1.000000
    9       -1.606303   0.000000
   10       -0.433604   0.000000
   11       -0.428199   0.000000
   12        0.026230   0.000000
 
 -0.2500000E+00 -0.2500000E+00  0.2500000E+00  0.2500000E+00
    1      -22.679379   1.000000
    2      -19.251669   1.000000
    3      -12.595562   1.000000
    4      -11.558852   1.000000
    5      -11.444623   1.000000
    6       -8.675264   1.000000
    7       -8.130097   1.000000
    8       -7.850501   1.000000
    9       -1.606302   0.000000
   10       -0.433603   0.000000
   11       -0.428197   0.000000
   12        0.026175   0.000000
