       N       E                     dE             d eps       ncg     rms          rms(c)
DAV:   1     0.115486196487E+03    0.11549E+03   -0.21310E+03   160   0.366E+02
DAV:   2    -0.163695432667E+01   -0.11712E+03   -0.11457E+03   192   0.106E+02
DAV:   3    -0.372976701387E+02   -0.35661E+02   -0.35464E+02   128   0.965E+01
DAV:   4    -0.404453518155E+02   -0.31477E+01   -0.30917E+01   128   0.298E+01
DAV:   5    -0.405104677408E+02   -0.65116E-01   -0.64280E-01   112   0.486E+00    0.110E+01
DAV:   6    -0.371774109177E+02    0.33331E+01   -0.63069E+00   128   0.178E+01    0.601E+00
DAV:   7    -0.365169126689E+02    0.66050E+00   -0.15521E+00   120   0.901E+00    0.309E+00
DAV:   8    -0.363400754026E+02    0.17684E+00   -0.41665E-01   128   0.501E+00    0.117E+00
DAV:   9    -0.363128333225E+02    0.27242E-01   -0.41357E-02   128   0.167E+00    0.339E-01
DAV:  10    -0.363089333687E+02    0.39000E-02   -0.49089E-03   128   0.605E-01    0.147E-01
DAV:  11    -0.363098900438E+02   -0.95668E-03   -0.18114E-03   112   0.321E-01    0.963E-02
DAV:  12    -0.363161321660E+02   -0.62421E-02   -0.43084E-03    96   0.515E-01    0.474E-02
DAV:  13    -0.363200585572E+02   -0.39264E-02   -0.12484E-03   148   0.233E-01    0.356E-02
DAV:  14    -0.363243491393E+02   -0.42906E-02   -0.59853E-04   116   0.155E-01    0.259E-02
DAV:  15    -0.363273857797E+02   -0.30366E-02   -0.29681E-04   128   0.928E-02    0.154E-02
DAV:  16    -0.363293342995E+02   -0.19485E-02   -0.15418E-04    80   0.864E-02    0.818E-03
DAV:  17    -0.363306223553E+02   -0.12881E-02   -0.17539E-04   128   0.601E-02    0.689E-03
DAV:  18    -0.363310515695E+02   -0.42921E-03   -0.17797E-05    96   0.336E-02    0.282E-03
DAV:  19    -0.363313590901E+02   -0.30752E-03   -0.13863E-05    80   0.228E-02    0.299E-03
DAV:  20    -0.363314583302E+02   -0.99240E-04   -0.33591E-06    96   0.131E-02
   1 F= -.36331458E+02 E0= -.36331458E+02  d E =-.363315E+02
       N       E                     dE             d eps       ncg     rms          rms(c)
DAV:   1    -0.363316791676E+02   -0.32008E-03   -0.45702E-05    80   0.615E-02    0.212E-03
DAV:   2    -0.363316907782E+02   -0.11611E-04   -0.25654E-06    96   0.155E-02    0.133E-03
DAV:   3    -0.363317057824E+02   -0.15004E-04   -0.46592E-07    80   0.602E-03    0.420E-04
DAV:   4    -0.363317136190E+02   -0.78366E-05   -0.13476E-07    96   0.298E-03    0.302E-04
DAV:   5    -0.363317210703E+02   -0.74513E-05   -0.38904E-08    80   0.156E-03    0.180E-04
DAV:   6    -0.363317316006E+02   -0.10530E-04   -0.38174E-08    72   0.121E-03
   2 F= -.36331732E+02 E0= -.36331732E+02  d E =-.273270E-03
       N       E                     dE             d eps       ncg     rms          rms(c)
DAV:   1    -0.363319942714E+02   -0.27320E-03   -0.16214E-04   120   0.115E-01    0.268E-03
DAV:   2    -0.363319957452E+02   -0.14738E-05   -0.17702E-06    64   0.112E-02    0.164E-03
DAV:   3    -0.363319973873E+02   -0.16421E-05   -0.22399E-07    64   0.415E-03    0.684E-04
DAV:   4    -0.363319990911E+02   -0.17038E-05   -0.66887E-08    88   0.207E-03    0.168E-04
DAV:   5    -0.363320000983E+02   -0.10072E-05   -0.22718E-08    72   0.985E-04    0.798E-05
DAV:   6    -0.363320010404E+02   -0.94209E-06   -0.13411E-08    64   0.527E-04
   3 F= -.36332001E+02 E0= -.36332001E+02  d E =-.269440E-03
       N       E                     dE             d eps       ncg     rms          rms(c)
DAV:   1    -0.363323944478E+02   -0.39435E-03   -0.32491E-04   112   0.164E-01    0.389E-03
DAV:   2    -0.363323948182E+02   -0.37035E-06   -0.35240E-06    48   0.161E-02    0.235E-03
DAV:   3    -0.363323951420E+02   -0.32386E-06   -0.44934E-07    60   0.588E-03    0.109E-03
DAV:   4    -0.363323955201E+02   -0.37806E-06   -0.13207E-07    72   0.302E-03    0.244E-04
DAV:   5    -0.363323957119E+02   -0.19177E-06   -0.41449E-08    48   0.139E-03    0.116E-04
DAV:   6    -0.363323958889E+02   -0.17702E-06   -0.18348E-08    56   0.713E-04
   4 F= -.36332396E+02 E0= -.36332396E+02  d E =-.394849E-03
       N       E                     dE             d eps       ncg     rms          rms(c)
DAV:   1    -0.363329241588E+02   -0.52845E-03   -0.49916E-04    96   0.203E-01    0.481E-03
DAV:   2    -0.363329243715E+02   -0.21270E-06   -0.53349E-06    48   0.197E-02    0.293E-03
DAV:   3    -0.363329245300E+02   -0.15851E-06   -0.68374E-07    64   0.735E-03    0.113E-03
DAV:   4    -0.363329246494E+02   -0.11939E-06   -0.18736E-07    48   0.359E-03    0.286E-04
DAV:   5    -0.363329247019E+02   -0.52506E-07   -0.49417E-08    64   0.171E-03    0.127E-04
DAV:   6    -0.363329247466E+02   -0.44737E-07   -0.18307E-08    48   0.892E-04
   5 F= -.36332925E+02 E0= -.36332925E+02  d E =-.528858E-03
       N       E                     dE             d eps       ncg     rms          rms(c)
DAV:   1    -0.363335902858E+02   -0.66558E-03   -0.62630E-04    96   0.229E-01    0.552E-03
DAV:   2    -0.363335903772E+02   -0.91441E-07   -0.65352E-06    68   0.224E-02    0.329E-03
DAV:   3    -0.363335905013E+02   -0.12406E-06   -0.86082E-07    48   0.820E-03    0.155E-03
DAV:   4    -0.363335906008E+02   -0.99511E-07   -0.23756E-07    68   0.417E-03    0.324E-04
DAV:   5    -0.363335906165E+02   -0.15772E-07   -0.69115E-08    48   0.193E-03    0.156E-04
DAV:   6    -0.363335906352E+02   -0.18707E-07   -0.29327E-08    48   0.989E-04
   6 F= -.36333591E+02 E0= -.36333591E+02  d E =-.665889E-03
       N       E                     dE             d eps       ncg     rms          rms(c)
DAV:   1    -0.363343776426E+02   -0.78703E-03   -0.70370E-04    96   0.242E-01    0.590E-03
DAV:   2    -0.363343777158E+02   -0.73196E-07   -0.72120E-06    64   0.232E-02    0.362E-03
DAV:   3    -0.363343778645E+02   -0.14869E-06   -0.10452E-06    48   0.910E-03    0.114E-03
DAV:   4    -0.363343779193E+02   -0.54826E-07   -0.27453E-07    48   0.423E-03    0.375E-04
DAV:   5    -0.363343779304E+02   -0.11074E-07   -0.78916E-08    48   0.208E-03    0.166E-04
DAV:   6    -0.363343779495E+02   -0.19113E-07   -0.38486E-08    48   0.115E-03
   7 F= -.36334378E+02 E0= -.36334378E+02  d E =-.787314E-03
       N       E                     dE             d eps       ncg     rms          rms(c)
DAV:   1    -0.363353091077E+02   -0.93118E-03   -0.84274E-04    96   0.268E-01    0.728E-03
DAV:   2    -0.363353087571E+02    0.35057E-06   -0.86292E-06    64   0.272E-02    0.415E-03
DAV:   3    -0.363353088760E+02   -0.11885E-06   -0.13243E-06    52   0.102E-02    0.222E-03
DAV:   4    -0.363353090437E+02   -0.16776E-06   -0.41570E-07    48   0.563E-03    0.492E-04
DAV:   5    -0.363353090577E+02   -0.13956E-07   -0.10499E-07    48   0.251E-03    0.236E-04
DAV:   6    -0.363353090800E+02   -0.22303E-07   -0.40037E-08    48   0.121E-03
   8 F= -.36335309E+02 E0= -.36335309E+02  d E =-.931131E-03
       N       E                     dE             d eps       ncg     rms          rms(c)
DAV:   1    -0.363353289145E+02   -0.19857E-04   -0.16622E-05    48   0.379E-02    0.181E-03
DAV:   2    -0.363353289274E+02   -0.12919E-07   -0.78416E-07    48   0.879E-03    0.964E-04
DAV:   3    -0.363353289256E+02    0.18067E-08   -0.89098E-08    48   0.268E-03    0.537E-04
DAV:   4    -0.363353289575E+02   -0.31862E-07   -0.62727E-08    48   0.200E-03    0.176E-04
DAV:   5    -0.363353289757E+02   -0.18198E-07   -0.22132E-08    48   0.869E-04    0.122E-04
DAV:   6    -0.363353290005E+02   -0.24800E-07   -0.15884E-08    48   0.390E-04
   9 F= -.36335329E+02 E0= -.36335329E+02  d E =-.199205E-04
       N       E                     dE             d eps       ncg     rms          rms(c)
DAV:   1    -0.363353853151E+02   -0.56339E-04   -0.29366E-05    48   0.504E-02    0.223E-03
DAV:   2    -0.363353853379E+02   -0.22844E-07   -0.13867E-06    48   0.117E-02    0.124E-03
DAV:   3    -0.363353853237E+02    0.14219E-07   -0.15007E-07    48   0.357E-03    0.691E-04
DAV:   4    -0.363353853371E+02   -0.13328E-07   -0.91258E-08    48   0.256E-03    0.223E-04
DAV:   5    -0.363353853480E+02   -0.10910E-07   -0.27478E-08    48   0.112E-03    0.162E-04
DAV:   6    -0.363353853605E+02   -0.12509E-07   -0.17269E-08    48   0.521E-04
  10 F= -.36335385E+02 E0= -.36335385E+02  d E =-.563600E-04
       N       E                     dE             d eps       ncg     rms          rms(c)
DAV:   1    -0.363353973929E+02   -0.12045E-04   -0.66359E-07    48   0.757E-03    0.296E-04
DAV:   2    -0.363353974049E+02   -0.12004E-07   -0.44522E-08    48   0.177E-03    0.167E-04
DAV:   3    -0.363353974133E+02   -0.83992E-08   -0.17023E-08    48   0.521E-04    0.108E-04
DAV:   4    -0.363353974279E+02   -0.14550E-07   -0.15876E-08    48   0.369E-04    0.300E-05
DAV:   5    -0.363353974317E+02   -0.38776E-08   -0.14723E-08    48   0.162E-04    0.216E-05
DAV:   6    -0.363353974371E+02   -0.53990E-08   -0.14671E-08    48   0.730E-05
  11 F= -.36335397E+02 E0= -.36335397E+02  d E =-.120767E-04
       N       E                     dE             d eps       ncg     rms          rms(c)
DAV:   1    -0.363354211553E+02   -0.23724E-04   -0.21210E-06    48   0.136E-02    0.522E-04
DAV:   2    -0.363354211673E+02   -0.12037E-07   -0.11473E-07    48   0.319E-03    0.296E-04
DAV:   3    -0.363354211718E+02   -0.44417E-08   -0.25068E-08    48   0.950E-04    0.193E-04
DAV:   4    -0.363354211774E+02   -0.56418E-08   -0.20699E-08    48   0.695E-04    0.570E-05
DAV:   5    -0.363354211774E+02   -0.22737E-10   -0.16499E-08    48   0.304E-04    0.417E-05
DAV:   6    -0.363354211783E+02   -0.81945E-09   -0.15861E-08    48   0.131E-04
  12 F= -.36335421E+02 E0= -.36335421E+02  d E =-.237411E-04
       N       E                     dE             d eps       ncg     rms          rms(c)
DAV:   1    -0.363354567860E+02   -0.35609E-04   -0.36437E-06    48   0.179E-02    0.632E-04
DAV:   2    -0.363354568008E+02   -0.14773E-07   -0.18578E-07    48   0.418E-03    0.368E-04
DAV:   3    -0.363354568039E+02   -0.30511E-08   -0.33269E-08    48   0.124E-03    0.246E-04
DAV:   4    -0.363354568066E+02   -0.27117E-08   -0.24043E-08    48   0.854E-04    0.708E-05
DAV:   5    -0.363354568057E+02    0.91063E-09   -0.17691E-08    48   0.375E-04    0.532E-05
DAV:   6    -0.363354568052E+02    0.42724E-09   -0.16462E-08    48   0.165E-04
  13 F= -.36335457E+02 E0= -.36335457E+02  d E =-.356270E-04
       N       E                     dE             d eps       ncg     rms          rms(c)
DAV:   1    -0.363355044681E+02   -0.47662E-04   -0.46155E-06    48   0.201E-02    0.619E-04
DAV:   2    -0.363355044863E+02   -0.18189E-07   -0.22554E-07    48   0.465E-03    0.370E-04
DAV:   3    -0.363355044897E+02   -0.34509E-08   -0.38673E-08    48   0.139E-03    0.255E-04
DAV:   4    -0.363355044916E+02   -0.18726E-08   -0.24025E-08    48   0.825E-04    0.770E-05
DAV:   5    -0.363355044907E+02    0.84901E-09   -0.18216E-08    48   0.377E-04    0.540E-05
DAV:   6    -0.363355044902E+02    0.51523E-09   -0.16768E-08    48   0.174E-04
  14 F= -.36335504E+02 E0= -.36335504E+02  d E =-.476850E-04
       N       E                     dE             d eps       ncg     rms          rms(c)
DAV:   1    -0.363355632553E+02   -0.58765E-04   -0.51527E-06    48   0.209E-02    0.548E-04
DAV:   2    -0.363355632757E+02   -0.20406E-07   -0.23803E-07    48   0.480E-03    0.327E-04
DAV:   3    -0.363355632801E+02   -0.43470E-08   -0.41573E-08    48   0.144E-03    0.217E-04
DAV:   4    -0.363355632812E+02   -0.11589E-08   -0.22814E-08    48   0.711E-04    0.729E-05
DAV:   5    -0.363355632806E+02    0.63278E-09   -0.18272E-08    48   0.342E-04    0.430E-05
DAV:   6    -0.363355632801E+02    0.53728E-09   -0.16922E-08    48   0.173E-04
  15 F= -.36335563E+02 E0= -.36335563E+02  d E =-.587898E-04
       N       E                     dE             d eps       ncg     rms          rms(c)
DAV:   1    -0.363356315201E+02   -0.68240E-04   -0.60780E-06    48   0.224E-02    0.541E-04
DAV:   2    -0.363356315425E+02   -0.22351E-07   -0.26791E-07    48   0.508E-03    0.317E-04
DAV:   3    -0.363356315476E+02   -0.51552E-08   -0.45240E-08    48   0.150E-03    0.162E-04
DAV:   4    -0.363356315479E+02   -0.23738E-09   -0.23248E-08    48   0.679E-04    0.448E-05
DAV:   5    -0.363356315473E+02    0.58367E-09   -0.18458E-08    48   0.320E-04    0.301E-05
DAV:   6    -0.363356315465E+02    0.74169E-09   -0.17043E-08    48   0.178E-04
  16 F= -.36335632E+02 E0= -.36335632E+02  d E =-.682665E-04
       N       E                     dE             d eps       ncg     rms          rms(c)
DAV:   1    -0.363357167723E+02   -0.85225E-04   -0.98834E-06    48   0.284E-02    0.698E-04
DAV:   2    -0.363357168042E+02   -0.31930E-07   -0.42952E-07    48   0.642E-03    0.428E-04
DAV:   3    -0.363357168098E+02   -0.55491E-08   -0.61902E-08    48   0.187E-03    0.181E-04
DAV:   4    -0.363357168094E+02    0.33424E-09   -0.27678E-08    48   0.857E-04    0.565E-05
DAV:   5    -0.363357168091E+02    0.28058E-09   -0.19728E-08    48   0.410E-04    0.434E-05
DAV:   6    -0.363357168082E+02    0.99089E-09   -0.17337E-08    48   0.241E-04
  17 F= -.36335717E+02 E0= -.36335717E+02  d E =-.852616E-04
       N       E                     dE             d eps       ncg     rms          rms(c)
DAV:   1    -0.363358221649E+02   -0.10536E-03   -0.16719E-05    48   0.371E-02    0.943E-04
DAV:   2    -0.363358222160E+02   -0.51128E-07   -0.73104E-07    48   0.838E-03    0.600E-04
DAV:   3    -0.363358222220E+02   -0.60165E-08   -0.93862E-08    48   0.244E-03    0.279E-04
DAV:   4    -0.363358222214E+02    0.65279E-09   -0.36702E-08    48   0.118E-03    0.951E-05
DAV:   5    -0.363358222213E+02    0.40473E-10   -0.21993E-08    48   0.559E-04    0.698E-05
DAV:   6    -0.363358222202E+02    0.11298E-08   -0.17853E-08    48   0.321E-04
  18 F= -.36335822E+02 E0= -.36335822E+02  d E =-.105412E-03
       N       E                     dE             d eps       ncg     rms          rms(c)
DAV:   1    -0.363359515122E+02   -0.12929E-03   -0.26471E-05    48   0.466E-02    0.117E-03
DAV:   2    -0.363359515962E+02   -0.83980E-07   -0.11513E-06    48   0.106E-02    0.743E-04
DAV:   3    -0.363359516076E+02   -0.11465E-07   -0.13954E-07    48   0.308E-03    0.343E-04
DAV:   4    -0.363359516076E+02    0.48203E-10   -0.48192E-08    48   0.147E-03    0.114E-04
DAV:   5    -0.363359516079E+02   -0.30900E-09   -0.25253E-08    48   0.701E-04    0.850E-05
DAV:   6    -0.363359516067E+02    0.12512E-08   -0.18744E-08    48   0.401E-04
  19 F= -.36335952E+02 E0= -.36335952E+02  d E =-.129386E-03
       N       E                     dE             d eps       ncg     rms          rms(c)
DAV:   1    -0.363361067324E+02   -0.15512E-03   -0.39034E-05    48   0.563E-02    0.134E-03
DAV:   2    -0.363361068675E+02   -0.13510E-06   -0.16779E-06    48   0.129E-02    0.829E-04
DAV:   3    -0.363361068929E+02   -0.25357E-07   -0.19914E-07    48   0.373E-03    0.355E-04
DAV:   4    -0.363361068953E+02   -0.24156E-08   -0.60501E-08    48   0.170E-03    0.995E-05
DAV:   5    -0.363361068949E+02    0.38881E-09   -0.29323E-08    48   0.815E-04    0.803E-05
DAV:   6    -0.363361068934E+02    0.15216E-08   -0.20042E-08    48   0.470E-04
  20 F= -.36336107E+02 E0= -.36336107E+02  d E =-.155287E-03
       N       E                     dE             d eps       ncg     rms          rms(c)
DAV:   1    -0.363362885791E+02   -0.18168E-03   -0.59660E-05    48   0.698E-02    0.163E-03
DAV:   2    -0.363362887960E+02   -0.21698E-06   -0.25862E-06    48   0.161E-02    0.993E-04
DAV:   3    -0.363362888385E+02   -0.42422E-07   -0.30425E-07    48   0.469E-03    0.511E-04
DAV:   4    -0.363362888463E+02   -0.77994E-08   -0.83895E-08    48   0.216E-03    0.140E-04
DAV:   5    -0.363362888457E+02    0.55320E-09   -0.36346E-08    48   0.102E-03    0.101E-04
DAV:   6    -0.363362888440E+02    0.17371E-08   -0.22202E-08    48   0.563E-04
  21 F= -.36336289E+02 E0= -.36336289E+02  d E =-.181951E-03
       N       E                     dE             d eps       ncg     rms          rms(c)
DAV:   1    -0.363364983925E+02   -0.20955E-03   -0.94624E-05    48   0.880E-02    0.205E-03
DAV:   2    -0.363364987411E+02   -0.34859E-06   -0.41741E-06    48   0.204E-02    0.127E-03
DAV:   3    -0.363364988033E+02   -0.62149E-07   -0.48117E-07    48   0.597E-03    0.736E-04
DAV:   4    -0.363364988188E+02   -0.15577E-07   -0.12730E-07    48   0.283E-03    0.215E-04
DAV:   5    -0.363364988184E+02    0.47430E-09   -0.49051E-08    48   0.133E-03    0.149E-04
DAV:   6    -0.363364988160E+02    0.23217E-08   -0.25919E-08    48   0.712E-04
  22 F= -.36336499E+02 E0= -.36336499E+02  d E =-.209972E-03
       N       E                     dE             d eps       ncg     rms          rms(c)
DAV:   1    -0.363367362581E+02   -0.23744E-03   -0.14728E-04    80   0.107E-01    0.245E-03
DAV:   2    -0.363367363016E+02   -0.43586E-07   -0.16794E-06    48   0.106E-02    0.159E-03
DAV:   3    -0.363367363254E+02   -0.23766E-07   -0.22454E-07    48   0.403E-03    0.572E-04
DAV:   4    -0.363367363359E+02   -0.10538E-07   -0.69116E-08    48   0.188E-03    0.197E-04
DAV:   5    -0.363367363365E+02   -0.55866E-09   -0.29047E-08    48   0.859E-04    0.766E-05
DAV:   6    -0.363367363400E+02   -0.35436E-08   -0.20613E-08    48   0.426E-04
  23 F= -.36336736E+02 E0= -.36336736E+02  d E =-.237524E-03
       N       E                     dE             d eps       ncg     rms          rms(c)
DAV:   1    -0.363369971654E+02   -0.26083E-03   -0.22064E-04    96   0.131E-01    0.295E-03
DAV:   2    -0.363369972344E+02   -0.68971E-07   -0.24816E-06    48   0.127E-02    0.197E-03
DAV:   3    -0.363369972632E+02   -0.28839E-07   -0.31598E-07    48   0.487E-03    0.552E-04
DAV:   4    -0.363369972742E+02   -0.10962E-07   -0.88351E-08    48   0.213E-03    0.204E-04
DAV:   5    -0.363369972756E+02   -0.14634E-08   -0.33856E-08    48   0.974E-04    0.844E-05
DAV:   6    -0.363369972812E+02   -0.55938E-08   -0.22917E-08    48   0.518E-04
  24 F= -.36336997E+02 E0= -.36336997E+02  d E =-.260941E-03
       N       E                     dE             d eps       ncg     rms          rms(c)
DAV:   1    -0.363372773183E+02   -0.28004E-03   -0.34376E-04    96   0.163E-01    0.369E-03
DAV:   2    -0.363372774293E+02   -0.11099E-06   -0.38928E-06    48   0.157E-02    0.246E-03
DAV:   3    -0.363372774626E+02   -0.33288E-07   -0.48529E-07    48   0.607E-03    0.747E-04
DAV:   4    -0.363372774815E+02   -0.18871E-07   -0.13433E-07    48   0.274E-03    0.274E-04
DAV:   5    -0.363372774854E+02   -0.39338E-08   -0.44170E-08    48   0.124E-03    0.125E-04
DAV:   6    -0.363372774940E+02   -0.85765E-08   -0.26766E-08    48   0.661E-04
  25 F= -.36337277E+02 E0= -.36337277E+02  d E =-.280213E-03
       N       E                     dE             d eps       ncg     rms          rms(c)
DAV:   1    -0.363375712269E+02   -0.29374E-03   -0.53069E-04    96   0.201E-01    0.445E-03
DAV:   2    -0.363375714524E+02   -0.22546E-06   -0.59929E-06    48   0.194E-02    0.297E-03
DAV:   3    -0.363375715166E+02   -0.64220E-07   -0.73176E-07    48   0.747E-03    0.903E-04
DAV:   4    -0.363375715519E+02   -0.35311E-07   -0.19634E-07    48   0.336E-03    0.326E-04
DAV:   5    -0.363375715589E+02   -0.70204E-08   -0.58981E-08    48   0.153E-03    0.123E-04
DAV:   6    -0.363375715713E+02   -0.12428E-07   -0.31603E-08    48   0.771E-04
  26 F= -.36337572E+02 E0= -.36337572E+02  d E =-.294077E-03
       N       E                     dE             d eps       ncg     rms          rms(c)
DAV:   1    -0.363378751935E+02   -0.30363E-03   -0.83330E-04    96   0.252E-01    0.557E-03
DAV:   2    -0.363378755670E+02   -0.37359E-06   -0.94483E-06    48   0.242E-02    0.371E-03
DAV:   3    -0.363378756575E+02   -0.90480E-07   -0.11538E-06    48   0.941E-03    0.117E-03
DAV:   4    -0.363378757171E+02   -0.59594E-07   -0.31071E-07    48   0.432E-03    0.426E-04
DAV:   5    -0.363378757263E+02   -0.91777E-08   -0.84354E-08    48   0.196E-03    0.174E-04
DAV:   6    -0.363378757400E+02   -0.13724E-07   -0.40061E-08    48   0.981E-04
  27 F= -.36337876E+02 E0= -.36337876E+02  d E =-.304169E-03
       N       E                     dE             d eps       ncg     rms          rms(c)
DAV:   1    -0.363381620277E+02   -0.28630E-03   -0.11401E-03    96   0.294E-01    0.657E-03
DAV:   2    -0.363381624886E+02   -0.46092E-06   -0.12872E-05    48   0.281E-02    0.438E-03
DAV:   3    -0.363381625693E+02   -0.80642E-07   -0.15435E-06    48   0.108E-02    0.152E-03
DAV:   4    -0.363381626501E+02   -0.80863E-07   -0.43042E-07    48   0.515E-03    0.518E-04
DAV:   5    -0.363381626661E+02   -0.15975E-07   -0.11246E-07    48   0.232E-03    0.242E-04
DAV:   6    -0.363381626881E+02   -0.22035E-07   -0.49155E-08    48   0.118E-03
  28 F= -.36338163E+02 E0= -.36338163E+02  d E =-.286948E-03
       N       E                     dE             d eps       ncg     rms          rms(c)
DAV:   1    -0.363383920638E+02   -0.22940E-03   -0.13772E-03    96   0.321E-01    0.716E-03
DAV:   2    -0.363383927172E+02   -0.65335E-06   -0.15717E-05    48   0.308E-02    0.478E-03
DAV:   3    -0.363383928291E+02   -0.11189E-06   -0.19457E-06    48   0.122E-02    0.153E-03
DAV:   4    -0.363383929361E+02   -0.10708E-06   -0.53543E-07    48   0.575E-03    0.571E-04
DAV:   5    -0.363383929580E+02   -0.21911E-07   -0.13244E-07    48   0.260E-03    0.256E-04
DAV:   6    -0.363383929856E+02   -0.27589E-07   -0.56534E-08    48   0.131E-03
  29 F= -.36338393E+02 E0= -.36338393E+02  d E =-.230297E-03
       N       E                     dE             d eps       ncg     rms          rms(c)
DAV:   1    -0.363383841882E+02    0.87699E-05   -0.25572E-06    48   0.148E-02    0.687E-04
DAV:   2    -0.363383842075E+02   -0.19369E-07   -0.14368E-07    48   0.354E-03    0.370E-04
DAV:   3    -0.363383842303E+02   -0.22820E-07   -0.31098E-08    48   0.109E-03    0.217E-04
DAV:   4    -0.363383842837E+02   -0.53317E-07   -0.26643E-08    48   0.807E-04    0.697E-05
DAV:   5    -0.363383843067E+02   -0.23028E-07   -0.20111E-08    48   0.369E-04    0.476E-05
DAV:   6    -0.363383843431E+02   -0.36435E-07   -0.19087E-08    48   0.183E-04
  30 F= -.36338384E+02 E0= -.36338384E+02  d E =0.864252E-05
       N       E                     dE             d eps       ncg     rms          rms(c)
DAV:   1    -0.363383713873E+02    0.12919E-04   -0.53918E-06    48   0.215E-02    0.983E-04
DAV:   2    -0.363383714000E+02   -0.12679E-07   -0.27858E-07    48   0.512E-03    0.532E-04
DAV:   3    -0.363383714103E+02   -0.10264E-07   -0.43339E-08    48   0.154E-03    0.313E-04
DAV:   4    -0.363383714404E+02   -0.30095E-07   -0.35088E-08    48   0.120E-03    0.102E-04
DAV:   5    -0.363383714508E+02   -0.10403E-07   -0.21146E-08    48   0.523E-04    0.697E-05
DAV:   6    -0.363383714647E+02   -0.13869E-07   -0.18670E-08    48   0.220E-04
  31 F= -.36338371E+02 E0= -.36338371E+02  d E =0.128785E-04
       N       E                     dE             d eps       ncg     rms          rms(c)
DAV:   1    -0.363383720226E+02   -0.57186E-06   -0.37704E-08    48   0.135E-03    0.576E-05
DAV:   2    -0.363383720303E+02   -0.76936E-08   -0.18717E-08    48   0.314E-04    0.313E-05
DAV:   3    -0.363383720367E+02   -0.63578E-08   -0.17754E-08    48   0.976E-05    0.190E-05
DAV:   4    -0.363383720484E+02   -0.11742E-07   -0.17449E-08    48   0.692E-05    0.532E-06
DAV:   5    -0.363383720514E+02   -0.29588E-08   -0.17335E-08    48   0.360E-05    0.350E-06
DAV:   6    -0.363383720555E+02   -0.41450E-08   -0.17202E-08    48   0.214E-05
  32 F= -.36338372E+02 E0= -.36338372E+02  d E =-.590888E-06
       N       E                     dE             d eps       ncg     rms          rms(c)
DAV:   1    -0.363383750702E+02   -0.30188E-05   -0.87499E-08    48   0.255E-03    0.114E-04
DAV:   2    -0.363383750726E+02   -0.23970E-08   -0.20253E-08    48   0.598E-04    0.582E-05
DAV:   3    -0.363383750742E+02   -0.16191E-08   -0.17242E-08    48   0.183E-04    0.346E-05
DAV:   4    -0.363383750764E+02   -0.21944E-08   -0.16972E-08    48   0.130E-04    0.106E-05
DAV:   5    -0.363383750766E+02   -0.17963E-09   -0.16784E-08    48   0.571E-05    0.726E-06
DAV:   6    -0.363383750771E+02   -0.55024E-09   -0.16704E-08    48   0.239E-05
  33 F= -.36338375E+02 E0= -.36338375E+02  d E =-.302159E-05
       N       E                     dE             d eps       ncg     rms          rms(c)
DAV:   1    -0.363383829286E+02   -0.78520E-05   -0.15736E-07    48   0.362E-03    0.146E-04
DAV:   2    -0.363383829303E+02   -0.16475E-08   -0.22870E-08    48   0.832E-04    0.744E-05
DAV:   3    -0.363383829310E+02   -0.72669E-09   -0.17307E-08    48   0.255E-04    0.457E-05
DAV:   4    -0.363383829313E+02   -0.33356E-09   -0.16901E-08    48   0.164E-04    0.120E-05
DAV:   5    -0.363383829313E+02    0.65256E-10   -0.16697E-08    48   0.724E-05    0.872E-06
DAV:   6    -0.363383829313E+02   -0.12278E-10   -0.16611E-08    48   0.310E-05
  34 F= -.36338383E+02 E0= -.36338383E+02  d E =-.785413E-05
       N       E                     dE             d eps       ncg     rms          rms(c)
DAV:   1    -0.363383982283E+02   -0.15297E-04   -0.27396E-07    48   0.489E-03    0.163E-04
DAV:   2    -0.363383982306E+02   -0.22983E-08   -0.27142E-08    48   0.109E-03    0.834E-05
DAV:   3    -0.363383982311E+02   -0.50227E-09   -0.17794E-08    48   0.338E-04    0.555E-05
DAV:   4    -0.363383982313E+02   -0.11914E-09   -0.16884E-08    48   0.175E-04    0.157E-05
DAV:   5    -0.363383982310E+02    0.28535E-09   -0.16597E-08    48   0.834E-05    0.945E-06
DAV:   6    -0.363383982308E+02    0.16416E-09   -0.16467E-08    48   0.401E-05
  35 F= -.36338398E+02 E0= -.36338398E+02  d E =-.152995E-04
       N       E                     dE             d eps       ncg     rms          rms(c)
DAV:   1    -0.363384237051E+02   -0.25474E-04   -0.52606E-07    48   0.682E-03    0.196E-04
DAV:   2    -0.363384237076E+02   -0.25123E-08   -0.35732E-08    48   0.146E-03    0.970E-05
DAV:   3    -0.363384237083E+02   -0.64688E-09   -0.18903E-08    48   0.454E-04    0.609E-05
DAV:   4    -0.363384237082E+02    0.94360E-10   -0.17023E-08    48   0.205E-04    0.192E-05
DAV:   5    -0.363384237080E+02    0.16280E-09   -0.16617E-08    48   0.999E-05    0.759E-06
DAV:   6    -0.363384237079E+02    0.10004E-09   -0.16458E-08    48   0.528E-05
  36 F= -.36338424E+02 E0= -.36338424E+02  d E =-.254771E-04
       N       E                     dE             d eps       ncg     rms          rms(c)
DAV:   1    -0.363384621765E+02   -0.38468E-04   -0.10599E-06    48   0.964E-03    0.257E-04
DAV:   2    -0.363384621801E+02   -0.36321E-08   -0.54804E-08    48   0.204E-03    0.130E-04
DAV:   3    -0.363384621810E+02   -0.93587E-09   -0.21383E-08    48   0.625E-04    0.731E-05
DAV:   4    -0.363384621809E+02    0.11619E-09   -0.17559E-08    48   0.276E-04    0.229E-05
DAV:   5    -0.363384621806E+02    0.36607E-09   -0.16728E-08    48   0.132E-04    0.935E-06
DAV:   6    -0.363384621804E+02    0.20100E-09   -0.16480E-08    48   0.739E-05
  37 F= -.36338462E+02 E0= -.36338462E+02  d E =-.384724E-04
       N       E                     dE             d eps       ncg     rms          rms(c)
DAV:   1    -0.363385234654E+02   -0.61285E-04   -0.26153E-06    48   0.150E-02    0.395E-04
DAV:   2    -0.363385234725E+02   -0.71370E-08   -0.11197E-07    48   0.317E-03    0.206E-04
DAV:   3    -0.363385234745E+02   -0.20086E-08   -0.28436E-08    48   0.962E-04    0.106E-04
DAV:   4    -0.363385234743E+02    0.28172E-09   -0.19283E-08    48   0.427E-04    0.362E-05
DAV:   5    -0.363385234738E+02    0.44611E-09   -0.17186E-08    48   0.206E-04    0.178E-05
DAV:   6    -0.363385234733E+02    0.48385E-09   -0.16604E-08    48   0.118E-04
  38 F= -.36338523E+02 E0= -.36338523E+02  d E =-.612930E-04
       N       E                     dE             d eps       ncg     rms          rms(c)
DAV:   1    -0.363386138071E+02   -0.90333E-04   -0.57120E-06    48   0.221E-02    0.583E-04
DAV:   2    -0.363386138215E+02   -0.14407E-07   -0.22704E-07    48   0.466E-03    0.312E-04
DAV:   3    -0.363386138255E+02   -0.39283E-08   -0.42382E-08    48   0.141E-03    0.151E-04
DAV:   4    -0.363386138251E+02    0.41814E-09   -0.22698E-08    48   0.627E-04    0.558E-05
DAV:   5    -0.363386138244E+02    0.66461E-09   -0.18103E-08    48   0.303E-04    0.289E-05
DAV:   6    -0.363386138238E+02    0.61345E-09   -0.16773E-08    48   0.177E-04
  39 F= -.36338614E+02 E0= -.36338614E+02  d E =-.903505E-04
       N       E                     dE             d eps       ncg     rms          rms(c)
DAV:   1    -0.363387405317E+02   -0.12671E-03   -0.11400E-05    48   0.309E-02    0.822E-04
DAV:   2    -0.363387405606E+02   -0.28894E-07   -0.43756E-07    48   0.655E-03    0.444E-04
DAV:   3    -0.363387405681E+02   -0.74460E-08   -0.67651E-08    48   0.197E-03    0.208E-04
DAV:   4    -0.363387405680E+02    0.96406E-10   -0.28845E-08    48   0.876E-04    0.781E-05
DAV:   5    -0.363387405669E+02    0.10423E-08   -0.19772E-08    48   0.422E-04    0.415E-05
DAV:   6    -0.363387405659E+02    0.99249E-09   -0.17153E-08    48   0.249E-04
  40 F= -.36338741E+02 E0= -.36338741E+02  d E =-.126742E-03
       N       E                     dE             d eps       ncg     rms          rms(c)
DAV:   1    -0.363389113206E+02   -0.17075E-03   -0.21456E-05    48   0.421E-02    0.112E-03
DAV:   2    -0.363389113764E+02   -0.55837E-07   -0.81095E-07    48   0.898E-03    0.605E-04
DAV:   3    -0.363389113911E+02   -0.14644E-07   -0.11215E-07    48   0.269E-03    0.280E-04
DAV:   4    -0.363389113918E+02   -0.73214E-09   -0.39641E-08    48   0.118E-03    0.987E-05
DAV:   5    -0.363389113905E+02    0.13490E-08   -0.22787E-08    48   0.566E-04    0.552E-05
DAV:   6    -0.363389113889E+02    0.15989E-08   -0.17996E-08    48   0.337E-04
  41 F= -.36338911E+02 E0= -.36338911E+02  d E =-.170823E-03
       N       E                     dE             d eps       ncg     rms          rms(c)
DAV:   1    -0.363391329993E+02   -0.22161E-03   -0.39507E-05    48   0.566E-02    0.149E-03
DAV:   2    -0.363391331074E+02   -0.10808E-06   -0.15029E-06    48   0.123E-02    0.811E-04
DAV:   3    -0.363391331356E+02   -0.28202E-07   -0.19358E-07    48   0.366E-03    0.376E-04
DAV:   4    -0.363391331385E+02   -0.28308E-08   -0.58720E-08    48   0.159E-03    0.118E-04
DAV:   5    -0.363391331366E+02    0.19088E-08   -0.28334E-08    48   0.756E-04    0.704E-05
DAV:   6    -0.363391331342E+02    0.23340E-08   -0.19592E-08    48   0.442E-04
  42 F= -.36339133E+02 E0= -.36339133E+02  d E =-.221745E-03
       N       E                     dE             d eps       ncg     rms          rms(c)
DAV:   1    -0.363394118316E+02   -0.27870E-03   -0.74509E-05    48   0.772E-02    0.198E-03
DAV:   2    -0.363394120525E+02   -0.22089E-06   -0.29233E-06    48   0.171E-02    0.111E-03
DAV:   3    -0.363394121051E+02   -0.52667E-07   -0.35585E-07    48   0.505E-03    0.516E-04
DAV:   4    -0.363394121122E+02   -0.70879E-08   -0.96590E-08    48   0.221E-03    0.147E-04
DAV:   5    -0.363394121102E+02    0.19776E-08   -0.39614E-08    48   0.105E-03    0.953E-05
DAV:   6    -0.363394121064E+02    0.38252E-08   -0.23002E-08    48   0.595E-04
  43 F= -.36339412E+02 E0= -.36339412E+02  d E =-.278972E-03
       N       E                     dE             d eps       ncg     rms          rms(c)
DAV:   1    -0.363397556070E+02   -0.34350E-03   -0.13923E-04    96   0.103E-01    0.249E-03
DAV:   2    -0.363397556014E+02    0.56142E-08   -0.14069E-06    48   0.987E-03    0.154E-03
DAV:   3    -0.363397556310E+02   -0.29587E-07   -0.21123E-07    48   0.376E-03    0.526E-04
DAV:   4    -0.363397556387E+02   -0.77418E-08   -0.60385E-08    48   0.169E-03    0.149E-04
DAV:   5    -0.363397556377E+02    0.99885E-09   -0.26962E-08    48   0.781E-04    0.607E-05
DAV:   6    -0.363397556418E+02   -0.40732E-08   -0.19547E-08    48   0.410E-04
  44 F= -.36339756E+02 E0= -.36339756E+02  d E =-.343535E-03
       N       E                     dE             d eps       ncg     rms          rms(c)
DAV:   1    -0.363401700000E+02   -0.41436E-03   -0.23771E-04    96   0.135E-01    0.319E-03
DAV:   2    -0.363401700221E+02   -0.22083E-07   -0.24897E-06    48   0.130E-02    0.201E-03
DAV:   3    -0.363401700688E+02   -0.46682E-07   -0.34657E-07    48   0.496E-03    0.670E-04
DAV:   4    -0.363401700844E+02   -0.15674E-07   -0.90861E-08    48   0.221E-03    0.200E-04
DAV:   5    -0.363401700847E+02   -0.25170E-09   -0.33978E-08    48   0.101E-03    0.771E-05
DAV:   6    -0.363401700916E+02   -0.69392E-08   -0.22040E-08    48   0.519E-04
  45 F= -.36340170E+02 E0= -.36340170E+02  d E =-.414450E-03
       N       E                     dE             d eps       ncg     rms          rms(c)
DAV:   1    -0.363406588581E+02   -0.48877E-03   -0.38387E-04    96   0.170E-01    0.399E-03
DAV:   2    -0.363406589324E+02   -0.74326E-07   -0.41217E-06    48   0.165E-02    0.256E-03
DAV:   3    -0.363406590016E+02   -0.69117E-07   -0.54806E-07    48   0.634E-03    0.767E-04
DAV:   4    -0.363406590232E+02   -0.21672E-07   -0.13532E-07    48   0.275E-03    0.252E-04
DAV:   5    -0.363406590241E+02   -0.91563E-09   -0.44666E-08    48   0.126E-03    0.938E-05
DAV:   6    -0.363406590343E+02   -0.10160E-07   -0.25783E-08    48   0.659E-04
  46 F= -.36340659E+02 E0= -.36340659E+02  d E =-.488943E-03
       N       E                     dE             d eps       ncg     rms          rms(c)
DAV:   1    -0.363412209657E+02   -0.56194E-03   -0.58832E-04    96   0.210E-01    0.488E-03
DAV:   2    -0.363412211211E+02   -0.15539E-06   -0.64312E-06    48   0.205E-02    0.319E-03
DAV:   3    -0.363412212171E+02   -0.96063E-07   -0.83049E-07    48   0.790E-03    0.871E-04
DAV:   4    -0.363412212469E+02   -0.29794E-07   -0.19757E-07    48   0.337E-03    0.313E-04
DAV:   5    -0.363412212501E+02   -0.31764E-08   -0.59405E-08    48   0.155E-03    0.120E-04
DAV:   6    -0.363412212645E+02   -0.14384E-07   -0.30970E-08    48   0.820E-04
  47 F= -.36341221E+02 E0= -.36341221E+02  d E =-.562230E-03
       N       E                     dE             d eps       ncg     rms          rms(c)
DAV:   1    -0.363418479559E+02   -0.62671E-03   -0.85495E-04    96   0.253E-01    0.582E-03
DAV:   2    -0.363418482332E+02   -0.27729E-06   -0.94756E-06    48   0.247E-02    0.383E-03
DAV:   3    -0.363418483668E+02   -0.13364E-06   -0.11955E-06    48   0.951E-03    0.105E-03
DAV:   4    -0.363418484151E+02   -0.48315E-07   -0.28194E-07    48   0.407E-03    0.386E-04
DAV:   5    -0.363418484241E+02   -0.90029E-08   -0.78726E-08    48   0.186E-03    0.144E-04
DAV:   6    -0.363418484457E+02   -0.21538E-07   -0.37635E-08    48   0.975E-04
  48 F= -.36341848E+02 E0= -.36341848E+02  d E =-.627181E-03
       N       E                     dE             d eps       ncg     rms          rms(c)
DAV:   1    -0.363425195437E+02   -0.67112E-03   -0.11655E-03    96   0.295E-01    0.673E-03
DAV:   2    -0.363425199808E+02   -0.43704E-06   -0.13072E-05    48   0.288E-02    0.445E-03
DAV:   3    -0.363425201487E+02   -0.16791E-06   -0.16222E-06    48   0.111E-02    0.129E-03
DAV:   4    -0.363425202251E+02   -0.76394E-07   -0.38619E-07    48   0.483E-03    0.485E-04
DAV:   5    -0.363425202416E+02   -0.16543E-07   -0.10158E-07    48   0.218E-03    0.169E-04
DAV:   6    -0.363425202712E+02   -0.29557E-07   -0.45117E-08    48   0.112E-03
  49 F= -.36342520E+02 E0= -.36342520E+02  d E =-.671826E-03
       N       E                     dE             d eps       ncg     rms          rms(c)
DAV:   1    -0.363431967731E+02   -0.67653E-03   -0.14240E-03    96   0.325E-01    0.740E-03
DAV:   2    -0.363431973245E+02   -0.55144E-06   -0.15953E-05    48   0.314E-02    0.493E-03
DAV:   3    -0.363431975171E+02   -0.19255E-06   -0.19429E-06    48   0.121E-02    0.135E-03
DAV:   4    -0.363431976055E+02   -0.88452E-07   -0.45944E-07    48   0.522E-03    0.523E-04
DAV:   5    -0.363431976284E+02   -0.22922E-07   -0.11761E-07    48   0.235E-03    0.222E-04
DAV:   6    -0.363431976635E+02   -0.35084E-07   -0.51543E-08    48   0.124E-03
  50 F= -.36343198E+02 E0= -.36343198E+02  d E =-.677392E-03
       N       E                     dE             d eps       ncg     rms          rms(c)
DAV:   1    -0.363431936753E+02    0.39531E-05   -0.15403E-07    48   0.353E-03    0.118E-04
DAV:   2    -0.363431937146E+02   -0.39218E-07   -0.26576E-08    48   0.968E-04    0.796E-05
DAV:   3    -0.363431937545E+02   -0.39929E-07   -0.16873E-08    48   0.388E-04    0.564E-05
DAV:   4    -0.363431938423E+02   -0.87787E-07   -0.16730E-08    48   0.299E-04    0.223E-05
DAV:   5    -0.363431938705E+02   -0.28194E-07   -0.15357E-08    48   0.177E-04    0.186E-05
DAV:   6    -0.363431939673E+02   -0.96825E-07   -0.16726E-08    64   0.162E-04
  51 F= -.36343194E+02 E0= -.36343194E+02  d E =0.369622E-05
       N       E                     dE             d eps       ncg     rms          rms(c)
DAV:   1    -0.363431969117E+02   -0.30413E-05   -0.29499E-07    48   0.516E-03    0.167E-04
DAV:   2    -0.363431969316E+02   -0.19908E-07   -0.28978E-08    48   0.122E-03    0.102E-04
DAV:   3    -0.363431969488E+02   -0.17201E-07   -0.16835E-08    48   0.378E-04    0.639E-05
DAV:   4    -0.363431969766E+02   -0.27781E-07   -0.16319E-08    48   0.244E-04    0.187E-05
DAV:   5    -0.363431969845E+02   -0.78491E-08   -0.15820E-08    48   0.115E-04    0.140E-05
DAV:   6    -0.363431969948E+02   -0.10319E-07   -0.15807E-08    48   0.590E-05
  52 F= -.36343197E+02 E0= -.36343197E+02  d E =-.302750E-05
       N       E                     dE             d eps       ncg     rms          rms(c)
DAV:   1    -0.363432197962E+02   -0.22812E-04   -0.61514E-07    48   0.751E-03    0.189E-04
DAV:   2    -0.363432198037E+02   -0.75029E-08   -0.41100E-08    48   0.169E-03    0.113E-04
DAV:   3    -0.363432198085E+02   -0.47244E-08   -0.19071E-08    48   0.522E-04    0.710E-05
DAV:   4    -0.363432198139E+02   -0.53992E-08   -0.17008E-08    48   0.248E-04    0.184E-05
DAV:   5    -0.363432198161E+02   -0.22042E-08   -0.16552E-08    48   0.119E-04    0.117E-05
DAV:   6    -0.363432198183E+02   -0.22644E-08   -0.16476E-08    48   0.646E-05
  53 F= -.36343220E+02 E0= -.36343220E+02  d E =-.228235E-04
       N       E                     dE             d eps       ncg     rms          rms(c)
DAV:   1    -0.363432756139E+02   -0.55798E-04   -0.23581E-06    48   0.144E-02    0.363E-04
DAV:   2    -0.363432756218E+02   -0.79303E-08   -0.10724E-07    48   0.313E-03    0.206E-04
DAV:   3    -0.363432756241E+02   -0.22942E-08   -0.27723E-08    48   0.953E-04    0.956E-05
DAV:   4    -0.363432756245E+02   -0.38744E-09   -0.19281E-08    48   0.427E-04    0.311E-05
DAV:   5    -0.363432756245E+02    0.11369E-11   -0.17318E-08    48   0.208E-04    0.182E-05
DAV:   6    -0.363432756246E+02   -0.35698E-10   -0.16739E-08    48   0.121E-04
  54 F= -.36343276E+02 E0= -.36343276E+02  d E =-.558062E-04
       N       E                     dE             d eps       ncg     rms          rms(c)
DAV:   1    -0.363433767078E+02   -0.10108E-03   -0.73271E-06    48   0.250E-02    0.654E-04
DAV:   2    -0.363433767277E+02   -0.19888E-07   -0.29717E-07    48   0.539E-03    0.370E-04
DAV:   3    -0.363433767324E+02   -0.46925E-08   -0.50919E-08    48   0.163E-03    0.165E-04
DAV:   4    -0.363433767325E+02   -0.13301E-09   -0.25144E-08    48   0.733E-04    0.649E-05
DAV:   5    -0.363433767318E+02    0.64028E-09   -0.18895E-08    48   0.357E-04    0.357E-05
DAV:   6    -0.363433767310E+02    0.86925E-09   -0.17096E-08    48   0.212E-04
  55 F= -.36343377E+02 E0= -.36343377E+02  d E =-.101106E-03
       N       E                     dE             d eps       ncg     rms          rms(c)
DAV:   1    -0.363435206635E+02   -0.14393E-03   -0.14508E-05    48   0.351E-02    0.920E-04
DAV:   2    -0.363435207027E+02   -0.39280E-07   -0.56704E-07    48   0.752E-03    0.513E-04
DAV:   3    -0.363435207127E+02   -0.99574E-08   -0.84598E-08    48   0.228E-03    0.232E-04
DAV:   4    -0.363435207132E+02   -0.48544E-09   -0.33469E-08    48   0.102E-03    0.891E-05
DAV:   5    -0.363435207121E+02    0.10750E-08   -0.21188E-08    48   0.497E-04    0.482E-05
DAV:   6    -0.363435207108E+02    0.12753E-08   -0.17663E-08    48   0.295E-04
  56 F= -.36343521E+02 E0= -.36343521E+02  d E =-.143980E-03
       N       E                     dE             d eps       ncg     rms          rms(c)
DAV:   1    -0.363437266702E+02   -0.20596E-03   -0.29016E-05    48   0.496E-02    0.129E-03
DAV:   2    -0.363437267490E+02   -0.78794E-07   -0.11008E-06    48   0.106E-02    0.708E-04
DAV:   3    -0.363437267709E+02   -0.21875E-07   -0.15316E-07    48   0.322E-03    0.336E-04
DAV:   4    -0.363437267730E+02   -0.20727E-08   -0.50002E-08    48   0.142E-03    0.113E-04
DAV:   5    -0.363437267717E+02    0.12668E-08   -0.26009E-08    48   0.692E-04    0.611E-05
DAV:   6    -0.363437267700E+02    0.17529E-08   -0.19062E-08    48   0.405E-04
  57 F= -.36343727E+02 E0= -.36343727E+02  d E =-.206059E-03
       N       E                     dE             d eps       ncg     rms          rms(c)
DAV:   1    -0.363440039040E+02   -0.27713E-03   -0.52157E-05    48   0.666E-02    0.174E-03
DAV:   2    -0.363440040439E+02   -0.13997E-06   -0.19515E-06    48   0.142E-02    0.940E-04
DAV:   3    -0.363440040836E+02   -0.39718E-07   -0.26431E-07    48   0.434E-03    0.481E-04
DAV:   4    -0.363440040904E+02   -0.67789E-08   -0.76175E-08    48   0.191E-03    0.143E-04
DAV:   5    -0.363440040888E+02    0.16237E-08   -0.33652E-08    48   0.922E-04    0.732E-05
DAV:   6    -0.363440040874E+02    0.14061E-08   -0.21363E-08    48   0.527E-04
  58 F= -.36344004E+02 E0= -.36344004E+02  d E =-.277317E-03
       N       E                     dE             d eps       ncg     rms          rms(c)
DAV:   1    -0.363443605602E+02   -0.35647E-03   -0.86701E-05    48   0.859E-02    0.226E-03
DAV:   2    -0.363443607905E+02   -0.23032E-06   -0.32385E-06    48   0.184E-02    0.122E-03
DAV:   3    -0.363443608553E+02   -0.64759E-07   -0.43141E-07    48   0.562E-03    0.646E-04
DAV:   4    -0.363443608692E+02   -0.13928E-07   -0.11633E-07    48   0.248E-03    0.185E-04
DAV:   5    -0.363443608681E+02    0.11739E-08   -0.45632E-08    48   0.119E-03    0.925E-05
DAV:   6    -0.363443608665E+02    0.15543E-08   -0.25197E-08    48   0.673E-04
  59 F= -.36344361E+02 E0= -.36344361E+02  d E =-.356779E-03
       N       E                     dE             d eps       ncg     rms          rms(c)
DAV:   1    -0.363448026020E+02   -0.44173E-03   -0.13727E-04    96   0.106E-01    0.267E-03
DAV:   2    -0.363448025365E+02    0.65514E-07   -0.10061E-06    48   0.890E-03    0.156E-03
DAV:   3    -0.363448025794E+02   -0.42881E-07   -0.18683E-07    48   0.333E-03    0.588E-04
DAV:   4    -0.363448025911E+02   -0.11648E-07   -0.58470E-08    48   0.159E-03    0.134E-04
DAV:   5    -0.363448025911E+02   -0.42292E-10   -0.27842E-08    48   0.773E-04    0.673E-05
DAV:   6    -0.363448025958E+02   -0.47100E-08   -0.19894E-08    48   0.432E-04
  60 F= -.36344803E+02 E0= -.36344803E+02  d E =-.441729E-03
       N       E                     dE             d eps       ncg     rms          rms(c)
DAV:   1    -0.363453243846E+02   -0.52179E-03   -0.19393E-04    96   0.125E-01    0.311E-03
DAV:   2    -0.363453243174E+02    0.67221E-07   -0.14606E-06    48   0.104E-02    0.188E-03
DAV:   3    -0.363453243783E+02   -0.60893E-07   -0.26293E-07    48   0.405E-03    0.542E-04
DAV:   4    -0.363453243886E+02   -0.10305E-07   -0.74627E-08    48   0.182E-03    0.182E-04
DAV:   5    -0.363453243892E+02   -0.58549E-09   -0.32302E-08    48   0.942E-04    0.802E-05
DAV:   6    -0.363453243967E+02   -0.75274E-08   -0.21830E-08    48   0.539E-04
  61 F= -.36345324E+02 E0= -.36345324E+02  d E =-.521801E-03
       N       E                     dE             d eps       ncg     rms          rms(c)
DAV:   1    -0.363459035567E+02   -0.57917E-03   -0.24823E-04    96   0.141E-01    0.350E-03
DAV:   2    -0.363459034897E+02    0.67009E-07   -0.19464E-06    48   0.120E-02    0.212E-03
DAV:   3    -0.363459035690E+02   -0.79332E-07   -0.33693E-07    48   0.461E-03    0.682E-04
DAV:   4    -0.363459035899E+02   -0.20915E-07   -0.91128E-08    48   0.208E-03    0.191E-04
DAV:   5    -0.363459035929E+02   -0.30059E-08   -0.36830E-08    48   0.102E-03    0.876E-05
DAV:   6    -0.363459036036E+02   -0.10633E-07   -0.23243E-08    48   0.579E-04
  62 F= -.36345904E+02 E0= -.36345904E+02  d E =-.579207E-03
       N       E                     dE             d eps       ncg     rms          rms(c)
DAV:   1    -0.363464858451E+02   -0.58225E-03   -0.28239E-04    96   0.149E-01    0.368E-03
DAV:   2    -0.363464858176E+02    0.27483E-07   -0.25051E-06    48   0.134E-02    0.227E-03
DAV:   3    -0.363464859022E+02   -0.84638E-07   -0.40211E-07    48   0.513E-03    0.791E-04
DAV:   4    -0.363464859333E+02   -0.31073E-07   -0.10412E-07    48   0.233E-03    0.224E-04
DAV:   5    -0.363464859384E+02   -0.50891E-08   -0.39039E-08    48   0.109E-03    0.946E-05
DAV:   6    -0.363464859509E+02   -0.12466E-07   -0.23725E-08    48   0.598E-04
  63 F= -.36346486E+02 E0= -.36346486E+02  d E =-.582347E-03
       N       E                     dE             d eps       ncg     rms          rms(c)
DAV:   1    -0.363464810854E+02    0.48530E-05   -0.18701E-07    48   0.396E-03    0.136E-04
DAV:   2    -0.363464810975E+02   -0.12102E-07   -0.23884E-08    48   0.950E-04    0.756E-05
DAV:   3    -0.363464811085E+02   -0.11057E-07   -0.15978E-08    48   0.319E-04    0.502E-05
DAV:   4    -0.363464811333E+02   -0.24830E-07   -0.15190E-08    48   0.196E-04    0.170E-05
DAV:   5    -0.363464811471E+02   -0.13758E-07   -0.14786E-08    48   0.104E-04    0.127E-05
DAV:   6    -0.363464811674E+02   -0.20257E-07   -0.14775E-08    48   0.763E-05
  64 F= -.36346481E+02 E0= -.36346481E+02  d E =0.478350E-05
       N       E                     dE             d eps       ncg     rms          rms(c)
DAV:   1    -0.363464789685E+02    0.21786E-05   -0.85233E-07    48   0.859E-03    0.258E-04
DAV:   2    -0.363464789754E+02   -0.68699E-08   -0.53776E-08    48   0.199E-03    0.148E-04
DAV:   3    -0.363464789794E+02   -0.40395E-08   -0.19276E-08    48   0.600E-04    0.991E-05
DAV:   4    -0.363464789877E+02   -0.82748E-08   -0.16451E-08    48   0.340E-04    0.277E-05
DAV:   5    -0.363464789916E+02   -0.39158E-08   -0.15628E-08    48   0.159E-04    0.216E-05
DAV:   6    -0.363464789949E+02   -0.33201E-08   -0.15487E-08    48   0.797E-05
  65 F= -.36346479E+02 E0= -.36346479E+02  d E =0.217246E-05
       N       E                     dE             d eps       ncg     rms          rms(c)
DAV:   1    -0.363464901220E+02   -0.11130E-04   -0.27531E-06    48   0.151E-02    0.375E-04
DAV:   2    -0.363464901313E+02   -0.92289E-08   -0.14138E-07    48   0.351E-03    0.234E-04
DAV:   3    -0.363464901328E+02   -0.14957E-08   -0.29807E-08    48   0.102E-03    0.145E-04
DAV:   4    -0.363464901337E+02   -0.97930E-09   -0.19663E-08    48   0.536E-04    0.355E-05
DAV:   5    -0.363464901349E+02   -0.11294E-08   -0.17036E-08    48   0.250E-04    0.310E-05
DAV:   6    -0.363464901352E+02   -0.32014E-09   -0.16282E-08    48   0.128E-04
  66 F= -.36346490E+02 E0= -.36346490E+02  d E =-.111403E-04
       N       E                     dE             d eps       ncg     rms          rms(c)
DAV:   1    -0.363465276413E+02   -0.37506E-04   -0.80314E-06    48   0.253E-02    0.574E-04
DAV:   2    -0.363465276707E+02   -0.29396E-07   -0.37559E-07    48   0.586E-03    0.370E-04
DAV:   3    -0.363465276751E+02   -0.44199E-08   -0.55129E-08    48   0.168E-03    0.190E-04
DAV:   4    -0.363465276753E+02   -0.15257E-09   -0.25673E-08    48   0.803E-04    0.472E-05
DAV:   5    -0.363465276753E+02   -0.31832E-10   -0.19104E-08    48   0.382E-04    0.412E-05
DAV:   6    -0.363465276749E+02    0.43156E-09   -0.17069E-08    48   0.206E-04
  67 F= -.36346528E+02 E0= -.36346528E+02  d E =-.375397E-04
       N       E                     dE             d eps       ncg     rms          rms(c)
DAV:   1    -0.363466064068E+02   -0.78732E-04   -0.20621E-05    48   0.402E-02    0.909E-04
DAV:   2    -0.363466064834E+02   -0.76592E-07   -0.92207E-07    48   0.930E-03    0.582E-04
DAV:   3    -0.363466064966E+02   -0.13171E-07   -0.11358E-07    48   0.265E-03    0.263E-04
DAV:   4    -0.363466064974E+02   -0.78103E-09   -0.39318E-08    48   0.122E-03    0.661E-05
DAV:   5    -0.363466064968E+02    0.54661E-09   -0.23331E-08    48   0.581E-04    0.568E-05
DAV:   6    -0.363466064956E+02    0.12467E-08   -0.18398E-08    48   0.323E-04
  68 F= -.36346606E+02 E0= -.36346606E+02  d E =-.788207E-04
       N       E                     dE             d eps       ncg     rms          rms(c)
DAV:   1    -0.363467247394E+02   -0.11824E-03   -0.38763E-05    48   0.551E-02    0.125E-03
DAV:   2    -0.363467248832E+02   -0.14380E-06   -0.17062E-06    48   0.127E-02    0.791E-04
DAV:   3    -0.363467249093E+02   -0.26051E-07   -0.19925E-07    48   0.365E-03    0.360E-04
DAV:   4    -0.363467249115E+02   -0.21962E-08   -0.59194E-08    48   0.167E-03    0.916E-05
DAV:   5    -0.363467249104E+02    0.10893E-08   -0.29362E-08    48   0.789E-04    0.754E-05
DAV:   6    -0.363467249079E+02    0.24529E-08   -0.20169E-08    48   0.440E-04
  69 F= -.36346725E+02 E0= -.36346725E+02  d E =-.118412E-03
       N       E                     dE             d eps       ncg     rms          rms(c)
DAV:   1    -0.363468999148E+02   -0.17500E-03   -0.77590E-05    48   0.780E-02    0.179E-03
DAV:   2    -0.363469002005E+02   -0.28563E-06   -0.33828E-06    48   0.180E-02    0.112E-03
DAV:   3    -0.363469002519E+02   -0.51410E-07   -0.38289E-07    48   0.518E-03    0.529E-04
DAV:   4    -0.363469002584E+02   -0.65606E-08   -0.10214E-07    48   0.237E-03    0.139E-04
DAV:   5    -0.363469002570E+02    0.14131E-08   -0.42294E-08    48   0.112E-03    0.109E-04
DAV:   6    -0.363469002527E+02    0.43044E-08   -0.24128E-08    48   0.619E-04
  70 F= -.36346900E+02 E0= -.36346900E+02  d E =-.175345E-03
       N       E                     dE             d eps       ncg     rms          rms(c)
DAV:   1    -0.363471432202E+02   -0.24296E-03   -0.14653E-04    80   0.105E-01    0.242E-03
DAV:   2    -0.363471432597E+02   -0.39522E-07   -0.16632E-06    48   0.104E-02    0.158E-03
DAV:   3    -0.363471432802E+02   -0.20434E-07   -0.22373E-07    48   0.398E-03    0.504E-04
DAV:   4    -0.363471432864E+02   -0.62569E-08   -0.65814E-08    48   0.179E-03    0.173E-04
DAV:   5    -0.363471432847E+02    0.17244E-08   -0.28082E-08    48   0.815E-04    0.620E-05
DAV:   6    -0.363471432871E+02   -0.24221E-08   -0.20249E-08    48   0.410E-04
  71 F= -.36347143E+02 E0= -.36347143E+02  d E =-.243034E-03
       N       E                     dE             d eps       ncg     rms          rms(c)
DAV:   1    -0.363474639715E+02   -0.32069E-03   -0.24662E-04    96   0.136E-01    0.312E-03
DAV:   2    -0.363474640440E+02   -0.72456E-07   -0.27520E-06    48   0.133E-02    0.205E-03
DAV:   3    -0.363474640789E+02   -0.34952E-07   -0.35638E-07    48   0.511E-03    0.605E-04
DAV:   4    -0.363474640913E+02   -0.12306E-07   -0.95083E-08    48   0.223E-03    0.211E-04
DAV:   5    -0.363474640909E+02    0.35232E-09   -0.35033E-08    48   0.102E-03    0.751E-05
DAV:   6    -0.363474640964E+02   -0.54681E-08   -0.22870E-08    48   0.519E-04
  72 F= -.36347464E+02 E0= -.36347464E+02  d E =-.320809E-03
       N       E                     dE             d eps       ncg     rms          rms(c)
DAV:   1    -0.363478698090E+02   -0.40572E-03   -0.38999E-04    96   0.171E-01    0.393E-03
DAV:   2    -0.363478699263E+02   -0.11730E-06   -0.43323E-06    48   0.166E-02    0.259E-03
DAV:   3    -0.363478699779E+02   -0.51544E-07   -0.55307E-07    48   0.643E-03    0.709E-04
DAV:   4    -0.363478699949E+02   -0.17021E-07   -0.13852E-07    48   0.275E-03    0.259E-04
DAV:   5    -0.363478699951E+02   -0.21123E-09   -0.45466E-08    48   0.126E-03    0.991E-05
DAV:   6    -0.363478700037E+02   -0.86105E-08   -0.26695E-08    48   0.659E-04
  73 F= -.36347870E+02 E0= -.36347870E+02  d E =-.405907E-03
       N       E                     dE             d eps       ncg     rms          rms(c)
DAV:   1    -0.363483627771E+02   -0.49278E-03   -0.58300E-04    96   0.209E-01    0.480E-03
DAV:   2    -0.363483629648E+02   -0.18773E-06   -0.64790E-06    48   0.203E-02    0.316E-03
DAV:   3    -0.363483630429E+02   -0.78066E-07   -0.81743E-07    48   0.784E-03    0.869E-04
DAV:   4    -0.363483630717E+02   -0.28803E-07   -0.19822E-07    48   0.336E-03    0.317E-04
DAV:   5    -0.363483630749E+02   -0.32401E-08   -0.59129E-08    48   0.153E-03    0.120E-04
DAV:   6    -0.363483630887E+02   -0.13794E-07   -0.31298E-08    48   0.800E-04
  74 F= -.36348363E+02 E0= -.36348363E+02  d E =-.493085E-03
