 vasp.5.4.1 24Jun15 (build Jan 13 2020 12:58:22) complex                        
  
 executed on           IFC91_ompi date 2020.02.05  18:18:08
 running on   15 total cores
 each image running on    1 cores
 distrk:  each k-point on    1 cores,    1 groups
 distr:  one band on NCORES_PER_BAND=   1 cores,    1 groups


--------------------------------------------------------------------------------------------------------


 INCAR:
 POTCAR:    PAW_PBE H 15Jun2001                   
 POTCAR:    PAW_PBE C 08Apr2002                   
 POTCAR:    PAW_PBE N 08Apr2002                   
 POTCAR:    PAW_PBE H 15Jun2001                   
   VRHFIN =H: ultrasoft test                                                    
   LEXCH  = PE                                                                  
   EATOM  =    12.4884 eV,    0.9179 Ry                                         
                                                                                
   TITEL  = PAW_PBE H 15Jun2001                                                 
   LULTRA =        F    use ultrasoft PP ?                                      
   IUNSCR =        0    unscreen: 0-lin 1-nonlin 2-no                           
   RPACOR =    0.000    partial core radius                                     
   POMASS =    1.000; ZVAL   =    1.000    mass and valenz                      
   RCORE  =    1.100    outmost cutoff radius                                   
   RWIGS  =    0.700; RWIGS  =    0.370    wigner-seitz radius (au A)           
   ENMAX  =  250.000; ENMIN  =  200.000 eV                                      
   RCLOC  =    0.701    cutoff for local pot                                    
   LCOR   =        T    correct aug charges                                     
   LPAW   =        T    paw PP                                                  
   EAUG   =  400.000                                                            
   RMAX   =    1.123    core radius for proj-oper                               
   RAUG   =    1.200    factor for augmentation sphere                          
   RDEP   =    1.112    radius for radial grids                                 
   RDEPT  =    0.926    core radius for aug-charge                              
                                                                                
   Atomic configuration                                                         
    2 entries                                                                   
     n  l   j            E        occ.                                          
     1  0  0.50        -6.4927   1.0000                                         
     2  1  0.50        -3.4015   0.0000                                         
   Description                                                                  
     l       E           TYP  RCUT    TYP  RCUT                                 
     0     -6.4927494     23  1.100                                             
     0      6.8029130     23  1.100                                             
     1     -4.0817478     23  1.100                                             
  local pseudopotential read in
  atomic valenz-charges read in
  non local Contribution for L=           0  read in
    real space projection operators read in
  non local Contribution for L=           0  read in
    real space projection operators read in
  non local Contribution for L=           1  read in
    real space projection operators read in
    PAW grid and wavefunctions read in
 
   number of l-projection  operators is LMAX  =           3
   number of lm-projection operators is LMMAX =           5
 
 POTCAR:    PAW_PBE C 08Apr2002                   
   VRHFIN =C: s2p2                                                              
   LEXCH  = PE                                                                  
   EATOM  =   147.1560 eV,   10.8157 Ry                                         
                                                                                
   TITEL  = PAW_PBE C 08Apr2002                                                 
   LULTRA =        F    use ultrasoft PP ?                                      
   IUNSCR =        1    unscreen: 0-lin 1-nonlin 2-no                           
   RPACOR =    1.200    partial core radius                                     
   POMASS =   12.011; ZVAL   =    4.000    mass and valenz                      
   RCORE  =    1.500    outmost cutoff radius                                   
   RWIGS  =    1.630; RWIGS  =    0.863    wigner-seitz radius (au A)           
   ENMAX  =  400.000; ENMIN  =  300.000 eV                                      
   ICORE  =        2    local potential                                         
   LCOR   =        T    correct aug charges                                     
   LPAW   =        T    paw PP                                                  
   EAUG   =  644.873                                                            
   DEXC   =    0.000                                                            
   RMAX   =    1.529    core radius for proj-oper                               
   RAUG   =    1.300    factor for augmentation sphere                          
   RDEP   =    1.501    radius for radial grids                                 
   RDEPT  =    1.300    core radius for aug-charge                              
                                                                                
   Atomic configuration                                                         
    4 entries                                                                   
     n  l   j            E        occ.                                          
     1  0  0.50      -273.3789   2.0000                                         
     2  0  0.50       -13.7508   2.0000                                         
     2  1  0.50        -5.2854   2.0000                                         
     3  2  1.50        -5.4423   0.0000                                         
   Description                                                                  
     l       E           TYP  RCUT    TYP  RCUT                                 
     0    -13.7508458     23  1.200                                             
     0     -8.2022199     23  1.200                                             
     1     -5.2854383     23  1.500                                             
     1     34.0145650     23  1.500                                             
     2     -5.4423304      7  1.500                                             
  local pseudopotential read in
  partial core-charges read in
  partial kinetic energy density read in
  atomic valenz-charges read in
  non local Contribution for L=           0  read in
    real space projection operators read in
  non local Contribution for L=           0  read in
    real space projection operators read in
  non local Contribution for L=           1  read in
    real space projection operators read in
  non local Contribution for L=           1  read in
    real space projection operators read in
    PAW grid and wavefunctions read in
 
   number of l-projection  operators is LMAX  =           4
   number of lm-projection operators is LMMAX =           8
 
 POTCAR:    PAW_PBE N 08Apr2002                   
   VRHFIN =N: s2p3                                                              
   LEXCH  = PE                                                                  
   EATOM  =   264.5486 eV,   19.4438 Ry                                         
                                                                                
   TITEL  = PAW_PBE N 08Apr2002                                                 
   LULTRA =        F    use ultrasoft PP ?                                      
   IUNSCR =        1    unscreen: 0-lin 1-nonlin 2-no                           
   RPACOR =    1.200    partial core radius                                     
   POMASS =   14.001; ZVAL   =    5.000    mass and valenz                      
   RCORE  =    1.500    outmost cutoff radius                                   
   RWIGS  =    1.400; RWIGS  =    0.741    wigner-seitz radius (au A)           
   ENMAX  =  400.000; ENMIN  =  300.000 eV                                      
   ICORE  =        2    local potential                                         
   LCOR   =        T    correct aug charges                                     
   LPAW   =        T    paw PP                                                  
   EAUG   =  627.112                                                            
   DEXC   =    0.000                                                            
   RMAX   =    1.529    core radius for proj-oper                               
   RAUG   =    1.300    factor for augmentation sphere                          
   RDEP   =    1.514    radius for radial grids                                 
   RDEPT  =    1.338    core radius for aug-charge                              
                                                                                
   Atomic configuration                                                         
    4 entries                                                                   
     n  l   j            E        occ.                                          
     1  0  0.50      -384.7179   2.0000                                         
     2  0  0.50       -18.5828   2.0000                                         
     2  1  0.50        -7.0898   3.0000                                         
     3  2  1.50        -6.8029   0.0000                                         
   Description                                                                  
     l       E           TYP  RCUT    TYP  RCUT                                 
     0    -18.5828119     23  1.200                                             
     0    -13.5018863     23  1.200                                             
     1     -7.0897853     23  1.500                                             
     1      9.5240782     23  1.500                                             
     2     -6.8029130      7  1.500                                             
  local pseudopotential read in
  partial core-charges read in
  partial kinetic energy density read in
  atomic valenz-charges read in
  non local Contribution for L=           0  read in
    real space projection operators read in
  non local Contribution for L=           0  read in
    real space projection operators read in
  non local Contribution for L=           1  read in
    real space projection operators read in
  non local Contribution for L=           1  read in
    real space projection operators read in
    PAW grid and wavefunctions read in
 
   number of l-projection  operators is LMAX  =           4
   number of lm-projection operators is LMMAX =           8
 

 ----------------------------------------------------------------------------- 
|                                                                             |
|  ADVICE TO THIS USER RUNNING 'VASP/VAMP'   (HEAR YOUR MASTER'S VOICE ...):  |
|                                                                             |
|      You have a (more or less) 'small supercell' and for smaller cells      |
|      it is recommended  to use the reciprocal-space projection scheme!      |
|      The real space optimization is not  efficient for small cells and it   |
|      is also less accurate ...                                              |
|      Therefore set LREAL=.FALSE. in the  INCAR file                         |
|                                                                             |
 ----------------------------------------------------------------------------- 

 Optimization of the real space projectors (new method)

 maximal supplied QI-value         = 34.20
 optimisation between [QCUT,QGAM] = [  9.92, 20.18] = [ 27.55,114.04] Ry 
 Optimized for a Real-space Cutoff    1.26 Angstroem

   l    n(q)    QCUT    max X(q) W(low)/X(q) W(high)/X(q)  e(spline) 
   0      8     9.919    19.460    0.50E-03    0.23E-03    0.29E-06
   0      8     9.919    12.209    0.48E-03    0.23E-03    0.28E-06
   1      7     9.919     4.655    0.17E-03    0.75E-03    0.30E-06
 Optimization of the real space projectors (new method)

 maximal supplied QI-value         = 25.13
 optimisation between [QCUT,QGAM] = [ 10.05, 20.36] = [ 28.30,116.06] Ry 
 Optimized for a Real-space Cutoff    1.30 Angstroem

   l    n(q)    QCUT    max X(q) W(low)/X(q) W(high)/X(q)  e(spline) 
   0      8    10.053   115.676    0.49E-03    0.72E-03    0.18E-06
   0      8    10.053    87.132    0.49E-03    0.71E-03    0.18E-06
   1      7    10.053     4.429    0.32E-03    0.31E-03    0.18E-06
   1      7    10.053     2.733    0.23E-03    0.19E-03    0.20E-06
 Optimization of the real space projectors (new method)

 maximal supplied QI-value         = 25.13
 optimisation between [QCUT,QGAM] = [ 10.05, 20.36] = [ 28.30,116.06] Ry 
 Optimized for a Real-space Cutoff    1.65 Angstroem

   l    n(q)    QCUT    max X(q) W(low)/X(q) W(high)/X(q)  e(spline) 
   0     10    10.053    79.467    0.76E-04    0.72E-04    0.56E-06
   0     10    10.053    66.151    0.76E-04    0.72E-04    0.55E-06
   1     10    10.053     8.350    0.25E-03    0.92E-03    0.41E-05
   1     10    10.053     5.531    0.27E-03    0.10E-02    0.45E-05
  PAW_PBE H 15Jun2001                   :
 energy of atom  1       EATOM=  -12.4884
 kinetic energy error for atom=    0.0098 (will be added to EATOM!!)
  PAW_PBE C 08Apr2002                   :
 energy of atom  2       EATOM= -147.1560
 kinetic energy error for atom=    0.0288 (will be added to EATOM!!)
  PAW_PBE N 08Apr2002                   :
 energy of atom  3       EATOM= -264.5486
 kinetic energy error for atom=    0.0736 (will be added to EATOM!!)
 
 
 POSCAR: H3 C2 N1                                
  positions in direct lattice
  velocities in cartesian coordinates
 exchange correlation table for  LEXCH =        8
   RHO(1)=    0.500       N(1)  =     2000
   RHO(2)=  100.500       N(2)  =     4000

 VTST: version 3.2, (02/03/18)

 CHAIN: initializing optimizer
 
 OPT: Using FIRE optimizer
 OPT: FIRE, Init
 OPT: FIRE, MAXMOVE       0.20000
 OPT: FIRE, TIMESTEP      0.10000
 OPT: FIRE, FTIMEMAX      1.00000
 OPT: FIRE, FTIMEINC      1.10000
 OPT: FIRE, FTIMEDEC      0.50000
 OPT: FIRE, FALPHADEC     0.99000
 OPT: FIRE, FALPHA        0.10000
 OPT: FIRE, FNMIN         5
 
 CHAIN: Read ICHAIN            0
 CHAIN: Running the NEB
 NEB:          SPRING     -5.000000
 NEB:          LCLIMB      T
 NEB:     LTANGENTOLD      F
 NEB:           LDNEB      F
 NEB:        LDNEBORG      F
 NEB:        LNEBCELL      F
 NEB:          EFIRST      0.000000
 NEB:           ELAST      0.000000
 
 POSCAR: H3 C2 N1                                
  positions in direct lattice
  No initial velocities read in
 
 POSCAR: H3 C2 N1                                
  positions in direct lattice
  No initial velocities read in
 


--------------------------------------------------------------------------------------------------------


 ion  position               nearest neighbor table
   1  0.472  0.463  0.505-   4 1.09
   2  0.471  0.509  0.464-   4 1.09
   3  0.475  0.520  0.523-   4 1.10
   4  0.484  0.497  0.496-   1 1.09   2 1.09   3 1.10   5 1.45
   5  0.533  0.498  0.498-   6 1.17   4 1.45
   6  0.565  0.513  0.514-   5 1.17
 
  LATTYP: Found a simple cubic cell.
 ALAT       =    30.0000000000
  
  Lattice vectors:
  
 A1 = (  30.0000000000,   0.0000000000,   0.0000000000)
 A2 = (   0.0000000000,  30.0000000000,   0.0000000000)
 A3 = (   0.0000000000,   0.0000000000,  30.0000000000)


Analysis of symmetry for initial positions (statically):
=====================================================================
 Subroutine PRICEL returns:
 Original cell was already a primitive cell.
 

 Routine SETGRP: Setting up the symmetry group for a 
 simple cubic supercell.


 Subroutine GETGRP returns: Found  1 space group operations
 (whereof  1 operations were pure point group operations)
 out of a pool of 48 trial point group operations.


The static configuration has the point symmetry C_1 .


Analysis of symmetry for dynamics (positions and initial velocities):
=====================================================================
 Subroutine PRICEL returns:
 Original cell was already a primitive cell.
 

 Routine SETGRP: Setting up the symmetry group for a 
 simple cubic supercell.


 Subroutine GETGRP returns: Found  1 space group operations
 (whereof  1 operations were pure point group operations)
 out of a pool of 48 trial point group operations.


The dynamic configuration has the point symmetry C_1 .
 
 
 KPOINTS: Mo2C                                    

Automatic generation of k-mesh.
Space group operators:
 irot       det(A)        alpha          n_x          n_y          n_z        tau_x        tau_y        tau_z
    1     1.000000     0.000000     1.000000     0.000000     0.000000     0.000000     0.000000     0.000000
 
 Subroutine IBZKPT returns following result:
 ===========================================
 
 Found      4 irreducible k-points:
 
 Following reciprocal coordinates:
            Coordinates               Weight
  0.250000  0.250000  0.250000      2.000000
 -0.250000  0.250000  0.250000      2.000000
  0.250000 -0.250000  0.250000      2.000000
 -0.250000 -0.250000  0.250000      2.000000
 
 Following cartesian coordinates:
            Coordinates               Weight
  0.008333  0.008333  0.008333      2.000000
 -0.008333  0.008333  0.008333      2.000000
  0.008333 -0.008333  0.008333      2.000000
 -0.008333 -0.008333  0.008333      2.000000
 


--------------------------------------------------------------------------------------------------------




 Dimension of arrays:
   k-points           NKPTS =      4   k-points in BZ     NKDIM =      4   number of bands    NBANDS=     12
   number of dos      NEDOS =    301   number of ions     NIONS =      6
   non local maximal  LDIM  =      4   non local SUM 2l+1 LMDIM =      8
   total plane-waves  NPLWV = ******
   max r-space proj   IRMAX =   2395   max aug-charges    IRDMAX=   1738
   dimension x,y,z NGX =   150 NGY =  150 NGZ =  150
   dimension x,y,z NGXF=   300 NGYF=  300 NGZF=  300
   support grid    NGXF=   300 NGYF=  300 NGZF=  300
   ions per type =               3   2   1
 NGX,Y,Z   is equivalent  to a cutoff of   8.31,  8.31,  8.31 a.u.
 NGXF,Y,Z  is equivalent  to a cutoff of  16.62, 16.62, 16.62 a.u.


 I would recommend the setting:
   dimension x,y,z NGX =   147 NGY =  147 NGZ =  147
 SYSTEM =  unknown system                          
 POSCAR =  H3 C2 N1                                

 Startparameter for this run:
   NWRITE =      2    write-flag & timer
   PREC   = normal    normal or accurate (medium, high low for compatibility)
   ISTART =      0    job   : 0-new  1-cont  2-samecut
   ICHARG =      2    charge: 1-file 2-atom 10-const
   ISPIN  =      1    spin polarized calculation?
   LNONCOLLINEAR =      F non collinear calculations
   LSORBIT =      F    spin-orbit coupling
   INIWAV =      1    electr: 0-lowe 1-rand  2-diag
   LASPH  =      F    aspherical Exc in radial PAW
   METAGGA=      F    non-selfconsistent MetaGGA calc.

 Electronic Relaxation 1
   ENCUT  =  400.0 eV  29.40 Ry    5.42 a.u.  48.92 48.92 48.92*2*pi/ulx,y,z
   ENINI  =  400.0     initial cutoff
   ENAUG  =  644.9 eV  augmentation charge cutoff
   NELM   =    500;   NELMIN=  6; NELMDL= -5     # of ELM steps 
   EDIFF  = 0.1E-03   stopping-criterion for ELM
   LREAL  =      T    real-space projection
   NLSPLINE    = F    spline interpolate recip. space projectors
   LCOMPAT=      F    compatible to vasp.4.4
   GGA_COMPAT  = T    GGA compatible to vasp.4.4-vasp.4.6
   LMAXPAW     = -100 max onsite density
   LMAXMIX     =    2 max onsite mixed and CHGCAR
   VOSKOWN=      0    Vosko Wilk Nusair interpolation
   ROPT   =   -0.00050  -0.00050  -0.00050
 Ionic relaxation
   EDIFFG = -.1E+00   stopping-criterion for IOM
   NSW    =    300    number of steps for IOM
   NBLOCK =      1;   KBLOCK =    300    inner block; outer block 
   IBRION =      3    ionic relax: 0-MD 1-quasi-New 2-CG
   NFREE  =      0    steps in history (QN), initial steepest desc. (CG)
   ISIF   =      2    stress and relaxation
   IWAVPR =     11    prediction:  0-non 1-charg 2-wave 3-comb
   ISYM   =      2    0-nonsym 1-usesym 2-fastsym
   LCORR  =      T    Harris-Foulkes like correction to forces

   POTIM  = 0.0000    time-step for ionic-motion
   TEIN   =    0.0    initial temperature
   TEBEG  =    0.0;   TEEND  =   0.0 temperature during run
   SMASS  =   2.00    Nose mass-parameter (am)
   estimated Nose-frequenzy (Omega)   =  0.12E+10 period in steps =  0.00 mass=   0.137E-25a.u.
   SCALEE = 1.0000    scale energy and forces
   NPACO  =    256;   APACO  = 16.0  distance and # of slots for P.C.
   PSTRESS=    0.0 pullay stress

  Mass of Ions in am
   POMASS =   1.00 12.01 14.00
  Ionic Valenz
   ZVAL   =   1.00  4.00  5.00
  Atomic Wigner-Seitz radii
   RWIGS  =  -1.00 -1.00 -1.00
  virtual crystal weights 
   VCA    =   1.00  1.00  1.00
   NELECT =      16.0000    total number of electrons
   NUPDOWN=      -1.0000    fix difference up-down

 DOS related values:
   EMIN   =  10.00;   EMAX   =-10.00  energy-range for DOS
   EFERMI =   0.00
   ISMEAR =     0;   SIGMA  =   0.20  broadening in eV -4-tet -1-fermi 0-gaus

 Electronic relaxation 2 (details)
   IALGO  =     38    algorithm
   LDIAG  =      T    sub-space diagonalisation (order eigenvalues)
   LSUBROT=      F    optimize rotation matrix (better conditioning)
   TURBO    =      0    0=normal 1=particle mesh
   IRESTART =      0    0=no restart 2=restart with 2 vectors
   NREBOOT  =      0    no. of reboots
   NMIN     =      0    reboot dimension
   EREF     =   0.00    reference energy to select bands
   IMIX   =      4    mixing-type and parameters
     AMIX     =   0.40;   BMIX     =  1.00
     AMIX_MAG =   1.60;   BMIX_MAG =  1.00
     AMIN     =   0.10
     WC   =   100.;   INIMIX=   1;  MIXPRE=   1;  MAXMIX= -45

 Intra band minimization:
   WEIMIN = 0.0010     energy-eigenvalue tresh-hold
   EBREAK =  0.21E-05  absolut break condition
   DEPER  =   0.30     relativ break condition  

   TIME   =   0.40     timestep for ELM

  volume/ion in A,a.u.               =    4500.00     30367.50
  Fermi-wavevector in a.u.,A,eV,Ry     =   0.137508  0.259852  0.257264  0.018908
  Thomas-Fermi vector in A             =   0.790710
 
 Write flags
   LWAVE  =      F    write WAVECAR
   LCHARG =      F    write CHGCAR
   LVTOT  =      F    write LOCPOT, total local potential
   LVHAR  =      F    write LOCPOT, Hartree potential only
   LELF   =      F    write electronic localiz. function (ELF)
   LORBIT =      0    0 simple, 1 ext, 2 COOP (PROOUT)


 Dipole corrections
   LMONO  =      F    monopole corrections only (constant potential shift)
   LDIPOL =      F    correct potential (dipole corrections)
   IDIPOL =      0    1-x, 2-y, 3-z, 4-all directions 
   EPSILON=  1.0000000 bulk dielectric constant

 Exchange correlation treatment:
   GGA     =    PE    GGA type
   LEXCH   =     8    internal setting for exchange type
   VOSKOWN=      0    Vosko Wilk Nusair interpolation
   LHFCALC =     F    Hartree Fock is set to
   LHFONE  =     F    Hartree Fock one center treatment
   AEXX    =    0.0000 exact exchange contribution

 Linear response parameters
   LEPSILON=     F    determine dielectric tensor
   LRPA    =     F    only Hartree local field effects (RPA)
   LNABLA  =     F    use nabla operator in PAW spheres
   LVEL    =     F    velocity operator in full k-point grid
   LINTERFAST=   F  fast interpolation
   KINTER  =     0    interpolate to denser k-point grid
   CSHIFT  =0.1000    complex shift for real part using Kramers Kronig
   OMEGAMAX=  -1.0    maximum frequency
   DEG_THRESHOLD= 0.2000000E-02 threshold for treating states as degnerate
   RTIME   =    0.100 relaxation time in fs

 Orbital magnetization related:
   ORBITALMAG=     F  switch on orbital magnetization
   LCHIMAG   =     F  perturbation theory with respect to B field
   DQ        =  0.001000  dq finite difference perturbation B field



--------------------------------------------------------------------------------------------------------


 quickmin algorithm: (dynamic with friction)
 charge density and potential will be updated during run
 non-spin polarized calculation
 Variant of blocked Davidson
 Davidson routine will perform the subspace rotation
 perform sub-space diagonalisation
    after iterative eigenvector-optimisation
 modified Broyden-mixing scheme, WC =      100.0
 initial mixing is a Kerker type mixing with AMIX =  0.4000 and BMIX =      1.0000
 Hartree-type preconditioning will be used
 using additional bands            4
 real space projection scheme for non local part
 use partial core corrections
 calculate Harris-corrections to forces 
   (improved forces if not selfconsistent)
 use gradient corrections 
 use of overlap-Matrix (Vanderbilt PP)
 Gauss-broadening in eV      SIGMA  =   0.20


--------------------------------------------------------------------------------------------------------


  energy-cutoff  :      400.00
  volume of cell :    27000.00
      direct lattice vectors                 reciprocal lattice vectors
    30.000000000  0.000000000  0.000000000     0.033333333  0.000000000  0.000000000
     0.000000000 30.000000000  0.000000000     0.000000000  0.033333333  0.000000000
     0.000000000  0.000000000 30.000000000     0.000000000  0.000000000  0.033333333

  length of vectors
    30.000000000 30.000000000 30.000000000     0.033333333  0.033333333  0.033333333


 
 k-points in units of 2pi/SCALE and weight: Mo2C                                    
   0.00833333  0.00833333  0.00833333       0.250
  -0.00833333  0.00833333  0.00833333       0.250
   0.00833333 -0.00833333  0.00833333       0.250
  -0.00833333 -0.00833333  0.00833333       0.250
 
 k-points in reciprocal lattice and weights: Mo2C                                    
   0.25000000  0.25000000  0.25000000       0.250
  -0.25000000  0.25000000  0.25000000       0.250
   0.25000000 -0.25000000  0.25000000       0.250
  -0.25000000 -0.25000000  0.25000000       0.250
 
 position of ions in fractional coordinates (direct lattice) 
   0.47153455  0.46343412  0.50470315
   0.47128771  0.50882098  0.46446048
   0.47544446  0.52012050  0.52288765
   0.48431404  0.49651162  0.49621747
   0.53259168  0.49827159  0.49784670
   0.56485002  0.51283000  0.51386456
 
 position of ions in cartesian coordinates  (Angst):
  14.14603660 13.90302352 15.14109447
  14.13863136 15.26462927 13.93381441
  14.26333385 15.60361512 15.68662936
  14.52942117 14.89534861 14.88652400
  15.97775034 14.94814765 14.93540100
  16.94550047 15.38489997 15.41593671
 


--------------------------------------------------------------------------------------------------------


 k-point  1 :   0.2500 0.2500 0.2500  plane waves:  490454
 k-point  2 :  -0.2500 0.2500 0.2500  plane waves:  490454
 k-point  3 :   0.2500-0.2500 0.2500  plane waves:  490454
 k-point  4 :  -0.2500-0.2500 0.2500  plane waves:  490454

 maximum and minimum number of plane-waves per node :    490454   490454

 maximum number of plane-waves:    490454
 maximum index in each direction: 
   IXMAX=   49   IYMAX=   49   IZMAX=   48
   IXMIN=  -49   IYMIN=  -49   IZMIN=  -49

 WARNING: aliasing errors must be expected set NGX to 198 to avoid them
 WARNING: aliasing errors must be expected set NGY to 198 to avoid them
 WARNING: aliasing errors must be expected set NGZ to 196 to avoid them
 aliasing errors are usually negligible using standard VASP settings
 and one can safely disregard these warnings

 serial   3D FFT for wavefunctions
 parallel 3D FFT for charge:
    minimum data exchange during FFTs selected (reduces bandwidth)


 total amount of memory used by VASP on root node  3203888. kBytes
========================================================================

   base      :      30000. kBytes
   nonlr-proj:        692. kBytes
   fftplans  :     924480. kBytes
   grid      :    1872000. kBytes
   one-center:         18. kBytes
   wavefun   :     376698. kBytes
 
     INWAV:  cpu time    0.0010: real time    0.0005
 Broyden mixing: mesh for mixing (old mesh)
   NGX = 97   NGY = 97   NGZ = 97
  (NGX  =300   NGY  =300   NGZ  =300)
  gives a total of 912673 points

 initial charge density was supplied:
 charge density of overlapping atoms calculated
 number of electron      16.0000000 magnetization 
 keeping initial charge density in first step


--------------------------------------------------------------------------------------------------------


 Maximum index for non-local projection operator         2278
 Maximum index for augmentation-charges         1493 (set IRDMAX)


--------------------------------------------------------------------------------------------------------


 First call to EWALD:  gamma=   0.059
 Maximum number of real-space cells 3x 3x 3
 Maximum number of reciprocal cells 3x 3x 3

 FEWALD executed in parallel
    FEWALD:  cpu time    0.0030: real time    0.0029


----------------------------------------- Iteration    1(   1)  ---------------------------------------


    POTLOK:  cpu time   30.2364: real time   30.3063
    SETDIJ:  cpu time    0.0070: real time    0.0068
     EDDAV:  cpu time  139.4548: real time  139.7910
       DOS:  cpu time    0.0000: real time    0.0003
    --------------------------------------------
      LOOP:  cpu time  169.7012: real time  170.1098

 eigenvalue-minimisations  :   160
 total energy-change (2. order) : 0.1154862E+03  (-0.2130979E+03)
 number of electron      16.0000000 magnetization 
 augmentation part       16.0000000 magnetization 

 Free energy of the ion-electron system (eV)
  ---------------------------------------------------
  alpha Z        PSCENC =         0.04144063
  Ewald energy   TEWEN  =       683.32470730
  -Hartree energ DENC   =     -1096.64890727
  -exchange      EXHF   =         0.00000000
  -V(xc)+E(xc)   XCENC  =        51.42573862
  PAW double counting   =       428.37890668     -430.73533574
  entropy T*S    EENTRO =        -0.18977366
  eigenvalues    EBANDS =      -116.27592823
  atomic energy  EATOM  =       596.16534815
  Solvation  Ediel_sol  =         0.00000000
  ---------------------------------------------------
  free energy    TOTEN  =       115.48619649 eV

  energy without entropy =      115.67597015  energy(sigma->0) =      115.58108332


--------------------------------------------------------------------------------------------------------




----------------------------------------- Iteration    1(   2)  ---------------------------------------


     EDDAV:  cpu time  161.8774: real time  162.2622
       DOS:  cpu time    0.0000: real time    0.0001
    --------------------------------------------
      LOOP:  cpu time  161.8784: real time  162.2654

 eigenvalue-minimisations  :   192
 total energy-change (2. order) :-0.1171232E+03  (-0.1145707E+03)
 number of electron      16.0000000 magnetization 
 augmentation part       16.0000000 magnetization 

 Free energy of the ion-electron system (eV)
  ---------------------------------------------------
  alpha Z        PSCENC =         0.04144063
  Ewald energy   TEWEN  =       683.32470730
  -Hartree energ DENC   =     -1096.64890727
  -exchange      EXHF   =         0.00000000
  -V(xc)+E(xc)   XCENC  =        51.42573862
  PAW double counting   =       428.37890668     -430.73533574
  entropy T*S    EENTRO =         0.00000000
  eigenvalues    EBANDS =      -233.58885270
  atomic energy  EATOM  =       596.16534815
  Solvation  Ediel_sol  =         0.00000000
  ---------------------------------------------------
  free energy    TOTEN  =        -1.63695433 eV

  energy without entropy =       -1.63695433  energy(sigma->0) =       -1.63695433


--------------------------------------------------------------------------------------------------------




----------------------------------------- Iteration    1(   3)  ---------------------------------------


     EDDAV:  cpu time  120.9986: real time  121.2912
       DOS:  cpu time    0.0000: real time    0.0002
    --------------------------------------------
      LOOP:  cpu time  121.0006: real time  121.2954

 eigenvalue-minimisations  :   128
 total energy-change (2. order) :-0.3566072E+02  (-0.3546425E+02)
 number of electron      16.0000000 magnetization 
 augmentation part       16.0000000 magnetization 

 Free energy of the ion-electron system (eV)
  ---------------------------------------------------
  alpha Z        PSCENC =         0.04144063
  Ewald energy   TEWEN  =       683.32470730
  -Hartree energ DENC   =     -1096.64890727
  -exchange      EXHF   =         0.00000000
  -V(xc)+E(xc)   XCENC  =        51.42573862
  PAW double counting   =       428.37890668     -430.73533574
  entropy T*S    EENTRO =         0.00000000
  eigenvalues    EBANDS =      -269.24956851
  atomic energy  EATOM  =       596.16534815
  Solvation  Ediel_sol  =         0.00000000
  ---------------------------------------------------
  free energy    TOTEN  =       -37.29767014 eV

  energy without entropy =      -37.29767014  energy(sigma->0) =      -37.29767014


--------------------------------------------------------------------------------------------------------




----------------------------------------- Iteration    1(   4)  ---------------------------------------


     EDDAV:  cpu time  116.1603: real time  116.4400
       DOS:  cpu time    0.0000: real time    0.0002
    --------------------------------------------
      LOOP:  cpu time  116.1623: real time  116.4442

 eigenvalue-minimisations  :   128
 total energy-change (2. order) :-0.3147682E+01  (-0.3091686E+01)
 number of electron      16.0000000 magnetization 
 augmentation part       16.0000000 magnetization 

 Free energy of the ion-electron system (eV)
  ---------------------------------------------------
  alpha Z        PSCENC =         0.04144063
  Ewald energy   TEWEN  =       683.32470730
  -Hartree energ DENC   =     -1096.64890727
  -exchange      EXHF   =         0.00000000
  -V(xc)+E(xc)   XCENC  =        51.42573862
  PAW double counting   =       428.37890668     -430.73533574
  entropy T*S    EENTRO =         0.00000000
  eigenvalues    EBANDS =      -272.39725019
  atomic energy  EATOM  =       596.16534815
  Solvation  Ediel_sol  =         0.00000000
  ---------------------------------------------------
  free energy    TOTEN  =       -40.44535182 eV

  energy without entropy =      -40.44535182  energy(sigma->0) =      -40.44535182


--------------------------------------------------------------------------------------------------------




----------------------------------------- Iteration    1(   5)  ---------------------------------------


     EDDAV:  cpu time  103.1793: real time  103.4255
       DOS:  cpu time    0.0000: real time    0.0001
    CHARGE:  cpu time    9.2816: real time    9.3039
    MIXING:  cpu time    0.7849: real time    0.7858
    --------------------------------------------
      LOOP:  cpu time  113.2468: real time  113.5197

 eigenvalue-minimisations  :   112
 total energy-change (2. order) :-0.6511593E-01  (-0.6428020E-01)
 number of electron      15.9999986 magnetization 
 augmentation part        0.5275822 magnetization 

 Broyden mixing:
  rms(total) = 0.11011E+01    rms(broyden)= 0.11004E+01
  rms(prec ) = 0.11448E+01
  weight for this iteration     100.00

 Free energy of the ion-electron system (eV)
  ---------------------------------------------------
  alpha Z        PSCENC =         0.04144063
  Ewald energy   TEWEN  =       683.32470730
  -Hartree energ DENC   =     -1096.64890727
  -exchange      EXHF   =         0.00000000
  -V(xc)+E(xc)   XCENC  =        51.42573862
  PAW double counting   =       428.37890668     -430.73533574
  entropy T*S    EENTRO =         0.00000000
  eigenvalues    EBANDS =      -272.46236612
  atomic energy  EATOM  =       596.16534815
  Solvation  Ediel_sol  =         0.00000000
  ---------------------------------------------------
  free energy    TOTEN  =       -40.51046774 eV

  energy without entropy =      -40.51046774  energy(sigma->0) =      -40.51046774


--------------------------------------------------------------------------------------------------------




----------------------------------------- Iteration    1(   6)  ---------------------------------------


    POTLOK:  cpu time   30.9183: real time   31.0119
    SETDIJ:  cpu time    0.0060: real time    0.0064
     EDDAV:  cpu time  110.3012: real time  110.6557
       DOS:  cpu time    0.0000: real time    0.0002
    CHARGE:  cpu time    9.5126: real time    9.5436
    MIXING:  cpu time    0.9589: real time    0.9625
    --------------------------------------------
      LOOP:  cpu time  151.6989: real time  152.1865

 eigenvalue-minimisations  :   128
 total energy-change (2. order) : 0.3333057E+01  (-0.6306943E+00)
 number of electron      15.9999985 magnetization 
 augmentation part        0.4555289 magnetization 

 Broyden mixing:
  rms(total) = 0.60110E+00    rms(broyden)= 0.60088E+00
  rms(prec ) = 0.61747E+00
  weight for this iteration     100.00

 eigenvalues of (default mixing * dielectric matrix)
  average eigenvalue GAMMA=   1.2544
  1.2544

 Free energy of the ion-electron system (eV)
  ---------------------------------------------------
  alpha Z        PSCENC =         0.04144063
  Ewald energy   TEWEN  =       683.32470730
  -Hartree energ DENC   =     -1129.03353019
  -exchange      EXHF   =         0.00000000
  -V(xc)+E(xc)   XCENC  =        53.21532095
  PAW double counting   =       732.49596737     -735.18278745
  entropy T*S    EENTRO =         0.00000000
  eigenvalues    EBANDS =      -238.20387767
  atomic energy  EATOM  =       596.16534815
  Solvation  Ediel_sol  =         0.00000000
  ---------------------------------------------------
  free energy    TOTEN  =       -37.17741092 eV

  energy without entropy =      -37.17741092  energy(sigma->0) =      -37.17741092


--------------------------------------------------------------------------------------------------------




----------------------------------------- Iteration    1(   7)  ---------------------------------------


    POTLOK:  cpu time   31.3702: real time   31.4730
    SETDIJ:  cpu time    0.0050: real time    0.0064
     EDDAV:  cpu time  115.3035: real time  115.6807
       DOS:  cpu time    0.0000: real time    0.0002
    CHARGE:  cpu time    9.3966: real time    9.4268
    MIXING:  cpu time    0.9898: real time    0.9955
    --------------------------------------------
      LOOP:  cpu time  157.0661: real time  157.5878

 eigenvalue-minimisations  :   120
 total energy-change (2. order) : 0.6604982E+00  (-0.1552067E+00)
 number of electron      15.9999985 magnetization 
 augmentation part        0.4576005 magnetization 

 Broyden mixing:
  rms(total) = 0.30914E+00    rms(broyden)= 0.30908E+00
  rms(prec ) = 0.31745E+00
  weight for this iteration     100.00

 eigenvalues of (default mixing * dielectric matrix)
  average eigenvalue GAMMA=   1.4136
  0.8783  1.9489

 Free energy of the ion-electron system (eV)
  ---------------------------------------------------
  alpha Z        PSCENC =         0.04144063
  Ewald energy   TEWEN  =       683.32470730
  -Hartree energ DENC   =     -1145.99699080
  -exchange      EXHF   =         0.00000000
  -V(xc)+E(xc)   XCENC  =        54.13703270
  PAW double counting   =      1037.68644961    -1040.48974981
  entropy T*S    EENTRO =         0.00000000
  eigenvalues    EBANDS =      -221.38515045
  atomic energy  EATOM  =       596.16534815
  Solvation  Ediel_sol  =         0.00000000
  ---------------------------------------------------
  free energy    TOTEN  =       -36.51691267 eV

  energy without entropy =      -36.51691267  energy(sigma->0) =      -36.51691267


--------------------------------------------------------------------------------------------------------




----------------------------------------- Iteration    1(   8)  ---------------------------------------


    POTLOK:  cpu time   30.8213: real time   30.9207
    SETDIJ:  cpu time    0.0070: real time    0.0065
     EDDAV:  cpu time  122.1894: real time  122.5887
       DOS:  cpu time    0.0000: real time    0.0002
    CHARGE:  cpu time    9.2766: real time    9.3073
    MIXING:  cpu time    1.1018: real time    1.1060
    --------------------------------------------
      LOOP:  cpu time  163.3992: real time  163.9345

 eigenvalue-minimisations  :   128
 total energy-change (2. order) : 0.1768373E+00  (-0.4166463E-01)
 number of electron      15.9999985 magnetization 
 augmentation part        0.4372361 magnetization 

 Broyden mixing:
  rms(total) = 0.11670E+00    rms(broyden)= 0.11666E+00
  rms(prec ) = 0.12103E+00
  weight for this iteration     100.00

 eigenvalues of (default mixing * dielectric matrix)
  average eigenvalue GAMMA=   1.4549
  2.1824  1.4479  0.7344

 Free energy of the ion-electron system (eV)
  ---------------------------------------------------
  alpha Z        PSCENC =         0.04144063
  Ewald energy   TEWEN  =       683.32470730
  -Hartree energ DENC   =     -1156.73172390
  -exchange      EXHF   =         0.00000000
  -V(xc)+E(xc)   XCENC  =        54.82161525
  PAW double counting   =      1289.21429939    -1292.07242656
  entropy T*S    EENTRO =         0.00000000
  eigenvalues    EBANDS =      -211.10333566
  atomic energy  EATOM  =       596.16534815
  Solvation  Ediel_sol  =         0.00000000
  ---------------------------------------------------
  free energy    TOTEN  =       -36.34007540 eV

  energy without entropy =      -36.34007540  energy(sigma->0) =      -36.34007540


--------------------------------------------------------------------------------------------------------




----------------------------------------- Iteration    1(   9)  ---------------------------------------


    POTLOK:  cpu time   30.6973: real time   30.7982
    SETDIJ:  cpu time    0.0070: real time    0.0065
     EDDAV:  cpu time  117.0382: real time  117.4262
       DOS:  cpu time    0.0000: real time    0.0002
    CHARGE:  cpu time    9.3106: real time    9.3442
    MIXING:  cpu time    1.2918: real time    1.2968
    --------------------------------------------
      LOOP:  cpu time  158.3459: real time  158.8777

 eigenvalue-minimisations  :   128
 total energy-change (2. order) : 0.2724208E-01  (-0.4135744E-02)
 number of electron      15.9999985 magnetization 
 augmentation part        0.4388483 magnetization 

 Broyden mixing:
  rms(total) = 0.33917E-01    rms(broyden)= 0.33904E-01
  rms(prec ) = 0.39207E-01
  weight for this iteration     100.00

 eigenvalues of (default mixing * dielectric matrix)
  average eigenvalue GAMMA=   1.4374
  2.2906  1.6355  1.0514  0.7720

 Free energy of the ion-electron system (eV)
  ---------------------------------------------------
  alpha Z        PSCENC =         0.04144063
  Ewald energy   TEWEN  =       683.32470730
  -Hartree energ DENC   =     -1158.83580040
  -exchange      EXHF   =         0.00000000
  -V(xc)+E(xc)   XCENC  =        54.95099562
  PAW double counting   =      1374.98790266    -1377.81746925
  entropy T*S    EENTRO =         0.00000000
  eigenvalues    EBANDS =      -209.12995804
  atomic energy  EATOM  =       596.16534815
  Solvation  Ediel_sol  =         0.00000000
  ---------------------------------------------------
  free energy    TOTEN  =       -36.31283332 eV

  energy without entropy =      -36.31283332  energy(sigma->0) =      -36.31283332


--------------------------------------------------------------------------------------------------------




----------------------------------------- Iteration    1(  10)  ---------------------------------------


    POTLOK:  cpu time   30.9523: real time   31.0574
    SETDIJ:  cpu time    0.0070: real time    0.0069
     EDDAV:  cpu time  122.1124: real time  122.5248
       DOS:  cpu time    0.0000: real time    0.0002
    CHARGE:  cpu time    9.1136: real time    9.1444
    MIXING:  cpu time    1.3518: real time    1.3558
    --------------------------------------------
      LOOP:  cpu time  163.5401: real time  164.0946

 eigenvalue-minimisations  :   128
 total energy-change (2. order) : 0.3899954E-02  (-0.4908867E-03)
 number of electron      15.9999985 magnetization 
 augmentation part        0.4397137 magnetization 

 Broyden mixing:
  rms(total) = 0.14697E-01    rms(broyden)= 0.14692E-01
  rms(prec ) = 0.20815E-01
  weight for this iteration     100.00

 eigenvalues of (default mixing * dielectric matrix)
  average eigenvalue GAMMA=   1.4614
  2.1768  2.1768  1.3443  0.8045  0.8045

 Free energy of the ion-electron system (eV)
  ---------------------------------------------------
  alpha Z        PSCENC =         0.04144063
  Ewald energy   TEWEN  =       683.32470730
  -Hartree energ DENC   =     -1160.01417741
  -exchange      EXHF   =         0.00000000
  -V(xc)+E(xc)   XCENC  =        54.98843583
  PAW double counting   =      1389.62682889    -1392.44593656
  entropy T*S    EENTRO =         0.00000000
  eigenvalues    EBANDS =      -207.99558021
  atomic energy  EATOM  =       596.16534815
  Solvation  Ediel_sol  =         0.00000000
  ---------------------------------------------------
  free energy    TOTEN  =       -36.30893337 eV

  energy without entropy =      -36.30893337  energy(sigma->0) =      -36.30893337


--------------------------------------------------------------------------------------------------------




----------------------------------------- Iteration    1(  11)  ---------------------------------------


    POTLOK:  cpu time   30.5234: real time   30.6251
    SETDIJ:  cpu time    0.0060: real time    0.0067
     EDDAV:  cpu time  106.4508: real time  106.8035
       DOS:  cpu time    0.0000: real time    0.0002
    CHARGE:  cpu time    9.1826: real time    9.2133
    MIXING:  cpu time    1.4108: real time    1.4145
    --------------------------------------------
      LOOP:  cpu time  147.5746: real time  148.0687

 eigenvalue-minimisations  :   112
 total energy-change (2. order) :-0.9566751E-03  (-0.1811421E-03)
 number of electron      15.9999985 magnetization 
 augmentation part        0.4393337 magnetization 

 Broyden mixing:
  rms(total) = 0.96316E-02    rms(broyden)= 0.96302E-02
  rms(prec ) = 0.14583E-01
  weight for this iteration     100.00

 eigenvalues of (default mixing * dielectric matrix)
  average eigenvalue GAMMA=   1.6871
  2.8763  2.5339  0.7826  0.9024  1.5136  1.5136

 Free energy of the ion-electron system (eV)
  ---------------------------------------------------
  alpha Z        PSCENC =         0.04144063
  Ewald energy   TEWEN  =       683.32470730
  -Hartree energ DENC   =     -1161.09798950
  -exchange      EXHF   =         0.00000000
  -V(xc)+E(xc)   XCENC  =        55.01292673
  PAW double counting   =      1386.92938700    -1389.74387895
  entropy T*S    EENTRO =         0.00000000
  eigenvalues    EBANDS =      -206.94183141
  atomic energy  EATOM  =       596.16534815
  Solvation  Ediel_sol  =         0.00000000
  ---------------------------------------------------
  free energy    TOTEN  =       -36.30989004 eV

  energy without entropy =      -36.30989004  energy(sigma->0) =      -36.30989004


--------------------------------------------------------------------------------------------------------




----------------------------------------- Iteration    1(  12)  ---------------------------------------


    POTLOK:  cpu time   31.2482: real time   31.3521
    SETDIJ:  cpu time    0.0060: real time    0.0064
     EDDAV:  cpu time   90.2753: real time   90.5490
       DOS:  cpu time    0.0000: real time    0.0002
    CHARGE:  cpu time    9.0576: real time    9.0820
    MIXING:  cpu time    1.4438: real time    1.4479
    --------------------------------------------
      LOOP:  cpu time  132.0329: real time  132.4424

 eigenvalue-minimisations  :    96
 total energy-change (2. order) :-0.6242122E-02  (-0.4308399E-03)
 number of electron      15.9999985 magnetization 
 augmentation part        0.4388278 magnetization 

 Broyden mixing:
  rms(total) = 0.47407E-02    rms(broyden)= 0.47329E-02
  rms(prec ) = 0.71638E-02
  weight for this iteration     100.00

 eigenvalues of (default mixing * dielectric matrix)
  average eigenvalue GAMMA=   1.6865
  3.6348  2.2737  1.7479  1.3628  0.7769  0.9040  1.1051

 Free energy of the ion-electron system (eV)
  ---------------------------------------------------
  alpha Z        PSCENC =         0.04144063
  Ewald energy   TEWEN  =       683.32470730
  -Hartree energ DENC   =     -1162.82021416
  -exchange      EXHF   =         0.00000000
  -V(xc)+E(xc)   XCENC  =        55.04915011
  PAW double counting   =      1381.31364415    -1384.12347961
  entropy T*S    EENTRO =         0.00000000
  eigenvalues    EBANDS =      -205.26672874
  atomic energy  EATOM  =       596.16534815
  Solvation  Ediel_sol  =         0.00000000
  ---------------------------------------------------
  free energy    TOTEN  =       -36.31613217 eV

  energy without entropy =      -36.31613217  energy(sigma->0) =      -36.31613217


--------------------------------------------------------------------------------------------------------




----------------------------------------- Iteration    1(  13)  ---------------------------------------


    POTLOK:  cpu time   30.8803: real time   30.9642
    SETDIJ:  cpu time    0.0060: real time    0.0066
     EDDAV:  cpu time  130.5662: real time  130.9527
       DOS:  cpu time    0.0000: real time    0.0002
    CHARGE:  cpu time    9.2286: real time    9.2565
    MIXING:  cpu time    1.7197: real time    1.7244
    --------------------------------------------
      LOOP:  cpu time  172.4038: real time  172.9102

 eigenvalue-minimisations  :   148
 total energy-change (2. order) :-0.3926391E-02  (-0.1248411E-03)
 number of electron      15.9999985 magnetization 
 augmentation part        0.4386468 magnetization 

 Broyden mixing:
  rms(total) = 0.35578E-02    rms(broyden)= 0.35559E-02
  rms(prec ) = 0.52633E-02
  weight for this iteration     100.00

 eigenvalues of (default mixing * dielectric matrix)
  average eigenvalue GAMMA=   1.7356
  4.2133  2.4175  1.5476  1.5476  1.5181  0.7801  0.9622  0.8984

 Free energy of the ion-electron system (eV)
  ---------------------------------------------------
  alpha Z        PSCENC =         0.04144063
  Ewald energy   TEWEN  =       683.32470730
  -Hartree energ DENC   =     -1163.32375391
  -exchange      EXHF   =         0.00000000
  -V(xc)+E(xc)   XCENC  =        55.05723543
  PAW double counting   =      1381.88354795    -1384.69400425
  entropy T*S    EENTRO =         0.00000000
  eigenvalues    EBANDS =      -204.77457986
  atomic energy  EATOM  =       596.16534815
  Solvation  Ediel_sol  =         0.00000000
  ---------------------------------------------------
  free energy    TOTEN  =       -36.32005856 eV

  energy without entropy =      -36.32005856  energy(sigma->0) =      -36.32005856


--------------------------------------------------------------------------------------------------------




----------------------------------------- Iteration    1(  14)  ---------------------------------------


    POTLOK:  cpu time   31.2133: real time   31.3085
    SETDIJ:  cpu time    0.0070: real time    0.0066
     EDDAV:  cpu time  106.4098: real time  106.7663
       DOS:  cpu time    0.0000: real time    0.0002
    CHARGE:  cpu time    9.3646: real time    9.3961
    MIXING:  cpu time    1.8157: real time    1.8217
    --------------------------------------------
      LOOP:  cpu time  148.8134: real time  149.3044

 eigenvalue-minimisations  :   116
 total energy-change (2. order) :-0.4290582E-02  (-0.5985292E-04)
 number of electron      15.9999985 magnetization 
 augmentation part        0.4387116 magnetization 

 Broyden mixing:
  rms(total) = 0.25897E-02    rms(broyden)= 0.25893E-02
  rms(prec ) = 0.35769E-02
  weight for this iteration     100.00

 eigenvalues of (default mixing * dielectric matrix)
  average eigenvalue GAMMA=   1.8504
  5.0817  2.7403  2.3067  1.5502  1.3513  0.7811  0.9297  0.9563  0.9563

 Free energy of the ion-electron system (eV)
  ---------------------------------------------------
  alpha Z        PSCENC =         0.04144063
  Ewald energy   TEWEN  =       683.32470730
  -Hartree energ DENC   =     -1163.52778489
  -exchange      EXHF   =         0.00000000
  -V(xc)+E(xc)   XCENC  =        55.04982462
  PAW double counting   =      1379.73640995    -1382.54670880
  entropy T*S    EENTRO =         0.00000000
  eigenvalues    EBANDS =      -204.56758610
  atomic energy  EATOM  =       596.16534815
  Solvation  Ediel_sol  =         0.00000000
  ---------------------------------------------------
  free energy    TOTEN  =       -36.32434914 eV

  energy without entropy =      -36.32434914  energy(sigma->0) =      -36.32434914


--------------------------------------------------------------------------------------------------------




----------------------------------------- Iteration    1(  15)  ---------------------------------------


    POTLOK:  cpu time   31.1573: real time   31.2596
    SETDIJ:  cpu time    0.0060: real time    0.0066
     EDDAV:  cpu time  118.1680: real time  118.5624
       DOS:  cpu time    0.0000: real time    0.0002
    CHARGE:  cpu time    9.0526: real time    9.0833
    MIXING:  cpu time    1.9627: real time    1.9693
    --------------------------------------------
      LOOP:  cpu time  160.3476: real time  160.8858

 eigenvalue-minimisations  :   128
 total energy-change (2. order) :-0.3036640E-02  (-0.2968061E-04)
 number of electron      15.9999985 magnetization 
 augmentation part        0.4386643 magnetization 

 Broyden mixing:
  rms(total) = 0.15375E-02    rms(broyden)= 0.15374E-02
  rms(prec ) = 0.21365E-02
  weight for this iteration     100.00

 eigenvalues of (default mixing * dielectric matrix)
  average eigenvalue GAMMA=   1.9206
  5.8915  2.9884  2.3080  1.5763  1.3637  1.3637  0.7806  0.9098  1.0121  1.0121

 Free energy of the ion-electron system (eV)
  ---------------------------------------------------
  alpha Z        PSCENC =         0.04144063
  Ewald energy   TEWEN  =       683.32470730
  -Hartree energ DENC   =     -1163.66397290
  -exchange      EXHF   =         0.00000000
  -V(xc)+E(xc)   XCENC  =        55.04659485
  PAW double counting   =      1379.94176526    -1382.75265818
  entropy T*S    EENTRO =         0.00000000
  eigenvalues    EBANDS =      -204.43061089
  atomic energy  EATOM  =       596.16534815
  Solvation  Ediel_sol  =         0.00000000
  ---------------------------------------------------
  free energy    TOTEN  =       -36.32738578 eV

  energy without entropy =      -36.32738578  energy(sigma->0) =      -36.32738578


--------------------------------------------------------------------------------------------------------




----------------------------------------- Iteration    1(  16)  ---------------------------------------


    POTLOK:  cpu time   30.7733: real time   30.8730
    SETDIJ:  cpu time    0.0070: real time    0.0065
     EDDAV:  cpu time   80.1288: real time   80.3871
       DOS:  cpu time    0.0000: real time    0.0002
    CHARGE:  cpu time    9.0866: real time    9.1110
    MIXING:  cpu time    2.2097: real time    2.2155
    --------------------------------------------
      LOOP:  cpu time  122.2064: real time  122.5973

 eigenvalue-minimisations  :    80
 total energy-change (2. order) :-0.1948520E-02  (-0.1541848E-04)
 number of electron      15.9999985 magnetization 
 augmentation part        0.4386203 magnetization 

 Broyden mixing:
  rms(total) = 0.81798E-03    rms(broyden)= 0.81749E-03
  rms(prec ) = 0.11856E-02
  weight for this iteration     100.00

 eigenvalues of (default mixing * dielectric matrix)
  average eigenvalue GAMMA=   2.0814
  7.0724  3.4403  2.5166  2.2010  1.5319  1.2440  1.2440  0.7803  0.9016  0.9814
  0.9814

 Free energy of the ion-electron system (eV)
  ---------------------------------------------------
  alpha Z        PSCENC =         0.04144063
  Ewald energy   TEWEN  =       683.32470730
  -Hartree energ DENC   =     -1163.72989972
  -exchange      EXHF   =         0.00000000
  -V(xc)+E(xc)   XCENC  =        55.04438217
  PAW double counting   =      1380.15761686    -1382.96845118
  entropy T*S    EENTRO =         0.00000000
  eigenvalues    EBANDS =      -204.36447850
  atomic energy  EATOM  =       596.16534815
  Solvation  Ediel_sol  =         0.00000000
  ---------------------------------------------------
  free energy    TOTEN  =       -36.32933430 eV

  energy without entropy =      -36.32933430  energy(sigma->0) =      -36.32933430


--------------------------------------------------------------------------------------------------------




----------------------------------------- Iteration    1(  17)  ---------------------------------------


    POTLOK:  cpu time   30.7753: real time   30.8580
    SETDIJ:  cpu time    0.0060: real time    0.0065
     EDDAV:  cpu time  115.0255: real time  115.3781
       DOS:  cpu time    0.0000: real time    0.0002
    CHARGE:  cpu time    9.1876: real time    9.2182
    MIXING:  cpu time    2.3646: real time    2.3717
    --------------------------------------------
      LOOP:  cpu time  157.3621: real time  157.8384

 eigenvalue-minimisations  :   128
 total energy-change (2. order) :-0.1288056E-02  (-0.1753925E-04)
 number of electron      15.9999985 magnetization 
 augmentation part        0.4385738 magnetization 

 Broyden mixing:
  rms(total) = 0.68883E-03    rms(broyden)= 0.68852E-03
  rms(prec ) = 0.82827E-03
  weight for this iteration     100.00

 eigenvalues of (default mixing * dielectric matrix)
  average eigenvalue GAMMA=   2.1071
  7.6331  3.9831  2.3399  2.3399  1.5418  1.3661  1.3661  0.7811  1.0539  1.0539
  0.9134  0.9134

 Free energy of the ion-electron system (eV)
  ---------------------------------------------------
  alpha Z        PSCENC =         0.04144063
  Ewald energy   TEWEN  =       683.32470730
  -Hartree energ DENC   =     -1163.76155588
  -exchange      EXHF   =         0.00000000
  -V(xc)+E(xc)   XCENC  =        55.04267853
  PAW double counting   =      1380.64386208    -1383.45449529
  entropy T*S    EENTRO =         0.00000000
  eigenvalues    EBANDS =      -204.33260788
  atomic energy  EATOM  =       596.16534815
  Solvation  Ediel_sol  =         0.00000000
  ---------------------------------------------------
  free energy    TOTEN  =       -36.33062236 eV

  energy without entropy =      -36.33062236  energy(sigma->0) =      -36.33062236


--------------------------------------------------------------------------------------------------------




----------------------------------------- Iteration    1(  18)  ---------------------------------------


    POTLOK:  cpu time   30.9913: real time   31.0955
    SETDIJ:  cpu time    0.0060: real time    0.0069
     EDDAV:  cpu time   91.3771: real time   91.6775
       DOS:  cpu time    0.0000: real time    0.0002
    CHARGE:  cpu time    8.7117: real time    8.7398
    MIXING:  cpu time    2.6196: real time    2.6279
    --------------------------------------------
      LOOP:  cpu time  133.7067: real time  134.1516

 eigenvalue-minimisations  :    96
 total energy-change (2. order) :-0.4292143E-03  (-0.1779745E-05)
 number of electron      15.9999985 magnetization 
 augmentation part        0.4386018 magnetization 

 Broyden mixing:
  rms(total) = 0.28159E-03    rms(broyden)= 0.28144E-03
  rms(prec ) = 0.39168E-03
  weight for this iteration     100.00

 eigenvalues of (default mixing * dielectric matrix)
  average eigenvalue GAMMA=   2.1859
  8.0291  4.4844  2.5525  2.5525  2.0189  1.5556  1.3200  1.3200  0.7812  0.8895
  0.9550  0.9791  0.9791

 Free energy of the ion-electron system (eV)
  ---------------------------------------------------
  alpha Z        PSCENC =         0.04144063
  Ewald energy   TEWEN  =       683.32470730
  -Hartree energ DENC   =     -1163.73370976
  -exchange      EXHF   =         0.00000000
  -V(xc)+E(xc)   XCENC  =        55.04043924
  PAW double counting   =      1380.52298414    -1383.33363307
  entropy T*S    EENTRO =         0.00000000
  eigenvalues    EBANDS =      -204.35862819
  atomic energy  EATOM  =       596.16534815
  Solvation  Ediel_sol  =         0.00000000
  ---------------------------------------------------
  free energy    TOTEN  =       -36.33105157 eV

  energy without entropy =      -36.33105157  energy(sigma->0) =      -36.33105157


--------------------------------------------------------------------------------------------------------




----------------------------------------- Iteration    1(  19)  ---------------------------------------


    POTLOK:  cpu time   27.6508: real time   27.7430
    SETDIJ:  cpu time    0.0060: real time    0.0062
     EDDAV:  cpu time   80.0528: real time   80.3142
       DOS:  cpu time    0.0000: real time    0.0002
    CHARGE:  cpu time    7.3179: real time    7.3435
    MIXING:  cpu time    2.2017: real time    2.2073
    --------------------------------------------
      LOOP:  cpu time  117.2312: real time  117.6189

 eigenvalue-minimisations  :    80
 total energy-change (2. order) :-0.3075206E-03  (-0.1386253E-05)
 number of electron      15.9999985 magnetization 
 augmentation part        0.4386094 magnetization 

 Broyden mixing:
  rms(total) = 0.29879E-03    rms(broyden)= 0.29870E-03
  rms(prec ) = 0.33816E-03
  weight for this iteration     100.00

 eigenvalues of (default mixing * dielectric matrix)
  average eigenvalue GAMMA=   2.1902
  8.4190  4.8611  2.8523  2.4598  2.1661  1.4942  1.3468  1.3468  1.0636  1.0636
  0.7809  0.9511  0.9511  0.9066

 Free energy of the ion-electron system (eV)
  ---------------------------------------------------
  alpha Z        PSCENC =         0.04144063
  Ewald energy   TEWEN  =       683.32470730
  -Hartree energ DENC   =     -1163.72849373
  -exchange      EXHF   =         0.00000000
  -V(xc)+E(xc)   XCENC  =        55.03970336
  PAW double counting   =      1380.38212470    -1383.19268928
  entropy T*S    EENTRO =         0.00000000
  eigenvalues    EBANDS =      -204.36350022
  atomic energy  EATOM  =       596.16534815
  Solvation  Ediel_sol  =         0.00000000
  ---------------------------------------------------
  free energy    TOTEN  =       -36.33135909 eV

  energy without entropy =      -36.33135909  energy(sigma->0) =      -36.33135909


--------------------------------------------------------------------------------------------------------




----------------------------------------- Iteration    1(  20)  ---------------------------------------


    POTLOK:  cpu time   25.7021: real time   25.7809
    SETDIJ:  cpu time    0.0070: real time    0.0064
     EDDAV:  cpu time   93.1548: real time   93.4526
       DOS:  cpu time    0.0000: real time    0.0002
    --------------------------------------------
      LOOP:  cpu time  118.8649: real time  119.2445

 eigenvalue-minimisations  :    96
 total energy-change (2. order) :-0.9924009E-04  (-0.3359062E-06)
 number of electron      15.9999985 magnetization 
 augmentation part        0.4386094 magnetization 

 Free energy of the ion-electron system (eV)
  ---------------------------------------------------
  alpha Z        PSCENC =         0.04144063
  Ewald energy   TEWEN  =       683.32470730
  -Hartree energ DENC   =     -1163.73250831
  -exchange      EXHF   =         0.00000000
  -V(xc)+E(xc)   XCENC  =        55.03979617
  PAW double counting   =      1380.35667100    -1383.16727636
  entropy T*S    EENTRO =         0.00000000
  eigenvalues    EBANDS =      -204.35963691
  atomic energy  EATOM  =       596.16534815
  Solvation  Ediel_sol  =         0.00000000
  ---------------------------------------------------
  free energy    TOTEN  =       -36.33145833 eV

  energy without entropy =      -36.33145833  energy(sigma->0) =      -36.33145833


--------------------------------------------------------------------------------------------------------




 average (electrostatic) potential at core
  the test charge radii are     0.5201  0.6991  0.7089
  (the norm of the test charge is              1.0000)
       1 -43.1162       2 -43.1158       3 -43.0591       4 -59.9896       5 -60.0356
       6 -73.2988
 
 
 
 E-fermi :  -6.8902     XC(G=0):  -0.0986     alpha+bet : -0.0137


 k-point     1 :       0.2500    0.2500    0.2500
  band No.  band energies     occupation 
      1     -22.6881      2.00000
      2     -19.2414      2.00000
      3     -12.5856      2.00000
      4     -11.5599      2.00000
      5     -11.4401      2.00000
      6      -8.6857      2.00000
      7      -8.1332      2.00000
      8      -7.8458      2.00000
      9      -1.6419      0.00000
     10      -0.4272      0.00000
     11      -0.4253      0.00000
     12      -0.0149      0.00000

 k-point     2 :      -0.2500    0.2500    0.2500
  band No.  band energies     occupation 
      1     -22.6881      2.00000
      2     -19.2414      2.00000
      3     -12.5856      2.00000
      4     -11.5599      2.00000
      5     -11.4401      2.00000
      6      -8.6857      2.00000
      7      -8.1332      2.00000
      8      -7.8458      2.00000
      9      -1.6419      0.00000
     10      -0.4272      0.00000
     11      -0.4253      0.00000
     12      -0.0182      0.00000

 k-point     3 :       0.2500   -0.2500    0.2500
  band No.  band energies     occupation 
      1     -22.6881      2.00000
      2     -19.2414      2.00000
      3     -12.5856      2.00000
      4     -11.5599      2.00000
      5     -11.4401      2.00000
      6      -8.6857      2.00000
      7      -8.1332      2.00000
      8      -7.8458      2.00000
      9      -1.6419      0.00000
     10      -0.4273      0.00000
     11      -0.4253      0.00000
     12       0.0082      0.00000

 k-point     4 :      -0.2500   -0.2500    0.2500
  band No.  band energies     occupation 
      1     -22.6881      2.00000
      2     -19.2414      2.00000
      3     -12.5856      2.00000
      4     -11.5599      2.00000
      5     -11.4401      2.00000
      6      -8.6857      2.00000
      7      -8.1332      2.00000
      8      -7.8458      2.00000
      9      -1.6419      0.00000
     10      -0.4273      0.00000
     11      -0.4253      0.00000
     12      -0.0103      0.00000


--------------------------------------------------------------------------------------------------------


 soft charge-density along one line, spin component           1
         0         1         2         3         4         5         6         7         8         9
 total charge-density along one line
 
 pseudopotential strength for first ion, spin component:           1
 -2.363  -4.076  -0.002   0.000  -0.001
 -4.076  -6.945  -0.005   0.001  -0.002
 -0.002  -0.005  -0.330  -0.001   0.002
  0.000   0.001  -0.001  -0.334   0.000
 -0.001  -0.002   0.002   0.000  -0.333
 total augmentation occupancy for first ion, spin component:           1
  3.513  -0.632   0.402  -0.105   0.158
 -0.632   0.129  -0.074   0.019  -0.029
  0.402  -0.074   0.048  -0.010   0.016
 -0.105   0.019  -0.010   0.012  -0.004
  0.158  -0.029   0.016  -0.004   0.013


------------------------ aborting loop because EDIFF is reached ----------------------------------------


    CHARGE:  cpu time    8.9036: real time    8.9328
    FORLOC:  cpu time    2.7936: real time    2.8022
    FORNL :  cpu time   25.4021: real time   25.4853
    STRESS:  cpu time   73.8938: real time   74.1287
    FORCOR:  cpu time   28.7896: real time   28.8792
    FORHAR:  cpu time    9.8645: real time    9.8946
    MIXING:  cpu time    2.3136: real time    2.3200
    OFIELD:  cpu time    0.0000: real time    0.0001

  FORCE on cell =-STRESS in cart. coord.  units (eV):
  Direction    XX          YY          ZZ          XY          YZ          ZX
  --------------------------------------------------------------------------------------
  Alpha Z     0.04144     0.04144     0.04144
  Ewald     516.62007    79.47198    87.23238   114.27671    42.68019   124.18078
  Hartree   556.59022   302.05702   305.09297    53.77658    17.13948    58.12677
  E(xc)     -59.33072   -60.25940   -60.23532     0.33601     0.13217     0.36742
  Local   -1225.29427  -549.81965  -559.80524  -159.43133   -55.49702  -172.82856
  n-local   -27.04788   -25.34945   -25.48098    -1.67529    -0.69993    -1.83643
  augment     0.50826     0.35357     0.34482     0.00436    -0.04423    -0.00851
  Kinetic   239.49940   252.40375   251.68531    -6.94085    -3.80447    -7.63072
  Fock        0.00000     0.00000     0.00000     0.00000     0.00000     0.00000
  -------------------------------------------------------------------------------------
  Total       1.58651    -1.10073    -1.12462     0.34619    -0.09381     0.37075
  in kB       0.09414    -0.06532    -0.06673     0.02054    -0.00557     0.02200
  external pressure =       -0.01 kB  Pullay stress =        0.00 kB


 VOLUME and BASIS-vectors are now :
 -----------------------------------------------------------------------------
  energy-cutoff  :      400.00
  volume of cell :    27000.00
      direct lattice vectors                 reciprocal lattice vectors
    30.000000000  0.000000000  0.000000000     0.033333333  0.000000000  0.000000000
     0.000000000 30.000000000  0.000000000     0.000000000  0.033333333  0.000000000
     0.000000000  0.000000000 30.000000000     0.000000000  0.000000000  0.033333333

  length of vectors
    30.000000000 30.000000000 30.000000000     0.033333333  0.033333333  0.033333333


 FORCES acting on ions
    electron-ion (+dipol)            ewald-force                    non-local-force                 convergence-correction
 -----------------------------------------------------------------------------------------------
   0.323E+02 0.556E+02 -.122E+02   -.345E+02 -.608E+02 0.133E+02   0.201E+01 0.514E+01 -.137E+01   -.184E-03 0.163E-03 -.513E-04
   0.327E+02 -.185E+02 0.535E+02   -.349E+02 0.203E+02 -.586E+02   0.205E+01 -.196E+01 0.493E+01   -.183E-03 -.708E-04 0.156E-03
   0.315E+02 -.378E+02 -.428E+02   -.332E+02 0.413E+02 0.468E+02   0.129E+01 -.360E+01 -.407E+01   -.240E-03 -.103E-03 -.115E-03
   0.102E+03 0.156E+02 0.167E+02   -.107E+03 -.159E+02 -.170E+02   0.495E+01 0.222E+00 0.213E+00   -.204E-02 -.136E-03 -.142E-03
   0.302E+02 0.738E+02 0.821E+02   -.318E+02 -.759E+02 -.844E+02   0.131E+01 0.285E+01 0.317E+01   -.892E-03 -.317E-03 -.354E-03
   -.209E+03 -.753E+02 -.826E+02   0.242E+03 0.910E+02 0.998E+02   -.316E+02 -.161E+02 -.177E+02   -.443E-03 0.193E-03 0.213E-03
 -----------------------------------------------------------------------------------------------
   0.200E+02 0.134E+02 0.148E+02   0.000E+00 0.000E+00 -.142E-13   -.200E+02 -.134E+02 -.148E+02   -.398E-02 -.271E-03 -.294E-03
 
 
 POSITION                                       TOTAL-FORCE (eV/Angst)
 -----------------------------------------------------------------------------------
     14.14604     13.90302     15.14109        -0.150065     -0.100662     -0.177939
     14.13863     15.26463     13.93381        -0.151220     -0.166938     -0.118622
     14.26333     15.60362     15.68663        -0.412244     -0.098249     -0.105703
     14.52942     14.89535     14.88652        -0.120424     -0.028328     -0.030027
     15.97775     14.94815     14.93540        -0.315610      0.758418      0.850498
     16.94550     15.38490     15.41594         1.149564     -0.364241     -0.418206
 -----------------------------------------------------------------------------------
    total drift:                                0.007075      0.001625      0.000044


--------------------------------------------------------------------------------------------------------



  FREE ENERGIE OF THE ION-ELECTRON SYSTEM (eV)
  ---------------------------------------------------
  free  energy   TOTEN  =       -36.33145833 eV

  energy  without entropy=      -36.33145833  energy(sigma->0) =      -36.33145833
 


--------------------------------------------------------------------------------------------------------


    POTLOK:  cpu time   27.4708: real time   27.5555


--------------------------------------------------------------------------------------------------------


 NEB: the previous image is higher in energy: T
 NEB: the next image is higher in energy    : F
 NEB: only prev energy greater

 NEB: Tangent
 ----------------------------------------------
     -0.08002     -0.05518     -0.09348
     -0.08558     -0.09392     -0.06312
     -0.22371     -0.05281     -0.05756
     -0.06593     -0.01602     -0.01558
     -0.17193      0.41464      0.46184
      0.62717     -0.19671     -0.23209

 NEB: forces: par spring, perp REAL, dneb     0.006999    0.014705    0.000000
 NEB: distance to prev, next image, angle between     0.248386    0.249786  151.922660
 NEB: projections on to tangent (spring, REAL)     0.006999    1.833876

 stress matrix after NEB project (eV)
      1.58651      0.34619      0.37075
      0.34619     -1.10073     -0.09381
      0.37075     -0.09381     -1.12462
  FORCES: max atom, RMS     0.008475    0.006648
  FORCE total and by dimension    0.016285    0.007158
  Stress total and by dimension    2.350660    1.586506
 
 OPT: Flag T
 OPT: FIRE Step
 OPT: FIRE, TIMESTEP      0.10000
 OPT: FIRE, alpha         0.10000


--------------------------------------------------------------------------------------------------------


    WAVPRE:  cpu time    8.2587: real time    8.4458
 FEWALD executed in parallel
    FEWALD:  cpu time    0.0000: real time    0.0004
    ORTHCH:  cpu time    6.2141: real time    6.5300
     LOOP+:  cpu time 3184.9078: real time 3195.0555


----------------------------------------- Iteration    2(   1)  ---------------------------------------


    POTLOK:  cpu time   36.0675: real time   38.4071
    SETDIJ:  cpu time    0.0070: real time    0.0070
     EDDAV:  cpu time   63.6333: real time   68.2810
       DOS:  cpu time    0.0000: real time    0.0002
    CHARGE:  cpu time    5.6501: real time    5.6665
    MIXING:  cpu time    0.9249: real time    0.9277
    --------------------------------------------
      LOOP:  cpu time  106.2838: real time  113.2998

 eigenvalue-minimisations  :    80
 total energy-change (2. order) :-0.3200775E-03  (-0.4570242E-05)
 number of electron      15.9999985 magnetization 
 augmentation part        0.4385854 magnetization 

 Broyden mixing:
  rms(total) = 0.21204E-03    rms(broyden)= 0.21117E-03
  rms(prec ) = 0.22081E-03
  weight for this iteration     100.00

 Free energy of the ion-electron system (eV)
  ---------------------------------------------------
  alpha Z        PSCENC =         0.04144063
  Ewald energy   TEWEN  =       683.31846050
  -Hartree energ DENC   =     -1163.73348361
  -exchange      EXHF   =         0.00000000
  -V(xc)+E(xc)   XCENC  =        55.03986453
  PAW double counting   =      1380.36704779    -1383.17768914
  entropy T*S    EENTRO =         0.00000000
  eigenvalues    EBANDS =      -204.35266802
  atomic energy  EATOM  =       596.16534815
  Solvation  Ediel_sol  =         0.00000000
  ---------------------------------------------------
  free energy    TOTEN  =       -36.33167917 eV

  energy without entropy =      -36.33167917  energy(sigma->0) =      -36.33167917


--------------------------------------------------------------------------------------------------------




----------------------------------------- Iteration    2(   2)  ---------------------------------------


    POTLOK:  cpu time   33.3129: real time   34.1030
    SETDIJ:  cpu time    0.0070: real time    0.0074
     EDDAV:  cpu time   77.8152: real time   80.4254
       DOS:  cpu time    0.0000: real time    0.0002
    CHARGE:  cpu time    5.9401: real time    5.9548
    MIXING:  cpu time    1.1418: real time    1.1445
    --------------------------------------------
      LOOP:  cpu time  118.2180: real time  121.6448

 eigenvalue-minimisations  :    96
 total energy-change (2. order) :-0.1161053E-04  (-0.2565391E-06)
 number of electron      15.9999985 magnetization 
 augmentation part        0.4385899 magnetization 

 Broyden mixing:
  rms(total) = 0.13274E-03    rms(broyden)= 0.13267E-03
  rms(prec ) = 0.14122E-03
  weight for this iteration     100.00

 eigenvalues of (default mixing * dielectric matrix)
  average eigenvalue GAMMA=   1.6625
  1.6625

 Free energy of the ion-electron system (eV)
  ---------------------------------------------------
  alpha Z        PSCENC =         0.04144063
  Ewald energy   TEWEN  =       683.31846050
  -Hartree energ DENC   =     -1163.73226280
  -exchange      EXHF   =         0.00000000
  -V(xc)+E(xc)   XCENC  =        55.03975469
  PAW double counting   =      1380.36270851    -1383.17332410
  entropy T*S    EENTRO =         0.00000000
  eigenvalues    EBANDS =      -204.35381636
  atomic energy  EATOM  =       596.16534815
  Solvation  Ediel_sol  =         0.00000000
  ---------------------------------------------------
  free energy    TOTEN  =       -36.33169078 eV

  energy without entropy =      -36.33169078  energy(sigma->0) =      -36.33169078


--------------------------------------------------------------------------------------------------------




----------------------------------------- Iteration    2(   3)  ---------------------------------------


    POTLOK:  cpu time   34.7087: real time   34.7902
    SETDIJ:  cpu time    0.0070: real time    0.0071
     EDDAV:  cpu time   66.5449: real time   66.7007
       DOS:  cpu time    0.0000: real time    0.0002
    CHARGE:  cpu time    6.0121: real time    6.0267
    MIXING:  cpu time    0.9709: real time    0.9729
    --------------------------------------------
      LOOP:  cpu time  108.2455: real time  108.5016

 eigenvalue-minimisations  :    80
 total energy-change (2. order) :-0.1500422E-04  (-0.4659215E-07)
 number of electron      15.9999985 magnetization 
 augmentation part        0.4385902 magnetization 

 Broyden mixing:
  rms(total) = 0.41967E-04    rms(broyden)= 0.41916E-04
  rms(prec ) = 0.52376E-04
  weight for this iteration     100.00

 eigenvalues of (default mixing * dielectric matrix)
  average eigenvalue GAMMA=   1.4639
  1.0250  1.9028

 Free energy of the ion-electron system (eV)
  ---------------------------------------------------
  alpha Z        PSCENC =         0.04144063
  Ewald energy   TEWEN  =       683.31846050
  -Hartree energ DENC   =     -1163.73115021
  -exchange      EXHF   =         0.00000000
  -V(xc)+E(xc)   XCENC  =        55.03965290
  PAW double counting   =      1380.36135380    -1383.17195120
  entropy T*S    EENTRO =         0.00000000
  eigenvalues    EBANDS =      -204.35486036
  atomic energy  EATOM  =       596.16534815
  Solvation  Ediel_sol  =         0.00000000
  ---------------------------------------------------
  free energy    TOTEN  =       -36.33170578 eV

  energy without entropy =      -36.33170578  energy(sigma->0) =      -36.33170578


--------------------------------------------------------------------------------------------------------




----------------------------------------- Iteration    2(   4)  ---------------------------------------


    POTLOK:  cpu time   31.7092: real time   31.7821
    SETDIJ:  cpu time    0.0080: real time    0.0072
     EDDAV:  cpu time   74.6836: real time   76.5775
[...]
  Solvation  Ediel_sol  =         0.00000000
  ---------------------------------------------------
  free energy    TOTEN  =       -36.34836278 eV

  energy without entropy =      -36.34836278  energy(sigma->0) =      -36.34836278


--------------------------------------------------------------------------------------------------------




----------------------------------------- Iteration   74(   2)  ---------------------------------------


    POTLOK:  cpu time   22.9245: real time   22.9690
    SETDIJ:  cpu time    0.0060: real time    0.0064
     EDDAV:  cpu time   36.0785: real time   36.1500
       DOS:  cpu time    0.0000: real time    0.0002
    CHARGE:  cpu time    4.8013: real time    4.8100
    MIXING:  cpu time    0.5709: real time    0.5719
    --------------------------------------------
      LOOP:  cpu time   64.3822: real time   64.5107

 eigenvalue-minimisations  :    48
 total energy-change (2. order) :-0.1877319E-06  (-0.6478968E-06)
 number of electron      15.9999984 magnetization 
 augmentation part        0.4386099 magnetization 

 Broyden mixing:
  rms(total) = 0.31649E-03    rms(broyden)= 0.31597E-03
  rms(prec ) = 0.32158E-03
  weight for this iteration     100.00

 eigenvalues of (default mixing * dielectric matrix)
  average eigenvalue GAMMA=   1.6691
  1.6691

 Free energy of the ion-electron system (eV)
  ---------------------------------------------------
  alpha Z        PSCENC =         0.04144063
  Ewald energy   TEWEN  =       683.00514462
  -Hartree energ DENC   =     -1163.41840440
  -exchange      EXHF   =         0.00000000
  -V(xc)+E(xc)   XCENC  =        55.03927658
  PAW double counting   =      1380.60330585    -1383.41372943
  entropy T*S    EENTRO =         0.00000000
  eigenvalues    EBANDS =      -204.37074497
  atomic energy  EATOM  =       596.16534815
  Solvation  Ediel_sol  =         0.00000000
  ---------------------------------------------------
  free energy    TOTEN  =       -36.34836296 eV

  energy without entropy =      -36.34836296  energy(sigma->0) =      -36.34836296


--------------------------------------------------------------------------------------------------------




----------------------------------------- Iteration   74(   3)  ---------------------------------------


    POTLOK:  cpu time   20.6369: real time   20.6782
    SETDIJ:  cpu time    0.0070: real time    0.0063
     EDDAV:  cpu time   36.2075: real time   36.2798
       DOS:  cpu time    0.0000: real time    0.0002
    CHARGE:  cpu time    4.9263: real time    4.9363
    MIXING:  cpu time    0.6199: real time    0.6204
    --------------------------------------------
      LOOP:  cpu time   62.3995: real time   62.5250

 eigenvalue-minimisations  :    48
 total energy-change (2. order) :-0.7806557E-07  (-0.8174309E-07)
 number of electron      15.9999984 magnetization 
 augmentation part        0.4386122 magnetization 

 Broyden mixing:
  rms(total) = 0.86869E-04    rms(broyden)= 0.86733E-04
  rms(prec ) = 0.87923E-04
  weight for this iteration     100.00

 eigenvalues of (default mixing * dielectric matrix)
  average eigenvalue GAMMA=   1.5586
  1.0486  2.0687

 Free energy of the ion-electron system (eV)
  ---------------------------------------------------
  alpha Z        PSCENC =         0.04144063
  Ewald energy   TEWEN  =       683.00514462
  -Hartree energ DENC   =     -1163.41792323
  -exchange      EXHF   =         0.00000000
  -V(xc)+E(xc)   XCENC  =        55.03925643
  PAW double counting   =      1380.60084282    -1383.41125364
  entropy T*S    EENTRO =         0.00000000
  eigenvalues    EBANDS =      -204.37121882
  atomic energy  EATOM  =       596.16534815
  Solvation  Ediel_sol  =         0.00000000
  ---------------------------------------------------
  free energy    TOTEN  =       -36.34836304 eV

  energy without entropy =      -36.34836304  energy(sigma->0) =      -36.34836304


--------------------------------------------------------------------------------------------------------




----------------------------------------- Iteration   74(   4)  ---------------------------------------


    POTLOK:  cpu time   20.5079: real time   20.5479
    SETDIJ:  cpu time    0.0060: real time    0.0062
     EDDAV:  cpu time   36.2865: real time   36.3575
       DOS:  cpu time    0.0000: real time    0.0002
    CHARGE:  cpu time    4.9492: real time    4.9594
    MIXING:  cpu time    0.6589: real time    0.6598
    --------------------------------------------
      LOOP:  cpu time   62.4095: real time   62.5348

 eigenvalue-minimisations  :    48
 total energy-change (2. order) :-0.2880324E-07  (-0.1982205E-07)
 number of electron      15.9999984 magnetization 
 augmentation part        0.4386136 magnetization 

 Broyden mixing:
  rms(total) = 0.31712E-04    rms(broyden)= 0.31633E-04
  rms(prec ) = 0.32686E-04
  weight for this iteration     100.00

 eigenvalues of (default mixing * dielectric matrix)
  average eigenvalue GAMMA=   1.6221
  2.3131  1.2766  1.2766

 Free energy of the ion-electron system (eV)
  ---------------------------------------------------
  alpha Z        PSCENC =         0.04144063
  Ewald energy   TEWEN  =       683.00514462
  -Hartree energ DENC   =     -1163.41755029
  -exchange      EXHF   =         0.00000000
  -V(xc)+E(xc)   XCENC  =        55.03923505
  PAW double counting   =      1380.60179300    -1383.41220220
  entropy T*S    EENTRO =         0.00000000
  eigenvalues    EBANDS =      -204.37157203
  atomic energy  EATOM  =       596.16534815
  Solvation  Ediel_sol  =         0.00000000
  ---------------------------------------------------
  free energy    TOTEN  =       -36.34836307 eV

  energy without entropy =      -36.34836307  energy(sigma->0) =      -36.34836307


--------------------------------------------------------------------------------------------------------




----------------------------------------- Iteration   74(   5)  ---------------------------------------


    POTLOK:  cpu time   21.3738: real time   21.4157
    SETDIJ:  cpu time    0.0060: real time    0.0062
     EDDAV:  cpu time   35.2526: real time   35.3225
       DOS:  cpu time    0.0010: real time    0.0002
    CHARGE:  cpu time    5.2072: real time    5.2181
    MIXING:  cpu time    0.7719: real time    0.7732
    --------------------------------------------
      LOOP:  cpu time   62.6135: real time   62.7435

 eigenvalue-minimisations  :    48
 total energy-change (2. order) :-0.3240075E-08  (-0.5912936E-08)
 number of electron      15.9999984 magnetization 
 augmentation part        0.4386135 magnetization 

 Broyden mixing:
  rms(total) = 0.12030E-04    rms(broyden)= 0.12019E-04
  rms(prec ) = 0.13149E-04
  weight for this iteration     100.00

 eigenvalues of (default mixing * dielectric matrix)
  average eigenvalue GAMMA=   1.6094
  2.4745  1.8597  0.9341  1.1695

 Free energy of the ion-electron system (eV)
  ---------------------------------------------------
  alpha Z        PSCENC =         0.04144063
  Ewald energy   TEWEN  =       683.00514462
  -Hartree energ DENC   =     -1163.41733162
  -exchange      EXHF   =         0.00000000
  -V(xc)+E(xc)   XCENC  =        55.03922329
  PAW double counting   =      1380.60400644    -1383.41441861
  entropy T*S    EENTRO =         0.00000000
  eigenvalues    EBANDS =      -204.37177598
  atomic energy  EATOM  =       596.16534815
  Solvation  Ediel_sol  =         0.00000000
  ---------------------------------------------------
  free energy    TOTEN  =       -36.34836307 eV

  energy without entropy =      -36.34836307  energy(sigma->0) =      -36.34836307


--------------------------------------------------------------------------------------------------------




----------------------------------------- Iteration   74(   6)  ---------------------------------------


    POTLOK:  cpu time   21.8617: real time   21.9047
    SETDIJ:  cpu time    0.0060: real time    0.0063
     EDDAV:  cpu time   35.1937: real time   35.2632
       DOS:  cpu time    0.0000: real time    0.0002
    --------------------------------------------
      LOOP:  cpu time   57.0633: real time   57.5907

 eigenvalue-minimisations  :    48
 total energy-change (2. order) :-0.1379431E-07  (-0.3129784E-08)
 number of electron      15.9999984 magnetization 
 augmentation part        0.4386135 magnetization 

 Free energy of the ion-electron system (eV)
  ---------------------------------------------------
  alpha Z        PSCENC =         0.04144063
  Ewald energy   TEWEN  =       683.00514462
  -Hartree energ DENC   =     -1163.41720843
  -exchange      EXHF   =         0.00000000
  -V(xc)+E(xc)   XCENC  =        55.03921639
  PAW double counting   =      1380.60496319    -1383.41537702
  entropy T*S    EENTRO =         0.00000000
  eigenvalues    EBANDS =      -204.37189062
  atomic energy  EATOM  =       596.16534815
  Solvation  Ediel_sol  =         0.00000000
  ---------------------------------------------------
  free energy    TOTEN  =       -36.34836309 eV

  energy without entropy =      -36.34836309  energy(sigma->0) =      -36.34836309


--------------------------------------------------------------------------------------------------------




 average (electrostatic) potential at core
  the test charge radii are     0.5201  0.6991  0.7089
  (the norm of the test charge is              1.0000)
       1 -43.1202       2 -43.1197       3 -43.0677       4 -59.9941       5 -60.0360
       6 -73.2919
 
 
 
 E-fermi :  -6.8746     XC(G=0):  -0.0586     alpha+bet : -0.0137


 k-point     1 :       0.2500    0.2500    0.2500
  band No.  band energies     occupation 
      1     -22.6794      2.00000
      2     -19.2517      2.00000
      3     -12.5956      2.00000
      4     -11.5588      2.00000
      5     -11.4446      2.00000
      6      -8.6753      2.00000
      7      -8.1301      2.00000
      8      -7.8505      2.00000
      9      -1.6063      0.00000
     10      -0.4336      0.00000
     11      -0.4282      0.00000
     12       0.0272      0.00000

 k-point     2 :      -0.2500    0.2500    0.2500
  band No.  band energies     occupation 
      1     -22.6794      2.00000
      2     -19.2517      2.00000
      3     -12.5956      2.00000
      4     -11.5589      2.00000
      5     -11.4446      2.00000
      6      -8.6753      2.00000
      7      -8.1301      2.00000
      8      -7.8505      2.00000
      9      -1.6063      0.00000
     10      -0.4336      0.00000
     11      -0.4282      0.00000
     12       0.0241      0.00000

 k-point     3 :       0.2500   -0.2500    0.2500
  band No.  band energies     occupation 
      1     -22.6794      2.00000
      2     -19.2517      2.00000
      3     -12.5956      2.00000
      4     -11.5589      2.00000
      5     -11.4446      2.00000
      6      -8.6753      2.00000
      7      -8.1301      2.00000
      8      -7.8505      2.00000
      9      -1.6063      0.00000
     10      -0.4336      0.00000
     11      -0.4282      0.00000
     12       0.0262      0.00000

 k-point     4 :      -0.2500   -0.2500    0.2500
  band No.  band energies     occupation 
      1     -22.6794      2.00000
      2     -19.2517      2.00000
      3     -12.5956      2.00000
      4     -11.5589      2.00000
      5     -11.4446      2.00000
      6      -8.6753      2.00000
      7      -8.1301      2.00000
      8      -7.8505      2.00000
      9      -1.6063      0.00000
     10      -0.4336      0.00000
     11      -0.4282      0.00000
     12       0.0262      0.00000


--------------------------------------------------------------------------------------------------------


 soft charge-density along one line, spin component           1
         0         1         2         3         4         5         6         7         8         9
 total charge-density along one line
 
 pseudopotential strength for first ion, spin component:           1
 -2.363  -4.076  -0.002   0.000  -0.001
 -4.076  -6.945  -0.005   0.001  -0.002
 -0.002  -0.005  -0.330  -0.001   0.002
  0.000   0.001  -0.001  -0.334   0.000
 -0.001  -0.002   0.002   0.000  -0.333
 total augmentation occupancy for first ion, spin component:           1
  3.512  -0.632   0.402  -0.105   0.157
 -0.632   0.129  -0.074   0.019  -0.029
  0.402  -0.074   0.048  -0.010   0.016
 -0.105   0.019  -0.010   0.011  -0.004
  0.157  -0.029   0.016  -0.004   0.013


------------------------ aborting loop because EDIFF is reached ----------------------------------------


    CHARGE:  cpu time    5.2982: real time    5.3087
    FORLOC:  cpu time    2.3526: real time    2.3577
    FORNL :  cpu time   16.5835: real time   16.6158
    STRESS:  cpu time   50.8293: real time   50.9313
    FORCOR:  cpu time   19.8750: real time   19.9115
    FORHAR:  cpu time    7.4899: real time    7.5040
    MIXING:  cpu time    0.8099: real time    0.8123
    OFIELD:  cpu time    0.0000: real time    0.0000

  FORCE on cell =-STRESS in cart. coord.  units (eV):
  Direction    XX          YY          ZZ          XY          YZ          ZX
  --------------------------------------------------------------------------------------
  Alpha Z     0.04144     0.04144     0.04144
  Ewald     519.11166    78.40592    85.48730   114.02151    41.43374   122.91434
  Hartree   557.43859   301.62424   304.35419    53.68184    16.66883    57.45842
  E(xc)     -59.32076   -60.26239   -60.24032     0.33499     0.12819     0.36418
  Local   -1228.33855  -548.44625  -557.50107  -159.07953   -53.91406  -170.93161
  n-local   -27.09823   -25.33276   -25.45484    -1.64390    -0.67779    -1.79845
  augment     0.50589     0.35439     0.34570     0.00214    -0.04246    -0.01100
  Kinetic   239.17327   252.51866   251.84499    -7.00263    -3.68508    -7.66552
  Fock        0.00000     0.00000     0.00000     0.00000     0.00000     0.00000
  -------------------------------------------------------------------------------------
  Total       1.51333    -1.09675    -1.12260     0.31441    -0.08865     0.33035
  in kB       0.08980    -0.06508    -0.06662     0.01866    -0.00526     0.01960
  external pressure =       -0.01 kB  Pullay stress =        0.00 kB


 VOLUME and BASIS-vectors are now :
 -----------------------------------------------------------------------------
  energy-cutoff  :      400.00
  volume of cell :    27000.00
      direct lattice vectors                 reciprocal lattice vectors
    30.000000000  0.000000000  0.000000000     0.033333333  0.000000000  0.000000000
     0.000000000 30.000000000  0.000000000     0.000000000  0.033333333  0.000000000
     0.000000000  0.000000000 30.000000000     0.000000000  0.000000000  0.033333333

  length of vectors
    30.000000000 30.000000000 30.000000000     0.033333333  0.033333333  0.033333333


 FORCES acting on ions
    electron-ion (+dipol)            ewald-force                    non-local-force                 convergence-correction
 -----------------------------------------------------------------------------------------------
   0.322E+02 0.556E+02 -.122E+02   -.343E+02 -.608E+02 0.134E+02   0.200E+01 0.514E+01 -.137E+01   -.117E-04 0.888E-05 0.136E-04
   0.328E+02 -.183E+02 0.535E+02   -.350E+02 0.201E+02 -.585E+02   0.206E+01 -.195E+01 0.493E+01   -.195E-04 -.900E-06 0.173E-04
   0.316E+02 -.378E+02 -.428E+02   -.333E+02 0.413E+02 0.468E+02   0.131E+01 -.361E+01 -.407E+01   -.570E-05 -.652E-05 0.103E-04
   0.102E+03 0.157E+02 0.166E+02   -.107E+03 -.160E+02 -.169E+02   0.494E+01 0.248E+00 0.232E+00   -.703E-04 0.118E-04 0.965E-04
   0.314E+02 0.723E+02 0.805E+02   -.330E+02 -.744E+02 -.828E+02   0.134E+01 0.278E+01 0.309E+01   -.164E-03 0.280E-05 0.130E-03
   -.210E+03 -.743E+02 -.810E+02   0.243E+03 0.898E+02 0.980E+02   -.319E+02 -.158E+02 -.174E+02   -.209E-03 0.315E-04 0.261E-03
 -----------------------------------------------------------------------------------------------
   0.203E+02 0.132E+02 0.146E+02   0.000E+00 0.000E+00 0.000E+00   -.203E+02 -.132E+02 -.146E+02   -.480E-03 0.475E-04 0.528E-03
 
 
 POSITION                                       TOTAL-FORCE (eV/Angst)
 -----------------------------------------------------------------------------------
     14.14676     13.90256     15.14261        -0.138949     -0.095643     -0.173473
     14.13638     15.26253     13.93456        -0.139893     -0.163073     -0.112954
     14.26066     15.60370     15.68703        -0.417631     -0.093381     -0.099811
     14.52884     14.89556     14.88773        -0.114854     -0.022549     -0.023252
     15.97666     14.95234     14.93778        -0.295895      0.736099      0.826785
     16.95138     15.38297     15.40970         1.107222     -0.361453     -0.417294
 -----------------------------------------------------------------------------------
    total drift:                                0.006983      0.002452      0.001574


--------------------------------------------------------------------------------------------------------



  FREE ENERGIE OF THE ION-ELECTRON SYSTEM (eV)
  ---------------------------------------------------
  free  energy   TOTEN  =       -36.34836309 eV

  energy  without entropy=      -36.34836309  energy(sigma->0) =      -36.34836309
 
 d Force = 0.4931290E-03[ 0.493E-03, 0.493E-03]  d Energy = 0.4930850E-03 0.440E-07
 d Force = 0.1098152E-01[ 0.110E-01, 0.110E-01]  d Ewald  = 0.1098151E-01 0.296E-08


--------------------------------------------------------------------------------------------------------


    POTLOK:  cpu time   18.9311: real time   18.9664


--------------------------------------------------------------------------------------------------------


 NEB: the previous image is higher in energy: T
 NEB: the next image is higher in energy    : F
 NEB: only prev energy greater

 NEB: Tangent
 ----------------------------------------------
     -0.07901     -0.05395     -0.09881
     -0.07804     -0.09093     -0.06427
     -0.23406     -0.05290     -0.05657
     -0.06456     -0.01279     -0.01400
     -0.16671      0.41342      0.46524
      0.62238     -0.20285     -0.23158

 NEB: forces: par spring, perp REAL, dneb     0.003950    0.006907    0.000000
 NEB: distance to prev, next image, angle between     0.250979    0.251769  151.515276
 NEB: projections on to tangent (spring, REAL)     0.003950    1.780014

 stress matrix after NEB project (eV)
      1.51333      0.31441      0.33035
      0.31441     -1.09675     -0.08865
      0.33035     -0.08865     -1.12260
  FORCES: max atom, RMS     0.006388    0.003248
  FORCE total and by dimension    0.007957    0.006002
  Stress total and by dimension    2.277048    1.513326
 OPT: skip step - force has converged


--------------------------------------------------------------------------------------------------------


  
 reached required accuracy - stopping structural energy minimisation
     LOOP+:  cpu time  579.1680: real time  580.8077
    4ORBIT:  cpu time    0.0000: real time    0.0000

 total amount of memory used by VASP on root node  3203888. kBytes
========================================================================

   base      :      30000. kBytes
   nonlr-proj:        692. kBytes
   fftplans  :     924480. kBytes
   grid      :    1872000. kBytes
   one-center:         18. kBytes
   wavefun   :     376698. kBytes
 
  
  
 General timing and accounting informations for this job:
 ========================================================
  
                  Total CPU time used (sec):    49620.285
                            User time (sec):    48940.138
                          System time (sec):      680.149
                         Elapsed time (sec):    49851.768
  
                   Maximum memory used (kb):     4759972.
                   Average memory used (kb):           0.
  
                          Minor page faults:      7765235
                          Major page faults:            7
                 Voluntary context switches:         9175
