unknown system                          
           1
    30.000000    0.000000    0.000000
     0.000000   30.000000    0.000000
     0.000000    0.000000   30.000000
   H    C    N 
   3   2   1
Direct configuration=     1
   0.47153326  0.46343417  0.50470076
   0.47128942  0.50882252  0.46445938
   0.47544328  0.52011991  0.52288746
   0.48431405  0.49651193  0.49621695
   0.53259117  0.49827189  0.49784896
   0.56485128  0.51282837  0.51386649
Direct configuration=     2
   0.47153086  0.46343440  0.50469613
   0.47129271  0.50882538  0.46445742
   0.47544090  0.52011870  0.52288700
   0.48431385  0.49651250  0.49621589
   0.53259063  0.49827277  0.49785362
   0.56485351  0.51282506  0.51386994
Direct configuration=     3
   0.47152759  0.46343482  0.50468959
   0.47129724  0.50882921  0.46445482
   0.47543728  0.52011700  0.52288626
   0.48431346  0.49651327  0.49621436
   0.53259033  0.49827440  0.49786058
   0.56485656  0.51282011  0.51387438
Direct configuration=     4
   0.47152384  0.46343540  0.50468167
   0.47130257  0.50883360  0.46445183
   0.47543237  0.52011501  0.52288528
   0.48431323  0.49651425  0.49621258
   0.53258900  0.49827633  0.49786894
   0.56486145  0.51281422  0.51387969
Direct configuration=     5
   0.47152006  0.46343600  0.50467309
   0.47130797  0.50883791  0.46444871
   0.47542608  0.52011297  0.52288409
   0.48431300  0.49651541  0.49621085
   0.53258846  0.49827963  0.49787915
   0.56486689  0.51280689  0.51388412
Direct configuration=     6
   0.47151689  0.46343649  0.50466488
   0.47131278  0.50884149  0.46444582
   0.47541867  0.52011120  0.52288279
   0.48431313  0.49651679  0.49620958
   0.53258587  0.49828305  0.49788888
   0.56487512  0.51279978  0.51388804
Direct configuration=     7
   0.47151438  0.46343678  0.50465719
   0.47131675  0.50884401  0.46444320
   0.47540982  0.52010973  0.52288139
   0.48431242  0.49651836  0.49620880
   0.53258694  0.49828949  0.49790099
   0.56488216  0.51279043  0.51388843
Direct configuration=     8
   0.47151462  0.46343674  0.50465746
   0.47131658  0.50884378  0.46444329
   0.47540976  0.52010983  0.52288142
   0.48431258  0.49651839  0.49620892
   0.53258553  0.49828910  0.49790028
   0.56488338  0.51279096  0.51388863
Direct configuration=     9
   0.47151508  0.46343662  0.50465801
   0.47131614  0.50884322  0.46444346
   0.47540958  0.52011004  0.52288144
   0.48431269  0.49651844  0.49620915
   0.53258369  0.49828897  0.49789952
   0.56488528  0.51279153  0.51388843
Direct configuration=    10
   0.47151512  0.46343659  0.50465807
   0.47131605  0.50884313  0.46444347
   0.47540954  0.52011006  0.52288144
   0.48431263  0.49651843  0.49620917
   0.53258388  0.49828920  0.49789969
   0.56488525  0.51279140  0.51388817
Direct configuration=    11
   0.47151520  0.46343655  0.50465820
   0.47131587  0.50884295  0.46444349
   0.47540946  0.52011009  0.52288143
   0.48431251  0.49651842  0.49620921
   0.53258420  0.49828962  0.49789998
   0.56488522  0.51279118  0.51388769
Direct configuration=    12
   0.47151533  0.46343648  0.50465841
   0.47131560  0.50884267  0.46444354
   0.47540934  0.52011016  0.52288142
   0.48431236  0.49651840  0.49620927
   0.53258456  0.49829021  0.49790036
   0.56488526  0.51279090  0.51388701
Direct configuration=    13
   0.47151551  0.46343638  0.50465869
   0.47131524  0.50884229  0.46444360
   0.47540919  0.52011024  0.52288140
   0.48431219  0.49651838  0.49620937
   0.53258485  0.49829091  0.49790076
   0.56488548  0.51279060  0.51388617
Direct configuration=    14
   0.47151575  0.46343626  0.50465906
   0.47131479  0.50884183  0.46444368
   0.47540901  0.52011035  0.52288139
   0.48431202  0.49651836  0.49620949
   0.53258496  0.49829165  0.49790112
   0.56488594  0.51279035  0.51388525
Direct configuration=    15
   0.47151604  0.46343613  0.50465951
   0.47131426  0.50884129  0.46444378
   0.47540880  0.52011047  0.52288138
   0.48431187  0.49651835  0.49620965
   0.53258482  0.49829240  0.49790139
   0.56488667  0.51279017  0.51388428
Direct configuration=    16
   0.47151642  0.46343596  0.50466011
   0.47131359  0.50884059  0.46444392
   0.47540855  0.52011064  0.52288137
   0.48431173  0.49651833  0.49620987
   0.53258439  0.49829322  0.49790158
   0.56488778  0.51279007  0.51388315
Direct configuration=    17
   0.47151692  0.46343574  0.50466089
   0.47131273  0.50883971  0.46444410
   0.47540823  0.52011085  0.52288137
   0.48431159  0.49651832  0.49621016
   0.53258368  0.49829415  0.49790169
   0.56488930  0.51279003  0.51388178
Direct configuration=    18
   0.47151757  0.46343546  0.50466193
   0.47131162  0.50883857  0.46444436
   0.47540783  0.52011112  0.52288138
   0.48431144  0.49651831  0.49621055
   0.53258283  0.49829533  0.49790178
   0.56489116  0.51279001  0.51387999
Direct configuration=    19
   0.47151842  0.46343512  0.50466328
   0.47131021  0.50883713  0.46444471
   0.47540732  0.52011146  0.52288141
   0.48431121  0.49651828  0.49621107
   0.53258214  0.49829691  0.49790199
   0.56489316  0.51278991  0.51387754
Direct configuration=    20
   0.47151949  0.46343470  0.50466503
   0.47130842  0.50883531  0.46444519
   0.47540667  0.52011187  0.52288146
   0.48431089  0.49651825  0.49621173
   0.53258184  0.49829902  0.49790236
   0.56489515  0.51278965  0.51387423
Direct configuration=    21
   0.47152087  0.46343419  0.50466733
   0.47130616  0.50883302  0.46444585
   0.47540588  0.52011239  0.52288157
   0.48431049  0.49651818  0.49621258
   0.53258184  0.49830167  0.49790278
   0.56489723  0.51278935  0.51386989
Direct configuration=    22
   0.47152268  0.46343359  0.50467037
   0.47130332  0.50883012  0.46444679
   0.47540495  0.52011303  0.52288177
   0.48431008  0.49651808  0.49621371
   0.53258155  0.49830462  0.49790280
   0.56489988  0.51278936  0.51386457
Direct configuration=    23
   0.47152501  0.46343287  0.50467436
   0.47129979  0.50882652  0.46444810
   0.47540393  0.52011383  0.52288211
   0.48430976  0.49651793  0.49621517
   0.53258047  0.49830762  0.49790198
   0.56490350  0.51279003  0.51385827
Direct configuration=    24
   0.47152799  0.46343202  0.50467959
   0.47129538  0.50882201  0.46444993
   0.47540283  0.52011478  0.52288265
   0.48430942  0.49651767  0.49621706
   0.53257910  0.49831094  0.49790034
   0.56490774  0.51279138  0.51385042
Direct configuration=    25
   0.47153170  0.46343098  0.50468629
   0.47128989  0.50881641  0.46445238
   0.47540167  0.52011588  0.52288346
   0.48430885  0.49651724  0.49621946
   0.53257870  0.49831516  0.49789829
   0.56491165  0.51279313  0.51384011
Direct configuration=    26
   0.47153626  0.46342967  0.50469484
   0.47128308  0.50880953  0.46445562
   0.47540058  0.52011712  0.52288464
   0.48430812  0.49651656  0.49622251
   0.53257874  0.49832010  0.49789530
   0.56491567  0.51279583  0.51382708
Direct configuration=    27
   0.47154155  0.46342810  0.50470508
   0.47127525  0.50880165  0.46445959
   0.47539976  0.52011843  0.52288627
   0.48430768  0.49651570  0.49622621
   0.53257705  0.49832438  0.49789022
   0.56492116  0.51280056  0.51381264
Direct configuration=    28
   0.47154700  0.46342634  0.50471620
   0.47126697  0.50879338  0.46446399
   0.47539925  0.52011961  0.52288831
   0.48430698  0.49651458  0.49623023
   0.53257801  0.49832942  0.49788553
   0.56492424  0.51280548  0.51379574
Direct configuration=    29
   0.47154695  0.46342635  0.50471613
   0.47126708  0.50879348  0.46446397
   0.47539934  0.52011957  0.52288834
   0.48430707  0.49651457  0.49623020
   0.53257750  0.49832908  0.49788528
   0.56492451  0.51280576  0.51379608
Direct configuration=    30
   0.47154681  0.46342635  0.50471596
   0.47126729  0.50879368  0.46446393
   0.47539949  0.52011949  0.52288838
   0.48430721  0.49651453  0.49623015
   0.53257677  0.49832859  0.49788497
   0.56492488  0.51280617  0.51379661
Direct configuration=    31
   0.47154679  0.46342635  0.50471593
   0.47126731  0.50879369  0.46446392
   0.47539949  0.52011948  0.52288838
   0.48430721  0.49651452  0.49623014
   0.53257681  0.49832861  0.49788502
   0.56492485  0.51280616  0.51379660
Direct configuration=    32
   0.47154674  0.46342635  0.50471587
   0.47126735  0.50879373  0.46446390
   0.47539949  0.52011945  0.52288839
   0.48430719  0.49651451  0.49623012
   0.53257688  0.49832865  0.49788513
   0.56492481  0.51280612  0.51379659
Direct configuration=    33
   0.47154666  0.46342633  0.50471577
   0.47126740  0.50879378  0.46446386
   0.47539948  0.52011940  0.52288838
   0.48430716  0.49651449  0.49623010
   0.53257695  0.49832874  0.49788532
   0.56492481  0.51280606  0.51379656
Direct configuration=    34
   0.47154654  0.46342632  0.50471563
   0.47126746  0.50879384  0.46446381
   0.47539944  0.52011933  0.52288837
   0.48430713  0.49651446  0.49623006
   0.53257701  0.49832888  0.49788560
   0.56492488  0.51280598  0.51379652
Direct configuration=    35
   0.47154640  0.46342629  0.50471544
   0.47126753  0.50879390  0.46446374
   0.47539936  0.52011925  0.52288836
   0.48430708  0.49651443  0.49623001
   0.53257702  0.49832908  0.49788598
   0.56492507  0.51280586  0.51379647
Direct configuration=    36
   0.47154621  0.46342624  0.50471521
   0.47126759  0.50879397  0.46446365
   0.47539924  0.52011914  0.52288833
   0.48430703  0.49651439  0.49622995
   0.53257696  0.49832937  0.49788647
   0.56492543  0.51280570  0.51379638
Direct configuration=    37
   0.47154596  0.46342618  0.50471491
   0.47126763  0.50879402  0.46446353
   0.47539905  0.52011899  0.52288829
   0.48430694  0.49651435  0.49622988
   0.53257680  0.49832981  0.49788716
   0.56492607  0.51280546  0.51379623
Direct configuration=    38
   0.47154563  0.46342608  0.50471453
   0.47126764  0.50879406  0.46446338
   0.47539876  0.52011880  0.52288823
   0.48430683  0.49651429  0.49622980
   0.53257652  0.49833046  0.49788810
   0.56492706  0.51280512  0.51379596
Direct configuration=    39
   0.47154524  0.46342595  0.50471411
   0.47126754  0.50879405  0.46446322
   0.47539839  0.52011856  0.52288817
   0.48430668  0.49651422  0.49622973
   0.53257611  0.49833140  0.49788930
   0.56492849  0.51280464  0.51379547
Direct configuration=    40
   0.47154479  0.46342577  0.50471375
   0.47126723  0.50879392  0.46446309
   0.47539795  0.52011828  0.52288812
   0.48430646  0.49651413  0.49622970
   0.53257558  0.49833273  0.49789077
   0.56493045  0.51280398  0.51379456
Direct configuration=    41
   0.47154436  0.46342553  0.50471364
   0.47126649  0.50879357  0.46446310
   0.47539748  0.52011800  0.52288813
   0.48430616  0.49651403  0.49622978
   0.53257499  0.49833462  0.49789242
   0.56493298  0.51280307  0.51379292
Direct configuration=    42
   0.47154406  0.46342521  0.50471404
   0.47126504  0.50879283  0.46446338
   0.47539705  0.52011776  0.52288828
   0.48430573  0.49651392  0.49623008
   0.53257437  0.49833718  0.49789410
   0.56493621  0.51280191  0.51379012
Direct configuration=    43
   0.47154394  0.46342482  0.50471509
   0.47126276  0.50879162  0.46446401
   0.47539663  0.52011759  0.52288860
   0.48430518  0.49651382  0.49623065
   0.53257373  0.49834053  0.49789576
   0.56494021  0.51280043  0.51378589
Direct configuration=    44
   0.47154410  0.46342436  0.50471693
   0.47125951  0.50878985  0.46446506
   0.47539616  0.52011754  0.52288915
   0.48430455  0.49651377  0.49623159
   0.53257298  0.49834466  0.49789727
   0.56494516  0.51279865  0.51377999
Direct configuration=    45
   0.47154465  0.46342384  0.50471971
   0.47125520  0.50878742  0.46446666
   0.47539552  0.52011766  0.52289003
   0.48430389  0.49651381  0.49623297
   0.53257191  0.49834947  0.49789840
   0.56495129  0.51279660  0.51377222
Direct configuration=    46
   0.47154576  0.46342333  0.50472357
   0.47124979  0.50878427  0.46446890
   0.47539452  0.52011806  0.52289133
   0.48430323  0.49651399  0.49623489
   0.53257043  0.49835482  0.49789896
   0.56495873  0.51279434  0.51376235
Direct configuration=    47
   0.47154763  0.46342290  0.50472857
   0.47124335  0.50878033  0.46447188
   0.47539283  0.52011881  0.52289315
   0.48430253  0.49651439  0.49623744
   0.53256895  0.49836062  0.49789894
   0.56496716  0.51279175  0.51375002
Direct configuration=    48
   0.47155047  0.46342268  0.50473466
   0.47123621  0.50877567  0.46447562
   0.47539004  0.52012001  0.52289556
   0.48430168  0.49651511  0.49624074
   0.53256794  0.49836659  0.49789838
   0.56497611  0.51278875  0.51373503
Direct configuration=    49
   0.47155447  0.46342276  0.50474160
   0.47122916  0.50877057  0.46447996
   0.47538571  0.52012166  0.52289848
   0.48430078  0.49651633  0.49624500
   0.53256632  0.49837144  0.49789664
   0.56498602  0.51278604  0.51371832
Direct configuration=    50
   0.47155452  0.46342277  0.50474159
   0.47122927  0.50877060  0.46447995
   0.47538559  0.52012168  0.52289848
   0.48430076  0.49651636  0.49624504
   0.53256643  0.49837137  0.49789668
   0.56498590  0.51278603  0.51371826
Direct configuration=    51
   0.47155458  0.46342278  0.50474154
   0.47122948  0.50877064  0.46447991
   0.47538532  0.52012169  0.52289848
   0.48430071  0.49651642  0.49624513
   0.53256656  0.49837129  0.49789683
   0.56498582  0.51278598  0.51371812
Direct configuration=    52
   0.47155463  0.46342277  0.50474141
   0.47122978  0.50877068  0.46447982
   0.47538485  0.52012168  0.52289845
   0.48430063  0.49651649  0.49624523
   0.53256660  0.49837128  0.49789718
   0.56498598  0.51278589  0.51371791
Direct configuration=    53
   0.47155462  0.46342272  0.50474119
   0.47123014  0.50877070  0.46447967
   0.47538417  0.52012164  0.52289838
   0.48430051  0.49651656  0.49624534
   0.53256647  0.49837145  0.49789783
   0.56498656  0.51278574  0.51371759
Direct configuration=    54
   0.47155453  0.46342262  0.50474086
   0.47123053  0.50877067  0.46447944
   0.47538323  0.52012156  0.52289825
   0.48430034  0.49651661  0.49624544
   0.53256614  0.49837190  0.49789890
   0.56498769  0.51278546  0.51371711
Direct configuration=    55
   0.47155436  0.46342247  0.50474041
   0.47123094  0.50877058  0.46447914
   0.47538204  0.52012143  0.52289809
   0.48430014  0.49651665  0.49624553
   0.53256570  0.49837265  0.49790038
   0.56498928  0.51278503  0.51371645
Direct configuration=    56
   0.47155408  0.46342224  0.50473979
   0.47123142  0.50877043  0.46447874
   0.47538044  0.52012124  0.52289785
   0.48429986  0.49651667  0.49624562
   0.53256520  0.49837389  0.49790254
   0.56499145  0.51278433  0.51371545
Direct configuration=    57
   0.47155369  0.46342194  0.50473898
   0.47123198  0.50877019  0.46447822
   0.47537833  0.52012099  0.52289755
   0.48429953  0.49651670  0.49624574
   0.53256474  0.49837572  0.49790550
   0.56499420  0.51278328  0.51371401
Direct configuration=    58
   0.47155319  0.46342154  0.50473797
   0.47123263  0.50876983  0.46447759
   0.47537558  0.52012067  0.52289718
   0.48429917  0.49651675  0.49624591
   0.53256426  0.49837821  0.49790929
   0.56499762  0.51278180  0.51371205
Direct configuration=    59
   0.47155265  0.46342107  0.50473677
   0.47123341  0.50876930  0.46447689
   0.47537209  0.52012028  0.52289675
   0.48429889  0.49651686  0.49624622
   0.53256347  0.49838133  0.49791375
   0.56500195  0.51277997  0.51370962
Direct configuration=    60
   0.47155218  0.46342057  0.50473547
   0.47123434  0.50876854  0.46447620
   0.47536772  0.52011985  0.52289632
   0.48429873  0.49651710  0.49624677
   0.53256209  0.49838491  0.49791851
   0.56500740  0.51277784  0.51370673
Direct configuration=    61
   0.47155203  0.46342015  0.50473426
   0.47123532  0.50876743  0.46447573
   0.47536238  0.52011947  0.52289599
   0.48429850  0.49651755  0.49624767
   0.53256095  0.49838910  0.49792343
   0.56501328  0.51277513  0.51370292
Direct configuration=    62
   0.47155254  0.46341988  0.50473356
   0.47123611  0.50876584  0.46447573
   0.47535640  0.52011924  0.52289593
   0.48429797  0.49651843  0.49624909
   0.53256015  0.49839338  0.49792759
   0.56501928  0.51277204  0.51369810
Direct configuration=    63
   0.47155262  0.46341990  0.50473366
   0.47123604  0.50876580  0.46447579
   0.47535641  0.52011928  0.52289598
   0.48429800  0.49651846  0.49624916
   0.53256008  0.49839331  0.49792739
   0.56501932  0.51277207  0.51369803
Direct configuration=    64
   0.47155278  0.46341993  0.50473391
   0.47123582  0.50876567  0.46447592
   0.47535642  0.52011936  0.52289608
   0.48429802  0.49651849  0.49624930
   0.53255993  0.49839324  0.49792703
   0.56501950  0.51277211  0.51369776
Direct configuration=    65
   0.47155301  0.46341996  0.50473436
   0.47123537  0.50876540  0.46447614
   0.47535646  0.52011950  0.52289623
   0.48429800  0.49651853  0.49624954
   0.53255974  0.49839332  0.49792659
   0.56501989  0.51277210  0.51369713
Direct configuration=    66
   0.47155331  0.46341996  0.50473509
   0.47123459  0.50876493  0.46447650
   0.47535651  0.52011968  0.52289645
   0.48429791  0.49651857  0.49624987
   0.53255952  0.49839368  0.49792616
   0.56502062  0.51277199  0.51369594
Direct configuration=    67
   0.47155366  0.46341992  0.50473615
   0.47123337  0.50876419  0.46447700
   0.47535657  0.52011992  0.52289672
   0.48429772  0.49651857  0.49625031
   0.53255927  0.49839447  0.49792584
   0.56502187  0.51277173  0.51369398
Direct configuration=    68
   0.47155407  0.46341984  0.50473753
   0.47123174  0.50876320  0.46447765
   0.47535663  0.52012020  0.52289705
   0.48429742  0.49651857  0.49625086
   0.53255903  0.49839568  0.49792564
   0.56502357  0.51277132  0.51369125
Direct configuration=    69
   0.47155459  0.46341970  0.50473941
   0.47122948  0.50876181  0.46447854
   0.47535666  0.52012057  0.52289749
   0.48429700  0.49651855  0.49625159
   0.53255879  0.49839750  0.49792558
   0.56502594  0.51277067  0.51368737
Direct configuration=    70
   0.47155524  0.46341948  0.50474190
   0.47122650  0.50875996  0.46447972
   0.47535664  0.52012105  0.52289806
   0.48429646  0.49651855  0.49625255
   0.53255845  0.49839998  0.49792564
   0.56502916  0.51276978  0.51368214
Direct configuration=    71
   0.47155607  0.46341920  0.50474509
   0.47122270  0.50875757  0.46448123
   0.47535650  0.52012167  0.52289878
   0.48429587  0.49651857  0.49625379
   0.53255782  0.49840312  0.49792574
   0.56503350  0.51276868  0.51367538
Direct configuration=    72
   0.47155714  0.46341885  0.50474905
   0.47121805  0.50875459  0.46448312
   0.47535611  0.52012244  0.52289971
   0.48429528  0.49651866  0.49625539
   0.53255674  0.49840688  0.49792579
   0.56503914  0.51276738  0.51366694
Direct configuration=    73
   0.47155854  0.46341851  0.50475380
   0.47121263  0.50875101  0.46448543
   0.47535525  0.52012342  0.52290087
   0.48429461  0.49651874  0.49625751
   0.53255549  0.49841134  0.49792586
   0.56504594  0.51276579  0.51365653
Direct configuration=    74
   0.47155854  0.46341851  0.50475380
   0.47121263  0.50875101  0.46448543
   0.47535525  0.52012342  0.52290087
   0.48429461  0.49651874  0.49625751
   0.53255549  0.49841134  0.49792586
   0.56504594  0.51276579  0.51365653
