  22  22   0   0
  0.1227273E+04  0.3000000E-08  0.3000000E-08  0.3000000E-08  0.0000000E+00
  1.000000000000000E-004
  CAR 
 unknown system                          
      2.19793393    -28.13460203  301     -4.47482903      1.00000000
    -28.135  0.0000E+00  0.0000E+00
    -28.033  0.0000E+00  0.0000E+00
    -27.932  0.0000E+00  0.0000E+00
    -27.831  0.0000E+00  0.0000E+00
    -27.730  0.0000E+00  0.0000E+00
    -27.629  0.0000E+00  0.0000E+00
    -27.528  0.0000E+00  0.0000E+00
    -27.427  0.0000E+00  0.0000E+00
    -27.326  0.0000E+00  0.0000E+00
    -27.225  0.4209E-15  0.4256E-16
    -27.124  0.8848E-13  0.8988E-14
    -27.022  0.1124E-10  0.1145E-11
    -26.921  0.8639E-09  0.8849E-10
    -26.820  0.4027E-07  0.4160E-08
    -26.719  0.1140E-05  0.1194E-06
    -26.618  0.1962E-04  0.2103E-05
    -26.517  0.2057E-03  0.2290E-04
    -26.416  0.1316E-02  0.1560E-03
    -26.315  0.5148E-02  0.6766E-03
    -26.214  0.1232E-01  0.1922E-02
    -26.112  0.1807E-01  0.3750E-02
    -26.011  0.1634E-01  0.5402E-02
    -25.910  0.9780E-02  0.6390E-02
    -25.809  0.6797E-02  0.7078E-02
    -25.708  0.1092E-01  0.8182E-02
    -25.607  0.1722E-01  0.9923E-02
    -25.506  0.1749E-01  0.1169E-01
    -25.405  0.1093E-01  0.1280E-01
    -25.304  0.4181E-02  0.1322E-01
    -25.202  0.9790E-03  0.1332E-01
    -25.101  0.1401E-03  0.1333E-01
    -25.000  0.1222E-04  0.1333E-01
    -24.899  0.6497E-06  0.1333E-01
    -24.798  0.2100E-07  0.1333E-01
    -24.697  0.4119E-09  0.1333E-01
    -24.596  0.4897E-11  0.1333E-01
    -24.495  0.3540E-13  0.1333E-01
    -24.394  0.3568E-13  0.1333E-01
    -24.292  0.4932E-11  0.1333E-01
    -24.191  0.4145E-09  0.1333E-01
    -24.090  0.2112E-07  0.1333E-01
    -23.989  0.6529E-06  0.1333E-01
    -23.888  0.1227E-04  0.1333E-01
    -23.787  0.1405E-03  0.1335E-01
    -23.686  0.9816E-03  0.1345E-01
    -23.585  0.4189E-02  0.1387E-01
    -23.484  0.1094E-01  0.1498E-01
    -23.383  0.1749E-01  0.1675E-01
    -23.281  0.1714E-01  0.1848E-01
    -23.180  0.1037E-01  0.1953E-01
    -23.079  0.4426E-02  0.1998E-01
    -22.978  0.3942E-02  0.2037E-01
    -22.877  0.9200E-02  0.2130E-01
    -22.776  0.1635E-01  0.2296E-01
    -22.675  0.1801E-01  0.2478E-01
    -22.574  0.1216E-01  0.2601E-01
    -22.473  0.5030E-02  0.2652E-01
    -22.371  0.1273E-02  0.2664E-01
    -22.270  0.1969E-03  0.2666E-01
    -22.169  0.1859E-04  0.2667E-01
    -22.068  0.1069E-05  0.2667E-01
    -21.967  0.3737E-07  0.2667E-01
    -21.866  0.7935E-09  0.2667E-01
    -21.765  0.1021E-10  0.2667E-01
    -21.664  0.7959E-13  0.2667E-01
    -21.563  0.3807E-15  0.2667E-01
    -21.461  0.0000E+00  0.2667E-01
    -21.360  0.0000E+00  0.2667E-01
    -21.259  0.0000E+00  0.2667E-01
    -21.158  0.0000E+00  0.2667E-01
    -21.057  0.0000E+00  0.2667E-01
    -20.956  0.0000E+00  0.2667E-01
    -20.855  0.0000E+00  0.2667E-01
    -20.754  0.0000E+00  0.2667E-01
    -20.653  0.3331E-15  0.2667E-01
    -20.551  0.7156E-13  0.2667E-01
    -20.450  0.9279E-11  0.2667E-01
    -20.349  0.7284E-09  0.2667E-01
    -20.248  0.3467E-07  0.2667E-01
    -20.147  0.1002E-05  0.2667E-01
    -20.046  0.1760E-04  0.2667E-01
    -19.945  0.1884E-03  0.2669E-01
    -19.844  0.1231E-02  0.2681E-01
    -19.743  0.4913E-02  0.2731E-01
    -19.641  0.1200E-01  0.2852E-01
    -19.540  0.1795E-01  0.3034E-01
    -19.439  0.1645E-01  0.3200E-01
    -19.338  0.9241E-02  0.3294E-01
    -19.237  0.3178E-02  0.3326E-01
    -19.136  0.6685E-03  0.3332E-01
    -19.035  0.8588E-04  0.3333E-01
    -18.934  0.6738E-05  0.3333E-01
    -18.833  0.6406E-06  0.3333E-01
    -18.732  0.6715E-05  0.3333E-01
    -18.630  0.8564E-04  0.3334E-01
    -18.529  0.6670E-03  0.3341E-01
    -18.428  0.3173E-02  0.3373E-01
    -18.327  0.9232E-02  0.3466E-01
    -18.226  0.1645E-01  0.3633E-01
    -18.125  0.1796E-01  0.3814E-01
    -18.024  0.1205E-01  0.3936E-01
    -17.923  0.5279E-02  0.3989E-01
    -17.822  0.3242E-02  0.4022E-01
    -17.720  0.7054E-02  0.4094E-01
    -17.619  0.1438E-01  0.4239E-01
    -17.518  0.1841E-01  0.4425E-01
    -17.417  0.1446E-01  0.4571E-01
    -17.316  0.6958E-02  0.4642E-01
    -17.215  0.2049E-02  0.4662E-01
    -17.114  0.3691E-03  0.4666E-01
    -17.013  0.4057E-04  0.4667E-01
    -16.912  0.2719E-05  0.4667E-01
    -16.810  0.1108E-06  0.4667E-01
    -16.709  0.2746E-08  0.4667E-01
    -16.608  0.1247E-09  0.4667E-01
    -16.507  0.5127E-08  0.4667E-01
    -16.406  0.1911E-06  0.4667E-01
    -16.305  0.4329E-05  0.4667E-01
    -16.204  0.5969E-04  0.4667E-01
    -16.103  0.5017E-03  0.4672E-01
    -16.002  0.2575E-02  0.4698E-01
    -15.900  0.8083E-02  0.4780E-01
    -15.799  0.1553E-01  0.4937E-01
    -15.698  0.1829E-01  0.5122E-01
    -15.597  0.1319E-01  0.5256E-01
    -15.496  0.5831E-02  0.5314E-01
    -15.395  0.1596E-02  0.5331E-01
    -15.294  0.4598E-03  0.5335E-01
    -15.193  0.1310E-02  0.5349E-01
    -15.092  0.5061E-02  0.5400E-01
    -14.991  0.1220E-01  0.5523E-01
    -14.889  0.1802E-01  0.5705E-01
    -14.788  0.1631E-01  0.5870E-01
    -14.687  0.9044E-02  0.5962E-01
    -14.586  0.3084E-02  0.5993E-01
    -14.485  0.7896E-03  0.6001E-01
    -14.384  0.1124E-02  0.6012E-01
    -14.283  0.4380E-02  0.6056E-01
    -14.182  0.1122E-01  0.6170E-01
    -14.081  0.1763E-01  0.6348E-01
    -13.979  0.1697E-01  0.6520E-01
    -13.878  0.1001E-01  0.6621E-01
    -13.777  0.3615E-02  0.6657E-01
    -13.676  0.8022E-03  0.6666E-01
    -13.575  0.1599E-03  0.6667E-01
    -13.474  0.4596E-03  0.6672E-01
    -13.373  0.2379E-02  0.6696E-01
    -13.272  0.7677E-02  0.6773E-01
    -13.171  0.1517E-01  0.6927E-01
    -13.069  0.1836E-01  0.7112E-01
    -12.968  0.1362E-01  0.7250E-01
    -12.867  0.6186E-02  0.7313E-01
    -12.766  0.1725E-02  0.7330E-01
    -12.665  0.3563E-03  0.7334E-01
    -12.564  0.5614E-03  0.7339E-01
    -12.463  0.2710E-02  0.7367E-01
    -12.362  0.8577E-02  0.7454E-01
    -12.261  0.1740E-01  0.7629E-01
    -12.159  0.2436E-01  0.7876E-01
    -12.058  0.2651E-01  0.8144E-01
    -11.957  0.2400E-01  0.8387E-01
    -11.856  0.1676E-01  0.8556E-01
    -11.755  0.8116E-02  0.8638E-01
    -11.654  0.3288E-02  0.8671E-01
    -11.553  0.4273E-02  0.8714E-01
    -11.452  0.1071E-01  0.8823E-01
    -11.351  0.1930E-01  0.9018E-01
    -11.249  0.2474E-01  0.9268E-01
    -11.148  0.2581E-01  0.9529E-01
    -11.047  0.2339E-01  0.9765E-01
    -10.946  0.1862E-01  0.9954E-01
    -10.845  0.1664E-01  0.1012E+00
    -10.744  0.1881E-01  0.1031E+00
    -10.643  0.1811E-01  0.1050E+00
    -10.542  0.1213E-01  0.1062E+00
    -10.441  0.8329E-02  0.1070E+00
    -10.340  0.1362E-01  0.1084E+00
    -10.238  0.2654E-01  0.1111E+00
    -10.137  0.3746E-01  0.1149E+00
    -10.036  0.3889E-01  0.1188E+00
     -9.935  0.3333E-01  0.1222E+00
     -9.834  0.2563E-01  0.1248E+00
     -9.733  0.1955E-01  0.1267E+00
     -9.632  0.2035E-01  0.1288E+00
     -9.531  0.2729E-01  0.1316E+00
     -9.430  0.3286E-01  0.1349E+00
     -9.328  0.3395E-01  0.1383E+00
     -9.227  0.3536E-01  0.1419E+00
     -9.126  0.3965E-01  0.1459E+00
     -9.025  0.4076E-01  0.1500E+00
     -8.924  0.3591E-01  0.1536E+00
     -8.823  0.3045E-01  0.1567E+00
     -8.722  0.2718E-01  0.1595E+00
     -8.621  0.2526E-01  0.1620E+00
     -8.520  0.2206E-01  0.1643E+00
     -8.418  0.1486E-01  0.1658E+00
     -8.317  0.6692E-02  0.1664E+00
     -8.216  0.1896E-02  0.1666E+00
     -8.115  0.3310E-03  0.1667E+00
     -8.014  0.3536E-04  0.1667E+00
     -7.913  0.2304E-05  0.1667E+00
     -7.812  0.9137E-07  0.1667E+00
     -7.711  0.2202E-08  0.1667E+00
     -7.610  0.1515E-09  0.1667E+00
     -7.508  0.7038E-08  0.1667E+00
     -7.407  0.2518E-06  0.1667E+00
     -7.306  0.5475E-05  0.1667E+00
     -7.205  0.7246E-04  0.1667E+00
     -7.104  0.5848E-03  0.1667E+00
     -7.003  0.2883E-02  0.1670E+00
     -6.902  0.8689E-02  0.1679E+00
     -6.801  0.1604E-01  0.1695E+00
     -6.700  0.1814E-01  0.1714E+00
     -6.599  0.1262E-01  0.1726E+00
     -6.497  0.5806E-02  0.1732E+00
     -6.396  0.3866E-02  0.1736E+00
     -6.295  0.8286E-02  0.1745E+00
     -6.194  0.1673E-01  0.1761E+00
     -6.093  0.2367E-01  0.1785E+00
     -5.992  0.2601E-01  0.1812E+00
     -5.891  0.2429E-01  0.1836E+00
     -5.790  0.1857E-01  0.1855E+00
     -5.689  0.1282E-01  0.1868E+00
     -5.587  0.1332E-01  0.1881E+00
     -5.486  0.1779E-01  0.1899E+00
     -5.385  0.1750E-01  0.1917E+00
     -5.284  0.1083E-01  0.1928E+00
     -5.183  0.4114E-02  0.1932E+00
     -5.082  0.9568E-03  0.1933E+00
     -4.981  0.1360E-03  0.1933E+00
     -4.880  0.1179E-04  0.1933E+00
     -4.779  0.6223E-06  0.1933E+00
     -4.677  0.1997E-07  0.1933E+00
     -4.576  0.3892E-09  0.1933E+00
     -4.475  0.4596E-11  0.1933E+00
     -4.374  0.3285E-13  0.1933E+00
     -4.273  0.1464E-15  0.1933E+00
     -4.172  0.0000E+00  0.1933E+00
     -4.071  0.0000E+00  0.1933E+00
     -3.970  0.0000E+00  0.1933E+00
     -3.869  0.0000E+00  0.1933E+00
     -3.767  0.0000E+00  0.1933E+00
     -3.666  0.0000E+00  0.1933E+00
     -3.565  0.0000E+00  0.1933E+00
     -3.464  0.0000E+00  0.1933E+00
     -3.363  0.0000E+00  0.1933E+00
     -3.262  0.0000E+00  0.1933E+00
     -3.161  0.0000E+00  0.1933E+00
     -3.060  0.0000E+00  0.1933E+00
     -2.959  0.0000E+00  0.1933E+00
     -2.857  0.0000E+00  0.1933E+00
     -2.756  0.0000E+00  0.1933E+00
     -2.655  0.0000E+00  0.1933E+00
     -2.554  0.0000E+00  0.1933E+00
     -2.453  0.0000E+00  0.1933E+00
     -2.352  0.0000E+00  0.1933E+00
     -2.251  0.3660E-17  0.1933E+00
     -2.150  0.6835E-15  0.1933E+00
     -2.049  0.1376E-12  0.1933E+00
     -1.948  0.1673E-10  0.1933E+00
     -1.846  0.1231E-08  0.1933E+00
     -1.745  0.5497E-07  0.1933E+00
     -1.644  0.1491E-05  0.1933E+00
     -1.543  0.2461E-04  0.1933E+00
     -1.442  0.2482E-03  0.1934E+00
     -1.341  0.1538E-02  0.1935E+00
     -1.240  0.5929E-02  0.1941E+00
     -1.139  0.1459E-01  0.1956E+00
     -1.038  0.2413E-01  0.1980E+00
     -0.936  0.2902E-01  0.2010E+00
     -0.835  0.2710E-01  0.2037E+00
     -0.734  0.2087E-01  0.2058E+00
     -0.633  0.1758E-01  0.2076E+00
     -0.532  0.2252E-01  0.2099E+00
     -0.431  0.3218E-01  0.2131E+00
     -0.330  0.4112E-01  0.2173E+00
     -0.229  0.4862E-01  0.2222E+00
     -0.128  0.5803E-01  0.2281E+00
     -0.026  0.7615E-01  0.2358E+00
      0.075  0.1020E+00  0.2461E+00
      0.176  0.1132E+00  0.2575E+00
      0.277  0.8952E-01  0.2666E+00
      0.378  0.4703E-01  0.2713E+00
      0.479  0.1593E-01  0.2729E+00
      0.580  0.3424E-02  0.2733E+00
      0.681  0.4631E-03  0.2733E+00
      0.782  0.3910E-04  0.2733E+00
      0.884  0.2049E-05  0.2733E+00
      0.985  0.6632E-07  0.2733E+00
      1.086  0.1319E-08  0.2733E+00
      1.187  0.1607E-10  0.2733E+00
      1.288  0.1195E-12  0.2733E+00
      1.389  0.5399E-15  0.2733E+00
      1.490  0.0000E+00  0.2733E+00
      1.591  0.0000E+00  0.2733E+00
      1.692  0.0000E+00  0.2733E+00
      1.794  0.0000E+00  0.2733E+00
      1.895  0.0000E+00  0.2733E+00
      1.996  0.0000E+00  0.2733E+00
      2.097  0.0000E+00  0.2733E+00
      2.198  0.0000E+00  0.2733E+00
