   22   22  300    1
  0.1227273E+04  0.3000000E-08  0.3000000E-08  0.3000000E-08  0.0000000E+00
  1.000000000000000E-004
  CAR 
 unknown system                          
     58      4     41
 
  0.2500000E+00  0.2500000E+00  0.2500000E+00  0.2500000E+00
    1      -26.134602   1.000000
    2      -25.602825   1.000000
    3      -23.386725   1.000000
    4      -22.755785   1.000000
    5      -19.558348   1.000000
    6      -18.207887   1.000000
    7      -17.568074   1.000000
    8      -15.765668   1.000000
    9      -14.909997   1.000000
   10      -14.088387   1.000000
   11      -13.131137   1.000000
   12      -12.229756   1.000000
   13      -11.995579   1.000000
   14      -11.346054   1.000000
   15      -11.102537   1.000000
   16      -10.734605   1.000000
   17      -10.220889   1.000000
   18      -10.119794   1.000000
   19       -9.913412   1.000000
   20       -9.557532   1.000000
   21       -9.388445   1.000000
   22       -9.149973   1.000000
   23       -9.064764   1.000000
   24       -8.831043   1.000000
   25       -8.575065   1.000000
   26       -6.775326   1.000000
   27       -6.157042   1.000000
   28       -5.916092   1.000000
   29       -5.483620   1.000000
   30       -1.068510   0.000000
   31       -0.869831   0.000000
   32       -0.498810   0.000000
   33       -0.324877   0.000000
   34       -0.201020   0.000000
   35       -0.072031   0.000000
   36        0.040333   0.000000
   37        0.121574   0.000000
   38        0.129989   0.000000
   39        0.134868   0.000000
   40        0.178673   0.000000
   41        0.195242   0.000000
 
 -0.2500000E+00  0.2500000E+00  0.2500000E+00  0.2500000E+00
    1      -26.134602   1.000000
    2      -25.602824   1.000000
    3      -23.386725   1.000000
    4      -22.755783   1.000000
    5      -19.558347   1.000000
    6      -18.207888   1.000000
    7      -17.568072   1.000000
    8      -15.765668   1.000000
    9      -14.909998   1.000000
   10      -14.088398   1.000000
   11      -13.131128   1.000000
   12      -12.229751   1.000000
   13      -11.995578   1.000000
   14      -11.346046   1.000000
   15      -11.102531   1.000000
   16      -10.734596   1.000000
   17      -10.220891   1.000000
   18      -10.119800   1.000000
   19       -9.913413   1.000000
   20       -9.557545   1.000000
   21       -9.388445   1.000000
   22       -9.149964   1.000000
   23       -9.064767   1.000000
   24       -8.831042   1.000000
   25       -8.575054   1.000000
   26       -6.775342   1.000000
   27       -6.157053   1.000000
   28       -5.916081   1.000000
   29       -5.483604   1.000000
   30       -1.068495   0.000000
   31       -0.869835   0.000000
   32       -0.498802   0.000000
   33       -0.324870   0.000000
   34       -0.201031   0.000000
   35       -0.072682   0.000000
   36        0.046875   0.000000
   37        0.111500   0.000000
   38        0.121795   0.000000
   39        0.142045   0.000000
   40        0.180026   0.000000
   41        0.191085   0.000000
 
  0.2500000E+00 -0.2500000E+00  0.2500000E+00  0.2500000E+00
    1      -26.134600   1.000000
    2      -25.602827   1.000000
    3      -23.386724   1.000000
    4      -22.755785   1.000000
    5      -19.558350   1.000000
    6      -18.207886   1.000000
    7      -17.568073   1.000000
    8      -15.765669   1.000000
    9      -14.909999   1.000000
   10      -14.088394   1.000000
   11      -13.131131   1.000000
   12      -12.229751   1.000000
   13      -11.995575   1.000000
   14      -11.346048   1.000000
   15      -11.102525   1.000000
   16      -10.734597   1.000000
   17      -10.220896   1.000000
   18      -10.119790   1.000000
   19       -9.913413   1.000000
   20       -9.557530   1.000000
   21       -9.388438   1.000000
   22       -9.149967   1.000000
   23       -9.064766   1.000000
   24       -8.831044   1.000000
   25       -8.575069   1.000000
   26       -6.775349   1.000000
   27       -6.157039   1.000000
   28       -5.916094   1.000000
   29       -5.483615   1.000000
   30       -1.068504   0.000000
   31       -0.869829   0.000000
   32       -0.498802   0.000000
   33       -0.324868   0.000000
   34       -0.201133   0.000000
   35       -0.071900   0.000000
   36        0.045212   0.000000
   37        0.106966   0.000000
   38        0.131161   0.000000
   39        0.137415   0.000000
   40        0.175595   0.000000
   41        0.196901   0.000000
 
 -0.2500000E+00 -0.2500000E+00  0.2500000E+00  0.2500000E+00
    1      -26.134600   1.000000
    2      -25.602829   1.000000
    3      -23.386722   1.000000
    4      -22.755781   1.000000
    5      -19.558346   1.000000
    6      -18.207888   1.000000
    7      -17.568076   1.000000
    8      -15.765670   1.000000
    9      -14.909998   1.000000
   10      -14.088394   1.000000
   11      -13.131132   1.000000
   12      -12.229754   1.000000
   13      -11.995579   1.000000
   14      -11.346048   1.000000
   15      -11.102525   1.000000
   16      -10.734598   1.000000
   17      -10.220891   1.000000
   18      -10.119785   1.000000
   19       -9.913408   1.000000
   20       -9.557538   1.000000
   21       -9.388440   1.000000
   22       -9.149968   1.000000
   23       -9.064769   1.000000
   24       -8.831049   1.000000
   25       -8.575067   1.000000
   26       -6.775351   1.000000
   27       -6.157042   1.000000
   28       -5.916074   1.000000
   29       -5.483617   1.000000
   30       -1.068515   0.000000
   31       -0.869830   0.000000
   32       -0.498804   0.000000
   33       -0.324875   0.000000
   34       -0.201052   0.000000
   35       -0.072370   0.000000
   36        0.046143   0.000000
   37        0.112526   0.000000
   38        0.128467   0.000000
   39        0.131205   0.000000
   40        0.182309   0.000000
   41        0.197934   0.000000
