 vasp.5.4.1 24Jun15 (build Jan 13 2020 12:58:22) complex                        
  
 executed on           IFC91_ompi date 2020.02.03  09:56:59
 running on   15 total cores
 each image running on    1 cores
 distrk:  each k-point on    1 cores,    1 groups
 distr:  one band on NCORES_PER_BAND=   1 cores,    1 groups


--------------------------------------------------------------------------------------------------------


 INCAR:
 POTCAR:    PAW_PBE H 15Jun2001                   
 POTCAR:    PAW_PBE C 08Apr2002                   
 POTCAR:    PAW_PBE N 08Apr2002                   
 POTCAR:    PAW_PBE O 08Apr2002                   
 POTCAR:    PAW_PBE H 15Jun2001                   
   VRHFIN =H: ultrasoft test                                                    
   LEXCH  = PE                                                                  
   EATOM  =    12.4884 eV,    0.9179 Ry                                         
                                                                                
   TITEL  = PAW_PBE H 15Jun2001                                                 
   LULTRA =        F    use ultrasoft PP ?                                      
   IUNSCR =        0    unscreen: 0-lin 1-nonlin 2-no                           
   RPACOR =    0.000    partial core radius                                     
   POMASS =    1.000; ZVAL   =    1.000    mass and valenz                      
   RCORE  =    1.100    outmost cutoff radius                                   
   RWIGS  =    0.700; RWIGS  =    0.370    wigner-seitz radius (au A)           
   ENMAX  =  250.000; ENMIN  =  200.000 eV                                      
   RCLOC  =    0.701    cutoff for local pot                                    
   LCOR   =        T    correct aug charges                                     
   LPAW   =        T    paw PP                                                  
   EAUG   =  400.000                                                            
   RMAX   =    1.123    core radius for proj-oper                               
   RAUG   =    1.200    factor for augmentation sphere                          
   RDEP   =    1.112    radius for radial grids                                 
   RDEPT  =    0.926    core radius for aug-charge                              
                                                                                
   Atomic configuration                                                         
    2 entries                                                                   
     n  l   j            E        occ.                                          
     1  0  0.50        -6.4927   1.0000                                         
     2  1  0.50        -3.4015   0.0000                                         
   Description                                                                  
     l       E           TYP  RCUT    TYP  RCUT                                 
     0     -6.4927494     23  1.100                                             
     0      6.8029130     23  1.100                                             
     1     -4.0817478     23  1.100                                             
  local pseudopotential read in
  atomic valenz-charges read in
  non local Contribution for L=           0  read in
    real space projection operators read in
  non local Contribution for L=           0  read in
    real space projection operators read in
  non local Contribution for L=           1  read in
    real space projection operators read in
    PAW grid and wavefunctions read in
 
   number of l-projection  operators is LMAX  =           3
   number of lm-projection operators is LMMAX =           5
 
 POTCAR:    PAW_PBE C 08Apr2002                   
   VRHFIN =C: s2p2                                                              
   LEXCH  = PE                                                                  
   EATOM  =   147.1560 eV,   10.8157 Ry                                         
                                                                                
   TITEL  = PAW_PBE C 08Apr2002                                                 
   LULTRA =        F    use ultrasoft PP ?                                      
   IUNSCR =        1    unscreen: 0-lin 1-nonlin 2-no                           
   RPACOR =    1.200    partial core radius                                     
   POMASS =   12.011; ZVAL   =    4.000    mass and valenz                      
   RCORE  =    1.500    outmost cutoff radius                                   
   RWIGS  =    1.630; RWIGS  =    0.863    wigner-seitz radius (au A)           
   ENMAX  =  400.000; ENMIN  =  300.000 eV                                      
   ICORE  =        2    local potential                                         
   LCOR   =        T    correct aug charges                                     
   LPAW   =        T    paw PP                                                  
   EAUG   =  644.873                                                            
   DEXC   =    0.000                                                            
   RMAX   =    1.529    core radius for proj-oper                               
   RAUG   =    1.300    factor for augmentation sphere                          
   RDEP   =    1.501    radius for radial grids                                 
   RDEPT  =    1.300    core radius for aug-charge                              
                                                                                
   Atomic configuration                                                         
    4 entries                                                                   
     n  l   j            E        occ.                                          
     1  0  0.50      -273.3789   2.0000                                         
     2  0  0.50       -13.7508   2.0000                                         
     2  1  0.50        -5.2854   2.0000                                         
     3  2  1.50        -5.4423   0.0000                                         
   Description                                                                  
     l       E           TYP  RCUT    TYP  RCUT                                 
     0    -13.7508458     23  1.200                                             
     0     -8.2022199     23  1.200                                             
     1     -5.2854383     23  1.500                                             
     1     34.0145650     23  1.500                                             
     2     -5.4423304      7  1.500                                             
  local pseudopotential read in
  partial core-charges read in
  partial kinetic energy density read in
  atomic valenz-charges read in
  non local Contribution for L=           0  read in
    real space projection operators read in
  non local Contribution for L=           0  read in
    real space projection operators read in
  non local Contribution for L=           1  read in
    real space projection operators read in
  non local Contribution for L=           1  read in
    real space projection operators read in
    PAW grid and wavefunctions read in
 
   number of l-projection  operators is LMAX  =           4
   number of lm-projection operators is LMMAX =           8
 
 POTCAR:    PAW_PBE N 08Apr2002                   
   VRHFIN =N: s2p3                                                              
   LEXCH  = PE                                                                  
   EATOM  =   264.5486 eV,   19.4438 Ry                                         
                                                                                
   TITEL  = PAW_PBE N 08Apr2002                                                 
   LULTRA =        F    use ultrasoft PP ?                                      
   IUNSCR =        1    unscreen: 0-lin 1-nonlin 2-no                           
   RPACOR =    1.200    partial core radius                                     
   POMASS =   14.001; ZVAL   =    5.000    mass and valenz                      
   RCORE  =    1.500    outmost cutoff radius                                   
   RWIGS  =    1.400; RWIGS  =    0.741    wigner-seitz radius (au A)           
   ENMAX  =  400.000; ENMIN  =  300.000 eV                                      
   ICORE  =        2    local potential                                         
   LCOR   =        T    correct aug charges                                     
   LPAW   =        T    paw PP                                                  
   EAUG   =  627.112                                                            
   DEXC   =    0.000                                                            
   RMAX   =    1.529    core radius for proj-oper                               
   RAUG   =    1.300    factor for augmentation sphere                          
   RDEP   =    1.514    radius for radial grids                                 
   RDEPT  =    1.338    core radius for aug-charge                              
                                                                                
   Atomic configuration                                                         
    4 entries                                                                   
     n  l   j            E        occ.                                          
     1  0  0.50      -384.7179   2.0000                                         
     2  0  0.50       -18.5828   2.0000                                         
     2  1  0.50        -7.0898   3.0000                                         
     3  2  1.50        -6.8029   0.0000                                         
   Description                                                                  
     l       E           TYP  RCUT    TYP  RCUT                                 
     0    -18.5828119     23  1.200                                             
     0    -13.5018863     23  1.200                                             
     1     -7.0897853     23  1.500                                             
     1      9.5240782     23  1.500                                             
     2     -6.8029130      7  1.500                                             
  local pseudopotential read in
  partial core-charges read in
  partial kinetic energy density read in
  atomic valenz-charges read in
  non local Contribution for L=           0  read in
    real space projection operators read in
  non local Contribution for L=           0  read in
    real space projection operators read in
  non local Contribution for L=           1  read in
    real space projection operators read in
  non local Contribution for L=           1  read in
    real space projection operators read in
    PAW grid and wavefunctions read in
 
   number of l-projection  operators is LMAX  =           4
   number of lm-projection operators is LMMAX =           8
 
 POTCAR:    PAW_PBE O 08Apr2002                   
   VRHFIN =O: s2p4                                                              
   LEXCH  = PE                                                                  
   EATOM  =   432.3788 eV,   31.7789 Ry                                         
                                                                                
   TITEL  = PAW_PBE O 08Apr2002                                                 
   LULTRA =        F    use ultrasoft PP ?                                      
   IUNSCR =        1    unscreen: 0-lin 1-nonlin 2-no                           
   RPACOR =    1.200    partial core radius                                     
   POMASS =   16.000; ZVAL   =    6.000    mass and valenz                      
   RCORE  =    1.520    outmost cutoff radius                                   
   RWIGS  =    1.550; RWIGS  =    0.820    wigner-seitz radius (au A)           
   ENMAX  =  400.000; ENMIN  =  300.000 eV                                      
   ICORE  =        2    local potential                                         
   LCOR   =        T    correct aug charges                                     
   LPAW   =        T    paw PP                                                  
   EAUG   =  605.392                                                            
   DEXC   =    0.000                                                            
   RMAX   =    1.553    core radius for proj-oper                               
   RAUG   =    1.300    factor for augmentation sphere                          
   RDEP   =    1.550    radius for radial grids                                 
   RDEPT  =    1.329    core radius for aug-charge                              
                                                                                
   Atomic configuration                                                         
    4 entries                                                                   
     n  l   j            E        occ.                                          
     1  0  0.50      -514.6923   2.0000                                         
     2  0  0.50       -23.9615   2.0000                                         
     2  1  0.50        -9.0305   4.0000                                         
     3  2  1.50        -9.5241   0.0000                                         
   Description                                                                  
     l       E           TYP  RCUT    TYP  RCUT                                 
     0    -23.9615318     23  1.200                                             
     0     -9.5240782     23  1.200                                             
     1     -9.0304911     23  1.520                                             
     1      8.1634956     23  1.520                                             
     2     -9.5240782      7  1.500                                             
  local pseudopotential read in
  partial core-charges read in
  partial kinetic energy density read in
  kinetic energy density of atom read in
  atomic valenz-charges read in
  non local Contribution for L=           0  read in
    real space projection operators read in
  non local Contribution for L=           0  read in
    real space projection operators read in
  non local Contribution for L=           1  read in
    real space projection operators read in
  non local Contribution for L=           1  read in
    real space projection operators read in
    PAW grid and wavefunctions read in
 
   number of l-projection  operators is LMAX  =           4
   number of lm-projection operators is LMMAX =           8
 
 Optimization of the real space projectors (new method)

 maximal supplied QI-value         = 34.20
 optimisation between [QCUT,QGAM] = [  9.92, 20.18] = [ 27.55,114.04] Ry 
 Optimized for a Real-space Cutoff    1.26 Angstroem

   l    n(q)    QCUT    max X(q) W(low)/X(q) W(high)/X(q)  e(spline) 
   0      8     9.919    19.460    0.50E-03    0.23E-03    0.29E-06
   0      8     9.919    12.209    0.48E-03    0.23E-03    0.28E-06
   1      7     9.919     4.655    0.17E-03    0.75E-03    0.30E-06
 Optimization of the real space projectors (new method)

 maximal supplied QI-value         = 25.13
 optimisation between [QCUT,QGAM] = [ 10.05, 20.36] = [ 28.30,116.06] Ry 
 Optimized for a Real-space Cutoff    1.30 Angstroem

   l    n(q)    QCUT    max X(q) W(low)/X(q) W(high)/X(q)  e(spline) 
   0      8    10.053   115.676    0.49E-03    0.72E-03    0.18E-06
   0      8    10.053    87.132    0.49E-03    0.71E-03    0.18E-06
   1      7    10.053     4.429    0.32E-03    0.31E-03    0.18E-06
   1      7    10.053     2.733    0.23E-03    0.19E-03    0.20E-06
 Optimization of the real space projectors (new method)

 maximal supplied QI-value         = 25.13
 optimisation between [QCUT,QGAM] = [ 10.05, 20.36] = [ 28.30,116.06] Ry 
 Optimized for a Real-space Cutoff    1.65 Angstroem

   l    n(q)    QCUT    max X(q) W(low)/X(q) W(high)/X(q)  e(spline) 
   0     10    10.053    79.467    0.76E-04    0.72E-04    0.56E-06
   0     10    10.053    66.151    0.76E-04    0.72E-04    0.55E-06
   1     10    10.053     8.350    0.25E-03    0.92E-03    0.41E-05
   1     10    10.053     5.531    0.27E-03    0.10E-02    0.45E-05
 Optimization of the real space projectors (new method)

 maximal supplied QI-value         = 24.76
 optimisation between [QCUT,QGAM] = [ 10.15, 20.30] = [ 28.85,115.39] Ry 
 Optimized for a Real-space Cutoff    1.38 Angstroem

   l    n(q)    QCUT    max X(q) W(low)/X(q) W(high)/X(q)  e(spline) 
   0      8    10.150    20.381    0.22E-03    0.32E-03    0.29E-06
   0      8    10.150    15.268    0.23E-03    0.35E-03    0.30E-06
   1      8    10.150     5.964    0.46E-03    0.53E-03    0.21E-06
   1      8    10.150     5.382    0.38E-03    0.45E-03    0.19E-06
  PAW_PBE H 15Jun2001                   :
 energy of atom  1       EATOM=  -12.4884
 kinetic energy error for atom=    0.0098 (will be added to EATOM!!)
  PAW_PBE C 08Apr2002                   :
 energy of atom  2       EATOM= -147.1560
 kinetic energy error for atom=    0.0288 (will be added to EATOM!!)
  PAW_PBE N 08Apr2002                   :
 energy of atom  3       EATOM= -264.5486
 kinetic energy error for atom=    0.0736 (will be added to EATOM!!)
  PAW_PBE O 08Apr2002                   :
 energy of atom  4       EATOM= -432.3788
 kinetic energy error for atom=    0.1156 (will be added to EATOM!!)
 
 
 POSCAR: H12 C6 N2 O2                            
  positions in direct lattice
  velocities in cartesian coordinates
 exchange correlation table for  LEXCH =        8
   RHO(1)=    0.500       N(1)  =     2000
   RHO(2)=  100.500       N(2)  =     4000

 VTST: version 3.2, (02/03/18)

 CHAIN: initializing optimizer
 
 OPT: Using FIRE optimizer
 OPT: FIRE, Init
 OPT: FIRE, MAXMOVE       0.20000
 OPT: FIRE, TIMESTEP      0.10000
 OPT: FIRE, FTIMEMAX      1.00000
 OPT: FIRE, FTIMEINC      1.10000
 OPT: FIRE, FTIMEDEC      0.50000
 OPT: FIRE, FALPHADEC     0.99000
 OPT: FIRE, FALPHA        0.10000
 OPT: FIRE, FNMIN         5
 
 CHAIN: Read ICHAIN            0
 CHAIN: Running the NEB
 NEB:          SPRING     -5.000000
 NEB:          LCLIMB      T
 NEB:     LTANGENTOLD      F
 NEB:           LDNEB      F
 NEB:        LDNEBORG      F
 NEB:        LNEBCELL      F
 NEB:          EFIRST      0.000000
 NEB:           ELAST      0.000000
 
 POSCAR: H12 C6 N2 O2                            
  positions in direct lattice
  No initial velocities read in
 
 POSCAR: H12 C6 N2 O2                            
  positions in direct lattice
  No initial velocities read in
 


--------------------------------------------------------------------------------------------------------


 ion  position               nearest neighbor table
   1  0.381  0.547  0.521-  13 1.09
   2  0.385  0.497  0.488-  13 1.10
   3  0.382  0.494  0.547-  13 1.10
   4  0.452  0.451  0.505-  19 1.02
   5  0.525  0.497  0.549-  15 1.10
   6  0.565  0.425  0.538-  16 1.10
   7  0.522  0.405  0.504-  16 1.10
   8  0.512  0.415  0.562-  16 1.10
   9  0.524  0.555  0.498-  20 1.02
  10  0.600  0.545  0.437-  18 1.10
  11  0.549  0.555  0.409-  18 1.10
  12  0.569  0.595  0.448-  18 1.10
  13  0.395  0.513  0.519-   1 1.09   2 1.10   3 1.10  14 1.52
  14  0.445  0.517  0.523-  21 1.24  19 1.36  13 1.52
  15  0.517  0.475  0.521-   5 1.10  19 1.46  16 1.52  17 1.55
  16  0.529  0.427  0.532-   6 1.10   7 1.10   8 1.10  15 1.52
  17  0.543  0.492  0.480-  22 1.24  20 1.36  15 1.55
  18  0.567  0.559  0.440-  12 1.10  10 1.10  11 1.10  20 1.45
  19  0.468  0.479  0.515-   4 1.02  14 1.36  15 1.46
  20  0.544  0.537  0.477-   9 1.02  17 1.36  18 1.45
  21  0.465  0.552  0.533-  14 1.24
  22  0.561  0.467  0.453-  17 1.24
 
  LATTYP: Found a simple cubic cell.
 ALAT       =    30.0000000000
  
  Lattice vectors:
  
 A1 = (  30.0000000000,   0.0000000000,   0.0000000000)
 A2 = (   0.0000000000,  30.0000000000,   0.0000000000)
 A3 = (   0.0000000000,   0.0000000000,  30.0000000000)


Analysis of symmetry for initial positions (statically):
=====================================================================
 Subroutine PRICEL returns:
 Original cell was already a primitive cell.
 

 Routine SETGRP: Setting up the symmetry group for a 
 simple cubic supercell.


 Subroutine GETGRP returns: Found  1 space group operations
 (whereof  1 operations were pure point group operations)
 out of a pool of 48 trial point group operations.


The static configuration has the point symmetry C_1 .


Analysis of symmetry for dynamics (positions and initial velocities):
=====================================================================
 Subroutine PRICEL returns:
 Original cell was already a primitive cell.
 

 Routine SETGRP: Setting up the symmetry group for a 
 simple cubic supercell.


 Subroutine GETGRP returns: Found  1 space group operations
 (whereof  1 operations were pure point group operations)
 out of a pool of 48 trial point group operations.


The dynamic configuration has the point symmetry C_1 .
 
 
 KPOINTS: Mo2C                                    

Automatic generation of k-mesh.
Space group operators:
 irot       det(A)        alpha          n_x          n_y          n_z        tau_x        tau_y        tau_z
    1     1.000000     0.000000     1.000000     0.000000     0.000000     0.000000     0.000000     0.000000
 
 Subroutine IBZKPT returns following result:
 ===========================================
 
 Found      4 irreducible k-points:
 
 Following reciprocal coordinates:
            Coordinates               Weight
  0.250000  0.250000  0.250000      2.000000
 -0.250000  0.250000  0.250000      2.000000
  0.250000 -0.250000  0.250000      2.000000
 -0.250000 -0.250000  0.250000      2.000000
 
 Following cartesian coordinates:
            Coordinates               Weight
  0.008333  0.008333  0.008333      2.000000
 -0.008333  0.008333  0.008333      2.000000
  0.008333 -0.008333  0.008333      2.000000
 -0.008333 -0.008333  0.008333      2.000000
 


--------------------------------------------------------------------------------------------------------




 Dimension of arrays:
   k-points           NKPTS =      4   k-points in BZ     NKDIM =      4   number of bands    NBANDS=     41
   number of dos      NEDOS =    301   number of ions     NIONS =     22
   non local maximal  LDIM  =      4   non local SUM 2l+1 LMDIM =      8
   total plane-waves  NPLWV = ******
   max r-space proj   IRMAX =   2395   max aug-charges    IRDMAX=   1821
   dimension x,y,z NGX =   150 NGY =  150 NGZ =  150
   dimension x,y,z NGXF=   300 NGYF=  300 NGZF=  300
   support grid    NGXF=   300 NGYF=  300 NGZF=  300
   ions per type =              12   6   2   2
 NGX,Y,Z   is equivalent  to a cutoff of   8.31,  8.31,  8.31 a.u.
 NGXF,Y,Z  is equivalent  to a cutoff of  16.62, 16.62, 16.62 a.u.


 I would recommend the setting:
   dimension x,y,z NGX =   147 NGY =  147 NGZ =  147
 SYSTEM =  unknown system                          
 POSCAR =  H12 C6 N2 O2                            

 Startparameter for this run:
   NWRITE =      2    write-flag & timer
   PREC   = normal    normal or accurate (medium, high low for compatibility)
   ISTART =      0    job   : 0-new  1-cont  2-samecut
   ICHARG =      2    charge: 1-file 2-atom 10-const
   ISPIN  =      1    spin polarized calculation?
   LNONCOLLINEAR =      F non collinear calculations
   LSORBIT =      F    spin-orbit coupling
   INIWAV =      1    electr: 0-lowe 1-rand  2-diag
   LASPH  =      F    aspherical Exc in radial PAW
   METAGGA=      F    non-selfconsistent MetaGGA calc.

 Electronic Relaxation 1
   ENCUT  =  400.0 eV  29.40 Ry    5.42 a.u.  48.92 48.92 48.92*2*pi/ulx,y,z
   ENINI  =  400.0     initial cutoff
   ENAUG  =  644.9 eV  augmentation charge cutoff
   NELM   =    500;   NELMIN=  6; NELMDL= -5     # of ELM steps 
   EDIFF  = 0.1E-03   stopping-criterion for ELM
   LREAL  =      T    real-space projection
   NLSPLINE    = F    spline interpolate recip. space projectors
   LCOMPAT=      F    compatible to vasp.4.4
   GGA_COMPAT  = T    GGA compatible to vasp.4.4-vasp.4.6
   LMAXPAW     = -100 max onsite density
   LMAXMIX     =    2 max onsite mixed and CHGCAR
   VOSKOWN=      0    Vosko Wilk Nusair interpolation
   ROPT   =   -0.00050  -0.00050  -0.00050  -0.00050
 Ionic relaxation
   EDIFFG = -.1E+00   stopping-criterion for IOM
   NSW    =    300    number of steps for IOM
   NBLOCK =      1;   KBLOCK =    300    inner block; outer block 
   IBRION =      3    ionic relax: 0-MD 1-quasi-New 2-CG
   NFREE  =      0    steps in history (QN), initial steepest desc. (CG)
   ISIF   =      2    stress and relaxation
   IWAVPR =     11    prediction:  0-non 1-charg 2-wave 3-comb
   ISYM   =      2    0-nonsym 1-usesym 2-fastsym
   LCORR  =      T    Harris-Foulkes like correction to forces

   POTIM  = 0.0000    time-step for ionic-motion
   TEIN   =    0.0    initial temperature
   TEBEG  =    0.0;   TEEND  =   0.0 temperature during run
   SMASS  =   2.00    Nose mass-parameter (am)
   estimated Nose-frequenzy (Omega)   =  0.24E+10 period in steps =  0.00 mass=   0.137E-25a.u.
   SCALEE = 1.0000    scale energy and forces
   NPACO  =    256;   APACO  = 16.0  distance and # of slots for P.C.
   PSTRESS=    0.0 pullay stress

  Mass of Ions in am
   POMASS =   1.00 12.01 14.00 16.00
  Ionic Valenz
   ZVAL   =   1.00  4.00  5.00  6.00
  Atomic Wigner-Seitz radii
   RWIGS  =  -1.00 -1.00 -1.00 -1.00
  virtual crystal weights 
   VCA    =   1.00  1.00  1.00  1.00
   NELECT =      58.0000    total number of electrons
   NUPDOWN=      -1.0000    fix difference up-down

 DOS related values:
   EMIN   =  10.00;   EMAX   =-10.00  energy-range for DOS
   EFERMI =   0.00
   ISMEAR =     0;   SIGMA  =   0.20  broadening in eV -4-tet -1-fermi 0-gaus

 Electronic relaxation 2 (details)
   IALGO  =     38    algorithm
   LDIAG  =      T    sub-space diagonalisation (order eigenvalues)
   LSUBROT=      F    optimize rotation matrix (better conditioning)
   TURBO    =      0    0=normal 1=particle mesh
   IRESTART =      0    0=no restart 2=restart with 2 vectors
   NREBOOT  =      0    no. of reboots
   NMIN     =      0    reboot dimension
   EREF     =   0.00    reference energy to select bands
   IMIX   =      4    mixing-type and parameters
     AMIX     =   0.40;   BMIX     =  1.00
     AMIX_MAG =   1.60;   BMIX_MAG =  1.00
     AMIN     =   0.10
     WC   =   100.;   INIMIX=   1;  MIXPRE=   1;  MAXMIX= -45

 Intra band minimization:
   WEIMIN = 0.0010     energy-eigenvalue tresh-hold
   EBREAK =  0.61E-06  absolut break condition
   DEPER  =   0.30     relativ break condition  

   TIME   =   0.40     timestep for ELM

  volume/ion in A,a.u.               =    1227.27      8282.05
  Fermi-wavevector in a.u.,A,eV,Ry     =   0.211234  0.399174  0.607087  0.044620
  Thomas-Fermi vector in A             =   0.980021
 
 Write flags
   LWAVE  =      F    write WAVECAR
   LCHARG =      F    write CHGCAR
   LVTOT  =      F    write LOCPOT, total local potential
   LVHAR  =      F    write LOCPOT, Hartree potential only
   LELF   =      F    write electronic localiz. function (ELF)
   LORBIT =      0    0 simple, 1 ext, 2 COOP (PROOUT)


 Dipole corrections
   LMONO  =      F    monopole corrections only (constant potential shift)
   LDIPOL =      F    correct potential (dipole corrections)
   IDIPOL =      0    1-x, 2-y, 3-z, 4-all directions 
   EPSILON=  1.0000000 bulk dielectric constant

 Exchange correlation treatment:
   GGA     =    PE    GGA type
   LEXCH   =     8    internal setting for exchange type
   VOSKOWN=      0    Vosko Wilk Nusair interpolation
   LHFCALC =     F    Hartree Fock is set to
   LHFONE  =     F    Hartree Fock one center treatment
   AEXX    =    0.0000 exact exchange contribution

 Linear response parameters
   LEPSILON=     F    determine dielectric tensor
   LRPA    =     F    only Hartree local field effects (RPA)
   LNABLA  =     F    use nabla operator in PAW spheres
   LVEL    =     F    velocity operator in full k-point grid
   LINTERFAST=   F  fast interpolation
   KINTER  =     0    interpolate to denser k-point grid
   CSHIFT  =0.1000    complex shift for real part using Kramers Kronig
   OMEGAMAX=  -1.0    maximum frequency
   DEG_THRESHOLD= 0.2000000E-02 threshold for treating states as degnerate
   RTIME   =    0.100 relaxation time in fs

 Orbital magnetization related:
   ORBITALMAG=     F  switch on orbital magnetization
   LCHIMAG   =     F  perturbation theory with respect to B field
   DQ        =  0.001000  dq finite difference perturbation B field



--------------------------------------------------------------------------------------------------------


 quickmin algorithm: (dynamic with friction)
 charge density and potential will be updated during run
 non-spin polarized calculation
 Variant of blocked Davidson
 Davidson routine will perform the subspace rotation
 perform sub-space diagonalisation
    after iterative eigenvector-optimisation
 modified Broyden-mixing scheme, WC =      100.0
 initial mixing is a Kerker type mixing with AMIX =  0.4000 and BMIX =      1.0000
 Hartree-type preconditioning will be used
 using additional bands           12
 real space projection scheme for non local part
 use partial core corrections
 calculate Harris-corrections to forces 
   (improved forces if not selfconsistent)
 use gradient corrections 
 use of overlap-Matrix (Vanderbilt PP)
 Gauss-broadening in eV      SIGMA  =   0.20


--------------------------------------------------------------------------------------------------------


  energy-cutoff  :      400.00
  volume of cell :    27000.00
      direct lattice vectors                 reciprocal lattice vectors
    30.000000000  0.000000000  0.000000000     0.033333333  0.000000000  0.000000000
     0.000000000 30.000000000  0.000000000     0.000000000  0.033333333  0.000000000
     0.000000000  0.000000000 30.000000000     0.000000000  0.000000000  0.033333333

  length of vectors
    30.000000000 30.000000000 30.000000000     0.033333333  0.033333333  0.033333333


 
 k-points in units of 2pi/SCALE and weight: Mo2C                                    
   0.00833333  0.00833333  0.00833333       0.250
  -0.00833333  0.00833333  0.00833333       0.250
   0.00833333 -0.00833333  0.00833333       0.250
  -0.00833333 -0.00833333  0.00833333       0.250
 
 k-points in reciprocal lattice and weights: Mo2C                                    
   0.25000000  0.25000000  0.25000000       0.250
  -0.25000000  0.25000000  0.25000000       0.250
   0.25000000 -0.25000000  0.25000000       0.250
  -0.25000000 -0.25000000  0.25000000       0.250
 
 position of ions in fractional coordinates (direct lattice) 
   0.38068899  0.54689501  0.52077294
   0.38477982  0.49695705  0.48835065
   0.38202806  0.49374075  0.54746699
   0.45157978  0.45078891  0.50540947
   0.52467077  0.49724858  0.54940577
   0.56540463  0.42486418  0.53819133
   0.52191715  0.40512213  0.50386303
   0.51163264  0.41549784  0.56202666
   0.52384384  0.55461879  0.49814468
   0.60045084  0.54547156  0.43650268
   0.54916657  0.55498907  0.40853638
   0.56931163  0.59503357  0.44797401
   0.39517041  0.51342405  0.51940669
   0.44545458  0.51703560  0.52257547
   0.51668010  0.47495146  0.52131306
   0.52939424  0.42715957  0.53216884
   0.54275452  0.49203942  0.47999665
   0.56680029  0.55934501  0.44045523
   0.46844533  0.47867649  0.51473669
   0.54412827  0.53713407  0.47696219
   0.46472453  0.55236312  0.53257619
   0.56097301  0.46664477  0.45316231
 
 position of ions in cartesian coordinates  (Angst):
  11.42066976 16.40685034 15.62318809
  11.54339452 14.90871139 14.65051936
  11.46084172 14.81222260 16.42400980
  13.54739329 13.52366718 15.16228395
  15.74012320 14.91745747 16.48217295
  16.96213900 12.74592554 16.14573988
  15.65751455 12.15366381 15.11589089
  15.34897921 12.46493510 16.86079985
  15.71531522 16.63856367 14.94434027
  18.01352511 16.36414685 13.09508032
  16.47499700 16.64967199 12.25609127
  17.07934901 17.85100699 13.43922030
  11.85511237 15.40272151 15.58220074
  13.36363731 15.51106800 15.67726408
  15.50040292 14.24854393 15.63939187
  15.88182722 12.81478723 15.96506533
  16.28263573 14.76118274 14.39989948
  17.00400864 16.78035028 13.21365698
  14.05335988 14.36029480 15.44210074
  16.32384823 16.11402208 14.30886578
  13.94173594 16.57089354 15.97728572
  16.82919018 13.99934300 13.59486931
 


--------------------------------------------------------------------------------------------------------


 k-point  1 :   0.2500 0.2500 0.2500  plane waves:  490454
 k-point  2 :  -0.2500 0.2500 0.2500  plane waves:  490454
 k-point  3 :   0.2500-0.2500 0.2500  plane waves:  490454
 k-point  4 :  -0.2500-0.2500 0.2500  plane waves:  490454

 maximum and minimum number of plane-waves per node :    490454   490454

 maximum number of plane-waves:    490454
 maximum index in each direction: 
   IXMAX=   49   IYMAX=   49   IZMAX=   48
   IXMIN=  -49   IYMIN=  -49   IZMIN=  -49

 WARNING: aliasing errors must be expected set NGX to 198 to avoid them
 WARNING: aliasing errors must be expected set NGY to 198 to avoid them
 WARNING: aliasing errors must be expected set NGZ to 196 to avoid them
 aliasing errors are usually negligible using standard VASP settings
 and one can safely disregard these warnings

 serial   3D FFT for wavefunctions
 parallel 3D FFT for charge:
    minimum data exchange during FFTs selected (reduces bandwidth)


 total amount of memory used by VASP on root node  4333716. kBytes
========================================================================

   base      :      30000. kBytes
   nonlr-proj:       2411. kBytes
   fftplans  :     924480. kBytes
   grid      :    2089440. kBytes
   one-center:         67. kBytes
   wavefun   :    1287318. kBytes
 
     INWAV:  cpu time    0.0010: real time    0.0004
 Broyden mixing: mesh for mixing (old mesh)
   NGX = 97   NGY = 97   NGZ = 97
  (NGX  =300   NGY  =300   NGZ  =300)
  gives a total of 912673 points

 initial charge density was supplied:
 charge density of overlapping atoms calculated
 number of electron      58.0000000 magnetization 
 keeping initial charge density in first step


--------------------------------------------------------------------------------------------------------


 Maximum index for non-local projection operator         2293
 Maximum index for augmentation-charges         1565 (set IRDMAX)


--------------------------------------------------------------------------------------------------------


 First call to EWALD:  gamma=   0.059
 Maximum number of real-space cells 3x 3x 3
 Maximum number of reciprocal cells 3x 3x 3

 FEWALD executed in parallel
    FEWALD:  cpu time    0.0040: real time    0.0048


----------------------------------------- Iteration    1(   1)  ---------------------------------------


    POTLOK:  cpu time   25.4361: real time   25.4158
    SETDIJ:  cpu time    0.0310: real time    0.0304
     EDDAV:  cpu time  302.4530: real time  302.2073
       DOS:  cpu time    0.0000: real time    0.0009
    --------------------------------------------
      LOOP:  cpu time  327.9231: real time  327.6590

 eigenvalue-minimisations  :   392
 total energy-change (2. order) : 0.6120068E+03  (-0.7939148E+03)
 number of electron      58.0000000 magnetization 
 augmentation part       58.0000000 magnetization 

 Free energy of the ion-electron system (eV)
  ---------------------------------------------------
  alpha Z        PSCENC =         0.51957394
  Ewald energy   TEWEN  =      6067.70467177
  -Hartree energ DENC   =     -7809.80278147
  -exchange      EXHF   =         0.00000000
  -V(xc)+E(xc)   XCENC  =       202.04448471
  PAW double counting   =      1779.70502452    -1789.20730229
  entropy T*S    EENTRO =        -0.78942240
  eigenvalues    EBANDS =      -264.15082051
  atomic energy  EATOM  =      2425.98333211
  Solvation  Ediel_sol  =         0.00000000
  ---------------------------------------------------
  free energy    TOTEN  =       612.00676037 eV

  energy without entropy =      612.79618276  energy(sigma->0) =      612.40147156


--------------------------------------------------------------------------------------------------------




----------------------------------------- Iteration    1(   2)  ---------------------------------------


     EDDAV:  cpu time  417.4915: real time  417.1525
       DOS:  cpu time    0.0010: real time    0.0008
    --------------------------------------------
      LOOP:  cpu time  417.4955: real time  417.1563

 eigenvalue-minimisations  :   571
 total energy-change (2. order) :-0.3358348E+03  (-0.3251473E+03)
 number of electron      58.0000000 magnetization 
 augmentation part       58.0000000 magnetization 

 Free energy of the ion-electron system (eV)
  ---------------------------------------------------
  alpha Z        PSCENC =         0.51957394
  Ewald energy   TEWEN  =      6067.70467177
  -Hartree energ DENC   =     -7809.80278147
  -exchange      EXHF   =         0.00000000
  -V(xc)+E(xc)   XCENC  =       202.04448471
  PAW double counting   =      1779.70502452    -1789.20730229
  entropy T*S    EENTRO =        -0.52785431
  eigenvalues    EBANDS =      -600.24723110
  atomic energy  EATOM  =      2425.98333211
  Solvation  Ediel_sol  =         0.00000000
  ---------------------------------------------------
  free energy    TOTEN  =       276.17191786 eV

  energy without entropy =      276.69977218  energy(sigma->0) =      276.43584502


--------------------------------------------------------------------------------------------------------




----------------------------------------- Iteration    1(   3)  ---------------------------------------


     EDDAV:  cpu time  370.4097: real time  370.1086
       DOS:  cpu time    0.0000: real time    0.0006
    --------------------------------------------
      LOOP:  cpu time  370.4117: real time  370.1127

 eigenvalue-minimisations  :   496
 total energy-change (2. order) :-0.3193952E+03  (-0.3093542E+03)
 number of electron      58.0000000 magnetization 
 augmentation part       58.0000000 magnetization 

 Free energy of the ion-electron system (eV)
  ---------------------------------------------------
  alpha Z        PSCENC =         0.51957394
  Ewald energy   TEWEN  =      6067.70467177
  -Hartree energ DENC   =     -7809.80278147
  -exchange      EXHF   =         0.00000000
  -V(xc)+E(xc)   XCENC  =       202.04448471
  PAW double counting   =      1779.70502452    -1789.20730229
  entropy T*S    EENTRO =        -0.01320063
  eigenvalues    EBANDS =      -920.15705497
  atomic energy  EATOM  =      2425.98333211
  Solvation  Ediel_sol  =         0.00000000
  ---------------------------------------------------
  free energy    TOTEN  =       -43.22325232 eV

  energy without entropy =      -43.21005169  energy(sigma->0) =      -43.21665201


--------------------------------------------------------------------------------------------------------




----------------------------------------- Iteration    1(   4)  ---------------------------------------


     EDDAV:  cpu time  307.0323: real time  306.7821
       DOS:  cpu time    0.0000: real time    0.0005
    --------------------------------------------
      LOOP:  cpu time  307.0333: real time  306.7863

 eigenvalue-minimisations  :   398
 total energy-change (2. order) :-0.9296946E+02  (-0.9270083E+02)
 number of electron      58.0000000 magnetization 
 augmentation part       58.0000000 magnetization 

 Free energy of the ion-electron system (eV)
  ---------------------------------------------------
  alpha Z        PSCENC =         0.51957394
  Ewald energy   TEWEN  =      6067.70467177
  -Hartree energ DENC   =     -7809.80278147
  -exchange      EXHF   =         0.00000000
  -V(xc)+E(xc)   XCENC  =       202.04448471
  PAW double counting   =      1779.70502452    -1789.20730229
  entropy T*S    EENTRO =         0.00000000
  eigenvalues    EBANDS =     -1013.13971233
  atomic energy  EATOM  =      2425.98333211
  Solvation  Ediel_sol  =         0.00000000
  ---------------------------------------------------
  free energy    TOTEN  =      -136.19270905 eV

  energy without entropy =     -136.19270905  energy(sigma->0) =     -136.19270905


--------------------------------------------------------------------------------------------------------




----------------------------------------- Iteration    1(   5)  ---------------------------------------


     EDDAV:  cpu time  319.2795: real time  319.0207
       DOS:  cpu time    0.0000: real time    0.0005
    CHARGE:  cpu time   19.6170: real time   19.6007
    MIXING:  cpu time    0.6509: real time    0.6513
    --------------------------------------------
      LOOP:  cpu time  339.5504: real time  339.2765

 eigenvalue-minimisations  :   415
 total energy-change (2. order) :-0.5728705E+01  (-0.5707592E+01)
 number of electron      57.9999981 magnetization 
 augmentation part        2.9721010 magnetization 

 Broyden mixing:
  rms(total) = 0.19561E+01    rms(broyden)= 0.19540E+01
  rms(prec ) = 0.20313E+01
  weight for this iteration     100.00

 Free energy of the ion-electron system (eV)
  ---------------------------------------------------
  alpha Z        PSCENC =         0.51957394
  Ewald energy   TEWEN  =      6067.70467177
  -Hartree energ DENC   =     -7809.80278147
  -exchange      EXHF   =         0.00000000
  -V(xc)+E(xc)   XCENC  =       202.04448471
  PAW double counting   =      1779.70502452    -1789.20730229
  entropy T*S    EENTRO =         0.00000000
  eigenvalues    EBANDS =     -1018.86841733
  atomic energy  EATOM  =      2425.98333211
  Solvation  Ediel_sol  =         0.00000000
  ---------------------------------------------------
  free energy    TOTEN  =      -141.92141405 eV

  energy without entropy =     -141.92141405  energy(sigma->0) =     -141.92141405


--------------------------------------------------------------------------------------------------------




----------------------------------------- Iteration    1(   6)  ---------------------------------------


    POTLOK:  cpu time   22.0636: real time   22.0463
    SETDIJ:  cpu time    0.0290: real time    0.0293
     EDDAV:  cpu time  295.0052: real time  294.7635
       DOS:  cpu time    0.0000: real time    0.0005
    CHARGE:  cpu time   17.1774: real time   17.1628
    MIXING:  cpu time    0.6459: real time    0.6446
    --------------------------------------------
      LOOP:  cpu time  334.9241: real time  334.6512

 eigenvalue-minimisations  :   407
 total energy-change (2. order) : 0.1009425E+02  (-0.2404240E+01)
 number of electron      57.9999975 magnetization 
 augmentation part        2.6306815 magnetization 

 Broyden mixing:
  rms(total) = 0.10013E+01    rms(broyden)= 0.10009E+01
  rms(prec ) = 0.10295E+01
  weight for this iteration     100.00

 eigenvalues of (default mixing * dielectric matrix)
  average eigenvalue GAMMA=   1.2736
  1.2736

 Free energy of the ion-electron system (eV)
  ---------------------------------------------------
  alpha Z        PSCENC =         0.51957394
  Ewald energy   TEWEN  =      6067.70467177
  -Hartree energ DENC   =     -7925.18042638
  -exchange      EXHF   =         0.00000000
  -V(xc)+E(xc)   XCENC  =       208.12873319
  PAW double counting   =      2778.65779971    -2789.52460583
  entropy T*S    EENTRO =         0.00000000
  eigenvalues    EBANDS =      -898.11624388
  atomic energy  EATOM  =      2425.98333211
  Solvation  Ediel_sol  =         0.00000000
  ---------------------------------------------------
  free energy    TOTEN  =      -131.82716537 eV

  energy without entropy =     -131.82716537  energy(sigma->0) =     -131.82716537


--------------------------------------------------------------------------------------------------------




----------------------------------------- Iteration    1(   7)  ---------------------------------------


    POTLOK:  cpu time   19.1941: real time   19.1784
    SETDIJ:  cpu time    0.0290: real time    0.0284
     EDDAV:  cpu time  312.1515: real time  311.8976
       DOS:  cpu time    0.0000: real time    0.0005
    CHARGE:  cpu time   19.6480: real time   19.6316
    MIXING:  cpu time    0.7829: real time    0.7829
    --------------------------------------------
      LOOP:  cpu time  351.8065: real time  351.5231

 eigenvalue-minimisations  :   424
 total energy-change (2. order) : 0.1768044E+01  (-0.4458224E+00)
 number of electron      57.9999975 magnetization 
 augmentation part        2.6211861 magnetization 

 Broyden mixing:
  rms(total) = 0.51624E+00    rms(broyden)= 0.51613E+00
  rms(prec ) = 0.52886E+00
  weight for this iteration     100.00

 eigenvalues of (default mixing * dielectric matrix)
  average eigenvalue GAMMA=   1.5614
  1.0927  2.0302

 Free energy of the ion-electron system (eV)
  ---------------------------------------------------
  alpha Z        PSCENC =         0.51957394
  Ewald energy   TEWEN  =      6067.70467177
  -Hartree energ DENC   =     -7987.21433896
  -exchange      EXHF   =         0.00000000
  -V(xc)+E(xc)   XCENC  =       211.14142368
  PAW double counting   =      3749.74687336    -3760.87964575
  entropy T*S    EENTRO =         0.00000000
  eigenvalues    EBANDS =      -837.06101112
  atomic energy  EATOM  =      2425.98333211
  Solvation  Ediel_sol  =         0.00000000
  ---------------------------------------------------
  free energy    TOTEN  =      -130.05912097 eV

  energy without entropy =     -130.05912097  energy(sigma->0) =     -130.05912097


--------------------------------------------------------------------------------------------------------




----------------------------------------- Iteration    1(   8)  ---------------------------------------


    POTLOK:  cpu time   22.0996: real time   22.0822
    SETDIJ:  cpu time    0.0300: real time    0.0295
     EDDAV:  cpu time  321.5371: real time  321.2756
       DOS:  cpu time    0.0000: real time    0.0005
    CHARGE:  cpu time   18.5922: real time   18.5765
    MIXING:  cpu time    0.8609: real time    0.8597
    --------------------------------------------
      LOOP:  cpu time  363.1218: real time  362.8279

 eigenvalue-minimisations  :   432
 total energy-change (2. order) : 0.4851738E+00  (-0.8750455E-01)
 number of electron      57.9999976 magnetization 
 augmentation part        2.5914021 magnetization 

 Broyden mixing:
  rms(total) = 0.15589E+00    rms(broyden)= 0.15583E+00
  rms(prec ) = 0.16331E+00
  weight for this iteration     100.00

 eigenvalues of (default mixing * dielectric matrix)
  average eigenvalue GAMMA=   1.5452
  2.3851  0.9425  1.3079

 Free energy of the ion-electron system (eV)
  ---------------------------------------------------
  alpha Z        PSCENC =         0.51957394
  Ewald energy   TEWEN  =      6067.70467177
  -Hartree energ DENC   =     -8028.15240209
  -exchange      EXHF   =         0.00000000
  -V(xc)+E(xc)   XCENC  =       213.28020009
  PAW double counting   =      4575.67185065    -4586.99153025
  entropy T*S    EENTRO =         0.00000000
  eigenvalues    EBANDS =      -797.58964344
  atomic energy  EATOM  =      2425.98333211
  Solvation  Ediel_sol  =         0.00000000
  ---------------------------------------------------
  free energy    TOTEN  =      -129.57394721 eV

  energy without entropy =     -129.57394721  energy(sigma->0) =     -129.57394721


--------------------------------------------------------------------------------------------------------




----------------------------------------- Iteration    1(   9)  ---------------------------------------


    POTLOK:  cpu time   21.9687: real time   21.9515
    SETDIJ:  cpu time    0.0300: real time    0.0293
     EDDAV:  cpu time  337.8906: real time  337.6156
       DOS:  cpu time    0.0000: real time    0.0005
    CHARGE:  cpu time   19.4580: real time   19.4418
    MIXING:  cpu time    0.7969: real time    0.7962
    --------------------------------------------
      LOOP:  cpu time  380.1462: real time  379.8397

 eigenvalue-minimisations  :   472
 total energy-change (2. order) : 0.6754202E-01  (-0.1037403E-01)
 number of electron      57.9999976 magnetization 
 augmentation part        2.5830717 magnetization 

 Broyden mixing:
  rms(total) = 0.57138E-01    rms(broyden)= 0.57106E-01
  rms(prec ) = 0.65377E-01
  weight for this iteration     100.00

 eigenvalues of (default mixing * dielectric matrix)
  average eigenvalue GAMMA=   1.5136
  2.2202  1.0489  1.0489  1.7362

 Free energy of the ion-electron system (eV)
  ---------------------------------------------------
  alpha Z        PSCENC =         0.51957394
  Ewald energy   TEWEN  =      6067.70467177
  -Hartree energ DENC   =     -8041.75809523
  -exchange      EXHF   =         0.00000000
  -V(xc)+E(xc)   XCENC  =       213.83424760
  PAW double counting   =      4812.74097377    -4824.02766792
  entropy T*S    EENTRO =         0.00000000
  eigenvalues    EBANDS =      -784.50344123
  atomic energy  EATOM  =      2425.98333211
  Solvation  Ediel_sol  =         0.00000000
  ---------------------------------------------------
  free energy    TOTEN  =      -129.50640519 eV

  energy without entropy =     -129.50640519  energy(sigma->0) =     -129.50640519


--------------------------------------------------------------------------------------------------------




----------------------------------------- Iteration    1(  10)  ---------------------------------------


    POTLOK:  cpu time   22.0746: real time   22.0586
    SETDIJ:  cpu time    0.0290: real time    0.0287
     EDDAV:  cpu time  320.5253: real time  320.2639
       DOS:  cpu time    0.0000: real time    0.0005
    CHARGE:  cpu time   18.9731: real time   18.9578
    MIXING:  cpu time    0.8739: real time    0.8735
    --------------------------------------------
      LOOP:  cpu time  362.4789: real time  362.1870

 eigenvalue-minimisations  :   432
 total energy-change (2. order) : 0.1014444E-01  (-0.2640371E-02)
 number of electron      57.9999976 magnetization 
 augmentation part        2.5904286 magnetization 

 Broyden mixing:
  rms(total) = 0.25841E-01    rms(broyden)= 0.25817E-01
  rms(prec ) = 0.35543E-01
  weight for this iteration     100.00

 eigenvalues of (default mixing * dielectric matrix)
  average eigenvalue GAMMA=   1.4851
  2.1764  2.1764  0.9457  0.9457  1.1812

 Free energy of the ion-electron system (eV)
  ---------------------------------------------------
  alpha Z        PSCENC =         0.51957394
  Ewald energy   TEWEN  =      6067.70467177
  -Hartree energ DENC   =     -8046.68224332
  -exchange      EXHF   =         0.00000000
  -V(xc)+E(xc)   XCENC  =       213.84446291
  PAW double counting   =      4806.14960793    -4817.38706966
  entropy T*S    EENTRO =         0.00000000
  eigenvalues    EBANDS =      -779.62859644
  atomic energy  EATOM  =      2425.98333211
  Solvation  Ediel_sol  =         0.00000000
  ---------------------------------------------------
  free energy    TOTEN  =      -129.49626075 eV

  energy without entropy =     -129.49626075  energy(sigma->0) =     -129.49626075


--------------------------------------------------------------------------------------------------------




----------------------------------------- Iteration    1(  11)  ---------------------------------------


    POTLOK:  cpu time   21.3508: real time   21.3340
    SETDIJ:  cpu time    0.0280: real time    0.0285
     EDDAV:  cpu time  311.9806: real time  311.7253
       DOS:  cpu time    0.0010: real time    0.0005
    CHARGE:  cpu time   20.6569: real time   20.6415
    MIXING:  cpu time    1.1228: real time    1.1205
    --------------------------------------------
      LOOP:  cpu time  355.1420: real time  354.8545

 eigenvalue-minimisations  :   432
 total energy-change (2. order) : 0.4681968E-02  (-0.7818545E-03)
 number of electron      57.9999976 magnetization 
 augmentation part        2.5861548 magnetization 

 Broyden mixing:
  rms(total) = 0.16018E-01    rms(broyden)= 0.16011E-01
  rms(prec ) = 0.24591E-01
  weight for this iteration     100.00

 eigenvalues of (default mixing * dielectric matrix)
  average eigenvalue GAMMA=   1.5524
  2.4729  2.4729  0.9482  0.9482  1.2362  1.2362

 Free energy of the ion-electron system (eV)
  ---------------------------------------------------
  alpha Z        PSCENC =         0.51957394
  Ewald energy   TEWEN  =      6067.70467177
  -Hartree energ DENC   =     -8052.44540148
  -exchange      EXHF   =         0.00000000
  -V(xc)+E(xc)   XCENC  =       213.94715019
  PAW double counting   =      4808.31066321    -4819.54667794
  entropy T*S    EENTRO =         0.00000000
  eigenvalues    EBANDS =      -773.96489058
  atomic energy  EATOM  =      2425.98333211
  Solvation  Ediel_sol  =         0.00000000
  ---------------------------------------------------
  free energy    TOTEN  =      -129.49157878 eV

  energy without entropy =     -129.49157878  energy(sigma->0) =     -129.49157878


--------------------------------------------------------------------------------------------------------




----------------------------------------- Iteration    1(  12)  ---------------------------------------


    POTLOK:  cpu time   22.1006: real time   22.0838
    SETDIJ:  cpu time    0.0300: real time    0.0292
     EDDAV:  cpu time  288.9531: real time  288.7189
       DOS:  cpu time    0.0010: real time    0.0005
    CHARGE:  cpu time   18.4622: real time   18.4480
    MIXING:  cpu time    1.0158: real time    1.0151
    --------------------------------------------
      LOOP:  cpu time  330.5657: real time  330.4229

 eigenvalue-minimisations  :   379
 total energy-change (2. order) :-0.1491359E-02  (-0.6414448E-03)
 number of electron      57.9999976 magnetization 
 augmentation part        2.5850679 magnetization 

 Broyden mixing:
  rms(total) = 0.97832E-02    rms(broyden)= 0.97776E-02
  rms(prec ) = 0.15611E-01
  weight for this iteration     100.00

 eigenvalues of (default mixing * dielectric matrix)
  average eigenvalue GAMMA=   1.6237
  2.8337  2.6788  1.4543  1.2252  1.2252  0.9745  0.9745

 Free energy of the ion-electron system (eV)
  ---------------------------------------------------
  alpha Z        PSCENC =         0.51957394
  Ewald energy   TEWEN  =      6067.70467177
  -Hartree energ DENC   =     -8059.42690252
  -exchange      EXHF   =         0.00000000
  -V(xc)+E(xc)   XCENC  =       214.03993048
  PAW double counting   =      4803.99506299    -4815.22166870
  entropy T*S    EENTRO =         0.00000000
  eigenvalues    EBANDS =      -767.08707021
  atomic energy  EATOM  =      2425.98333211
  Solvation  Ediel_sol  =         0.00000000
  ---------------------------------------------------
  free energy    TOTEN  =      -129.49307014 eV

  energy without entropy =     -129.49307014  energy(sigma->0) =     -129.49307014


--------------------------------------------------------------------------------------------------------




----------------------------------------- Iteration    1(  13)  ---------------------------------------


    POTLOK:  cpu time   21.0258: real time   21.0088
    SETDIJ:  cpu time    0.0280: real time    0.0286
     EDDAV:  cpu time  296.8909: real time  296.6477
       DOS:  cpu time    0.0010: real time    0.0005
    CHARGE:  cpu time   18.1582: real time   18.1443
    MIXING:  cpu time    1.1268: real time    1.1258
    --------------------------------------------
      LOOP:  cpu time  337.2317: real time  336.9606

 eigenvalue-minimisations  :   416
 total energy-change (2. order) :-0.6579161E-02  (-0.4366306E-03)
 number of electron      57.9999976 magnetization 
 augmentation part        2.5840334 magnetization 

 Broyden mixing:
  rms(total) = 0.56227E-02    rms(broyden)= 0.56176E-02
  rms(prec ) = 0.90848E-02
  weight for this iteration     100.00

 eigenvalues of (default mixing * dielectric matrix)
  average eigenvalue GAMMA=   1.7292
  4.1525  2.5010  1.6593  1.4439  1.0283  1.0283  1.0102  1.0102

 Free energy of the ion-electron system (eV)
  ---------------------------------------------------
  alpha Z        PSCENC =         0.51957394
  Ewald energy   TEWEN  =      6067.70467177
  -Hartree energ DENC   =     -8065.18834943
  -exchange      EXHF   =         0.00000000
  -V(xc)+E(xc)   XCENC  =       214.10647155
  PAW double counting   =      4797.93724484    -4809.16332818
  entropy T*S    EENTRO =         0.00000000
  eigenvalues    EBANDS =      -761.39926589
  atomic energy  EATOM  =      2425.98333211
  Solvation  Ediel_sol  =         0.00000000
  ---------------------------------------------------
  free energy    TOTEN  =      -129.49964930 eV

  energy without entropy =     -129.49964930  energy(sigma->0) =     -129.49964930


--------------------------------------------------------------------------------------------------------




----------------------------------------- Iteration    1(  14)  ---------------------------------------


    POTLOK:  cpu time   21.4217: real time   21.4053
    SETDIJ:  cpu time    0.0290: real time    0.0290
     EDDAV:  cpu time  314.5852: real time  314.3279
       DOS:  cpu time    0.0000: real time    0.0005
    CHARGE:  cpu time   18.5182: real time   18.5033
    MIXING:  cpu time    1.1098: real time    1.1087
    --------------------------------------------
      LOOP:  cpu time  355.6659: real time  355.3798

 eigenvalue-minimisations  :   424
 total energy-change (2. order) :-0.6500987E-02  (-0.1644896E-03)
 number of electron      57.9999976 magnetization 
 augmentation part        2.5833470 magnetization 

 Broyden mixing:
  rms(total) = 0.36691E-02    rms(broyden)= 0.36658E-02
  rms(prec ) = 0.56004E-02
  weight for this iteration     100.00

 eigenvalues of (default mixing * dielectric matrix)
  average eigenvalue GAMMA=   1.8319
  5.0171  2.4332  2.1713  1.2823  1.2823  1.2790  1.0639  0.9791  0.9791

 Free energy of the ion-electron system (eV)
  ---------------------------------------------------
  alpha Z        PSCENC =         0.51957394
  Ewald energy   TEWEN  =      6067.70467177
  -Hartree energ DENC   =     -8068.55157545
  -exchange      EXHF   =         0.00000000
  -V(xc)+E(xc)   XCENC  =       214.12817755
  PAW double counting   =      4792.39154488    -4803.61547762
  entropy T*S    EENTRO =         0.00000000
  eigenvalues    EBANDS =      -758.06639747
  atomic energy  EATOM  =      2425.98333211
  Solvation  Ediel_sol  =         0.00000000
  ---------------------------------------------------
  free energy    TOTEN  =      -129.50615029 eV

  energy without entropy =     -129.50615029  energy(sigma->0) =     -129.50615029


--------------------------------------------------------------------------------------------------------




----------------------------------------- Iteration    1(  15)  ---------------------------------------


    POTLOK:  cpu time   21.5747: real time   21.5571
    SETDIJ:  cpu time    0.0290: real time    0.0287
     EDDAV:  cpu time  280.2854: real time  280.0565
       DOS:  cpu time    0.0010: real time    0.0005
    CHARGE:  cpu time   18.3142: real time   18.3008
    MIXING:  cpu time    1.2958: real time    1.2935
    --------------------------------------------
      LOOP:  cpu time  321.5021: real time  321.2409

 eigenvalue-minimisations  :   398
 total energy-change (2. order) :-0.7469169E-02  (-0.6878679E-04)
 number of electron      57.9999976 magnetization 
 augmentation part        2.5832680 magnetization 

 Broyden mixing:
  rms(total) = 0.22219E-02    rms(broyden)= 0.22210E-02
  rms(prec ) = 0.33564E-02
  weight for this iteration     100.00

 eigenvalues of (default mixing * dielectric matrix)
  average eigenvalue GAMMA=   1.9293
  5.6994  2.8748  2.3901  1.7409  1.4066  1.0910  1.0910  1.0048  0.9970  0.9970

 Free energy of the ion-electron system (eV)
  ---------------------------------------------------
  alpha Z        PSCENC =         0.51957394
  Ewald energy   TEWEN  =      6067.70467177
  -Hartree energ DENC   =     -8070.16911583
  -exchange      EXHF   =         0.00000000
  -V(xc)+E(xc)   XCENC  =       214.12752724
  PAW double counting   =      4791.83232519    -4803.05449220
  entropy T*S    EENTRO =         0.00000000
  eigenvalues    EBANDS =      -756.45744166
  atomic energy  EATOM  =      2425.98333211
  Solvation  Ediel_sol  =         0.00000000
  ---------------------------------------------------
  free energy    TOTEN  =      -129.51361946 eV

  energy without entropy =     -129.51361946  energy(sigma->0) =     -129.51361946


--------------------------------------------------------------------------------------------------------




----------------------------------------- Iteration    1(  16)  ---------------------------------------


    POTLOK:  cpu time   23.7594: real time   23.7401
    SETDIJ:  cpu time    0.0290: real time    0.0290
     EDDAV:  cpu time  260.1734: real time  259.9628
       DOS:  cpu time    0.0010: real time    0.0006
    CHARGE:  cpu time   19.7100: real time   19.6948
    MIXING:  cpu time    1.4568: real time    1.4560
    --------------------------------------------
      LOOP:  cpu time  305.1316: real time  304.8876

 eigenvalue-minimisations  :   332
 total energy-change (2. order) :-0.5651958E-02  (-0.4412914E-04)
 number of electron      57.9999976 magnetization 
 augmentation part        2.5832834 magnetization 

 Broyden mixing:
  rms(total) = 0.13129E-02    rms(broyden)= 0.13125E-02
  rms(prec ) = 0.19484E-02
  weight for this iteration     100.00

 eigenvalues of (default mixing * dielectric matrix)
  average eigenvalue GAMMA=   2.0113
  6.5384  3.2479  2.2531  2.0654  1.4489  1.4489  1.0664  1.0664  0.9952  0.9965
  0.9965

 Free energy of the ion-electron system (eV)
  ---------------------------------------------------
  alpha Z        PSCENC =         0.51957394
  Ewald energy   TEWEN  =      6067.70467177
  -Hartree energ DENC   =     -8070.86398948
  -exchange      EXHF   =         0.00000000
  -V(xc)+E(xc)   XCENC  =       214.11944748
  PAW double counting   =      4791.92880884    -4803.15052850
  entropy T*S    EENTRO =         0.00000000
  eigenvalues    EBANDS =      -755.76058757
  atomic energy  EATOM  =      2425.98333211
  Solvation  Ediel_sol  =         0.00000000
  ---------------------------------------------------
  free energy    TOTEN  =      -129.51927142 eV

  energy without entropy =     -129.51927142  energy(sigma->0) =     -129.51927142


--------------------------------------------------------------------------------------------------------




----------------------------------------- Iteration    1(  17)  ---------------------------------------


    POTLOK:  cpu time   22.4556: real time   22.4374
    SETDIJ:  cpu time    0.0300: real time    0.0294
     EDDAV:  cpu time  250.3449: real time  250.1407
       DOS:  cpu time    0.0000: real time    0.0005
    CHARGE:  cpu time   17.3124: real time   17.2975
    MIXING:  cpu time    1.1528: real time    1.1523
    --------------------------------------------
      LOOP:  cpu time  291.2977: real time  291.0627

 eigenvalue-minimisations  :   334
 total energy-change (2. order) :-0.3011660E-02  (-0.1703170E-04)
 number of electron      57.9999976 magnetization 
 augmentation part        2.5832060 magnetization 

 Broyden mixing:
  rms(total) = 0.75908E-03    rms(broyden)= 0.75874E-03
  rms(prec ) = 0.11176E-02
  weight for this iteration     100.00

 eigenvalues of (default mixing * dielectric matrix)
  average eigenvalue GAMMA=   2.0601
  7.1761  3.7144  2.3440  2.3440  1.5207  1.5207  1.0677  1.0677  0.9956  0.9956
  0.9874  0.9874

 Free energy of the ion-electron system (eV)
  ---------------------------------------------------
  alpha Z        PSCENC =         0.51957394
  Ewald energy   TEWEN  =      6067.70467177
  -Hartree energ DENC   =     -8071.22032867
  -exchange      EXHF   =         0.00000000
  -V(xc)+E(xc)   XCENC  =       214.11458671
  PAW double counting   =      4791.86319356    -4803.08482386
  entropy T*S    EENTRO =         0.00000000
  eigenvalues    EBANDS =      -755.40248863
  atomic energy  EATOM  =      2425.98333211
  Solvation  Ediel_sol  =         0.00000000
  ---------------------------------------------------
  free energy    TOTEN  =      -129.52228308 eV

  energy without entropy =     -129.52228308  energy(sigma->0) =     -129.52228308


--------------------------------------------------------------------------------------------------------




----------------------------------------- Iteration    1(  18)  ---------------------------------------


    POTLOK:  cpu time   18.9541: real time   18.9392
    SETDIJ:  cpu time    0.0290: real time    0.0284
     EDDAV:  cpu time  250.0590: real time  249.8555
       DOS:  cpu time    0.0000: real time    0.0005
    CHARGE:  cpu time   19.6850: real time   19.6692
    MIXING:  cpu time    1.4608: real time    1.4604
    --------------------------------------------
      LOOP:  cpu time  290.1909: real time  289.9568

 eigenvalue-minimisations  :   320
 total energy-change (2. order) :-0.1390885E-02  (-0.9557828E-05)
 number of electron      57.9999976 magnetization 
 augmentation part        2.5831514 magnetization 

 Broyden mixing:
  rms(total) = 0.52269E-03    rms(broyden)= 0.52249E-03
  rms(prec ) = 0.73220E-03
  weight for this iteration     100.00

 eigenvalues of (default mixing * dielectric matrix)
  average eigenvalue GAMMA=   2.1023
  7.6076  4.2441  2.3793  2.3793  1.7195  1.4667  1.4667  1.0653  1.0653  0.9742
  0.9742  0.9938  0.9938

 Free energy of the ion-electron system (eV)
  ---------------------------------------------------
  alpha Z        PSCENC =         0.51957394
  Ewald energy   TEWEN  =      6067.70467177
  -Hartree energ DENC   =     -8071.36108525
  -exchange      EXHF   =         0.00000000
  -V(xc)+E(xc)   XCENC  =       214.11273972
  PAW double counting   =      4792.24076975    -4803.46240660
  entropy T*S    EENTRO =         0.00000000
  eigenvalues    EBANDS =      -755.26126940
  atomic energy  EATOM  =      2425.98333211
  Solvation  Ediel_sol  =         0.00000000
  ---------------------------------------------------
  free energy    TOTEN  =      -129.52367396 eV

  energy without entropy =     -129.52367396  energy(sigma->0) =     -129.52367396


--------------------------------------------------------------------------------------------------------




----------------------------------------- Iteration    1(  19)  ---------------------------------------


    POTLOK:  cpu time   21.1848: real time   21.1679
    SETDIJ:  cpu time    0.0280: real time    0.0289
     EDDAV:  cpu time  239.5926: real time  239.4013
       DOS:  cpu time    0.0010: real time    0.0005
    CHARGE:  cpu time   18.4002: real time   18.3859
    MIXING:  cpu time    1.5188: real time    1.5178
    --------------------------------------------
      LOOP:  cpu time  280.7273: real time  280.5067

 eigenvalue-minimisations  :   302
 total energy-change (2. order) :-0.8105689E-03  (-0.4097892E-05)
 number of electron      57.9999976 magnetization 
 augmentation part        2.5831474 magnetization 

 Broyden mixing:
  rms(total) = 0.31102E-03    rms(broyden)= 0.31089E-03
  rms(prec ) = 0.43791E-03
  weight for this iteration     100.00

 eigenvalues of (default mixing * dielectric matrix)
  average eigenvalue GAMMA=   2.1531
  8.1175  4.7963  2.6305  2.6305  1.6761  1.5906  1.5906  1.0810  1.0810  0.9612
  0.9806  0.9806  1.0131  1.0131

 Free energy of the ion-electron system (eV)
  ---------------------------------------------------
  alpha Z        PSCENC =         0.51957394
  Ewald energy   TEWEN  =      6067.70467177
  -Hartree energ DENC   =     -8071.42145242
  -exchange      EXHF   =         0.00000000
  -V(xc)+E(xc)   XCENC  =       214.11180156
  PAW double counting   =      4792.35577306    -4803.57740454
  entropy T*S    EENTRO =         0.00000000
  eigenvalues    EBANDS =      -755.20078000
  atomic energy  EATOM  =      2425.98333211
  Solvation  Ediel_sol  =         0.00000000
  ---------------------------------------------------
  free energy    TOTEN  =      -129.52448453 eV

  energy without entropy =     -129.52448453  energy(sigma->0) =     -129.52448453


--------------------------------------------------------------------------------------------------------




----------------------------------------- Iteration    1(  20)  ---------------------------------------


    POTLOK:  cpu time   20.6629: real time   20.6460
    SETDIJ:  cpu time    0.0290: real time    0.0288
     EDDAV:  cpu time  237.5949: real time  237.4047
       DOS:  cpu time    0.0010: real time    0.0005
    CHARGE:  cpu time   17.8483: real time   17.8347
    MIXING:  cpu time    1.7287: real time    1.7269
    --------------------------------------------
      LOOP:  cpu time  277.8668: real time  277.6455

 eigenvalue-minimisations  :   320
 total energy-change (2. order) :-0.4151964E-03  (-0.1955564E-05)
 number of electron      57.9999976 magnetization 
 augmentation part        2.5831376 magnetization 

 Broyden mixing:
  rms(total) = 0.23143E-03    rms(broyden)= 0.23136E-03
  rms(prec ) = 0.29625E-03
  weight for this iteration     100.00

 eigenvalues of (default mixing * dielectric matrix)
  average eigenvalue GAMMA=   2.1592
  8.2881  5.2161  2.7429  2.5137  2.1803  1.5446  1.2877  1.2877  1.1252  1.1252
  1.0041  0.9836  0.9836  1.0528  1.0528

 Free energy of the ion-electron system (eV)
  ---------------------------------------------------
  alpha Z        PSCENC =         0.51957394
  Ewald energy   TEWEN  =      6067.70467177
  -Hartree energ DENC   =     -8071.44663359
  -exchange      EXHF   =         0.00000000
  -V(xc)+E(xc)   XCENC  =       214.11087708
  PAW double counting   =      4792.07256145    -4803.29414596
  entropy T*S    EENTRO =         0.00000000
  eigenvalues    EBANDS =      -755.17513653
  atomic energy  EATOM  =      2425.98333211
  Solvation  Ediel_sol  =         0.00000000
  ---------------------------------------------------
  free energy    TOTEN  =      -129.52489973 eV

  energy without entropy =     -129.52489973  energy(sigma->0) =     -129.52489973


--------------------------------------------------------------------------------------------------------




----------------------------------------- Iteration    1(  21)  ---------------------------------------


    POTLOK:  cpu time   20.4959: real time   20.4800
    SETDIJ:  cpu time    0.0280: real time    0.0290
     EDDAV:  cpu time  229.2981: real time  229.1154
       DOS:  cpu time    0.0000: real time    0.0005
    CHARGE:  cpu time   18.9331: real time   18.9183
    MIXING:  cpu time    1.7997: real time    1.7985
    --------------------------------------------
      LOOP:  cpu time  270.5589: real time  270.3457

 eigenvalue-minimisations  :   288
 total energy-change (2. order) :-0.1867452E-03  (-0.7501218E-06)
 number of electron      57.9999976 magnetization 
 augmentation part        2.5831247 magnetization 

 Broyden mixing:
  rms(total) = 0.11712E-03    rms(broyden)= 0.11705E-03
  rms(prec ) = 0.16473E-03
  weight for this iteration     100.00

 eigenvalues of (default mixing * dielectric matrix)
  average eigenvalue GAMMA=   2.2210
  8.4824  5.7860  3.4108  2.6055  2.3200  1.6086  1.6086  1.2043  1.2043  1.2679
  1.0266  1.0266  1.1043  0.9518  0.9641  0.9641

 Free energy of the ion-electron system (eV)
  ---------------------------------------------------
  alpha Z        PSCENC =         0.51957394
  Ewald energy   TEWEN  =      6067.70467177
  -Hartree energ DENC   =     -8071.45406632
  -exchange      EXHF   =         0.00000000
  -V(xc)+E(xc)   XCENC  =       214.11064363
  PAW double counting   =      4792.14299068    -4803.36463154
  entropy T*S    EENTRO =         0.00000000
  eigenvalues    EBANDS =      -755.16760075
  atomic energy  EATOM  =      2425.98333211
  Solvation  Ediel_sol  =         0.00000000
  ---------------------------------------------------
  free energy    TOTEN  =      -129.52508647 eV

  energy without entropy =     -129.52508647  energy(sigma->0) =     -129.52508647


--------------------------------------------------------------------------------------------------------




----------------------------------------- Iteration    1(  22)  ---------------------------------------


    POTLOK:  cpu time   22.4796: real time   22.4621
    SETDIJ:  cpu time    0.0290: real time    0.0296
     EDDAV:  cpu time  235.0823: real time  234.8926
       DOS:  cpu time    0.0000: real time    0.0005
    CHARGE:  cpu time   18.2342: real time   18.2187
    MIXING:  cpu time    2.0927: real time    2.0916
    --------------------------------------------
      LOOP:  cpu time  277.9198: real time  277.6993

 eigenvalue-minimisations  :   294
 total energy-change (2. order) :-0.1363860E-03  (-0.3867601E-06)
 number of electron      57.9999976 magnetization 
 augmentation part        2.5831322 magnetization 

 Broyden mixing:
  rms(total) = 0.10420E-03    rms(broyden)= 0.10417E-03
  rms(prec ) = 0.12178E-03
  weight for this iteration     100.00

 eigenvalues of (default mixing * dielectric matrix)
  average eigenvalue GAMMA=   2.2152
  8.6302  6.1150  3.6946  2.4710  2.3746  2.0433  1.2547  1.2547  1.4356  1.3038
  1.0457  1.0457  1.0702  1.0702  0.9270  0.9614  0.9614

 Free energy of the ion-electron system (eV)
  ---------------------------------------------------
  alpha Z        PSCENC =         0.51957394
  Ewald energy   TEWEN  =      6067.70467177
  -Hartree energ DENC   =     -8071.46956919
  -exchange      EXHF   =         0.00000000
  -V(xc)+E(xc)   XCENC  =       214.11038561
  PAW double counting   =      4792.03845034    -4803.26006369
  entropy T*S    EENTRO =         0.00000000
  eigenvalues    EBANDS =      -755.15200375
  atomic energy  EATOM  =      2425.98333211
  Solvation  Ediel_sol  =         0.00000000
  ---------------------------------------------------
  free energy    TOTEN  =      -129.52522286 eV

  energy without entropy =     -129.52522286  energy(sigma->0) =     -129.52522286


--------------------------------------------------------------------------------------------------------




----------------------------------------- Iteration    1(  23)  ---------------------------------------


    POTLOK:  cpu time   20.7388: real time   20.7227
    SETDIJ:  cpu time    0.0280: real time    0.0283
     EDDAV:  cpu time  262.7231: real time  262.5116
       DOS:  cpu time    0.0000: real time    0.0005
    --------------------------------------------
      LOOP:  cpu time  283.4919: real time  283.2666

 eigenvalue-minimisations  :   368
 total energy-change (2. order) :-0.3574907E-04  (-0.9605019E-07)
 number of electron      57.9999976 magnetization 
 augmentation part        2.5831322 magnetization 

 Free energy of the ion-electron system (eV)
  ---------------------------------------------------
  alpha Z        PSCENC =         0.51957394
  Ewald energy   TEWEN  =      6067.70467177
  -Hartree energ DENC   =     -8071.47527833
  -exchange      EXHF   =         0.00000000
  -V(xc)+E(xc)   XCENC  =       214.11034102
  PAW double counting   =      4792.06043015    -4803.28202150
  entropy T*S    EENTRO =         0.00000000
  eigenvalues    EBANDS =      -755.14630777
  atomic energy  EATOM  =      2425.98333211
  Solvation  Ediel_sol  =         0.00000000
  ---------------------------------------------------
  free energy    TOTEN  =      -129.52525861 eV

  energy without entropy =     -129.52525861  energy(sigma->0) =     -129.52525861


--------------------------------------------------------------------------------------------------------




 average (electrostatic) potential at core
  the test charge radii are     0.5201  0.6991  0.7089  0.7215
  (the norm of the test charge is              1.0000)
       1 -42.2623       2 -42.5217       3 -42.4973       4 -44.7029       5 -42.2458
       6 -41.9056       7 -41.8349       8 -41.9812       9 -43.6463      10 -41.8282
      11 -41.8082      12 -42.1105      13 -59.0326      14 -61.3744      15 -59.8942
      16 -58.6183      17 -60.7913      18 -59.2047      19 -74.6748      20 -74.0469
      21 -79.8632      22 -79.3839
 
 
 
 E-fermi :  -4.4841     XC(G=0):  -0.1535     alpha+bet : -0.0465


 k-point     1 :       0.2500    0.2500    0.2500
  band No.  band energies     occupation 
      1     -26.1216      2.00000
      2     -25.6177      2.00000
      3     -23.3711      2.00000
      4     -22.7627      2.00000
      5     -19.5536      2.00000
      6     -18.2034      2.00000
      7     -17.5717      2.00000
      8     -15.7587      2.00000
      9     -14.9004      2.00000
     10     -14.0916      2.00000
     11     -13.1257      2.00000
     12     -12.2160      2.00000
     13     -11.9911      2.00000
     14     -11.3566      2.00000
     15     -11.0909      2.00000
     16     -10.7375      2.00000
     17     -10.2169      2.00000
     18     -10.1237      2.00000
     19      -9.8999      2.00000
     20      -9.5532      2.00000
     21      -9.3865      2.00000
     22      -9.1569      2.00000
     23      -9.0644      2.00000
     24      -8.8207      2.00000
     25      -8.5718      2.00000
     26      -6.7649      2.00000
     27      -6.1493      2.00000
     28      -5.9141      2.00000
     29      -5.4808      2.00000
     30      -1.0440      0.00000
     31      -0.8662      0.00000
     32      -0.5069      0.00000
     33      -0.3304      0.00000
     34      -0.1928      0.00000
     35      -0.0672      0.00000
     36       0.0163      0.00000
     37       0.0980      0.00000
     38       0.1071      0.00000
     39       0.1106      0.00000
     40       0.1589      0.00000
     41       0.1823      0.00000

 k-point     2 :      -0.2500    0.2500    0.2500
  band No.  band energies     occupation 
      1     -26.1216      2.00000
      2     -25.6177      2.00000
      3     -23.3711      2.00000
      4     -22.7627      2.00000
      5     -19.5536      2.00000
      6     -18.2034      2.00000
      7     -17.5717      2.00000
      8     -15.7587      2.00000
      9     -14.9004      2.00000
     10     -14.0916      2.00000
     11     -13.1257      2.00000
     12     -12.2160      2.00000
     13     -11.9911      2.00000
     14     -11.3566      2.00000
     15     -11.0909      2.00000
     16     -10.7375      2.00000
     17     -10.2169      2.00000
     18     -10.1237      2.00000
     19      -9.8999      2.00000
     20      -9.5532      2.00000
     21      -9.3865      2.00000
     22      -9.1569      2.00000
     23      -9.0644      2.00000
     24      -8.8207      2.00000
     25      -8.5718      2.00000
     26      -6.7649      2.00000
     27      -6.1494      2.00000
     28      -5.9141      2.00000
     29      -5.4807      2.00000
     30      -1.0439      0.00000
     31      -0.8662      0.00000
     32      -0.5069      0.00000
     33      -0.3304      0.00000
     34      -0.1928      0.00000
     35      -0.0685      0.00000
     36       0.0239      0.00000
     37       0.0886      0.00000
     38       0.0994      0.00000
     39       0.1168      0.00000
     40       0.1596      0.00000
     41       0.1702      0.00000

 k-point     3 :       0.2500   -0.2500    0.2500
  band No.  band energies     occupation 
      1     -26.1216      2.00000
      2     -25.6177      2.00000
      3     -23.3711      2.00000
      4     -22.7627      2.00000
      5     -19.5536      2.00000
      6     -18.2034      2.00000
      7     -17.5717      2.00000
      8     -15.7587      2.00000
      9     -14.9004      2.00000
[...]
 augmentation part        2.5820615 magnetization 

 Free energy of the ion-electron system (eV)
  ---------------------------------------------------
  alpha Z        PSCENC =         0.51957394
  Ewald energy   TEWEN  =      6071.44026853
  -Hartree energ DENC   =     -8075.00637190
  -exchange      EXHF   =         0.00000000
  -V(xc)+E(xc)   XCENC  =       214.09068110
  PAW double counting   =      4787.81199646    -4799.03031578
  entropy T*S    EENTRO =         0.00000000
  eigenvalues    EBANDS =      -755.34188961
  atomic energy  EATOM  =      2425.98333211
  Solvation  Ediel_sol  =         0.00000000
  ---------------------------------------------------
  free energy    TOTEN  =      -129.53272516 eV

  energy without entropy =     -129.53272516  energy(sigma->0) =     -129.53272516


--------------------------------------------------------------------------------------------------------




 average (electrostatic) potential at core
  the test charge radii are     0.5201  0.6991  0.7089  0.7215
  (the norm of the test charge is              1.0000)
       1 -42.2722       2 -42.5298       3 -42.5053       4 -44.7144       5 -42.2620
       6 -41.9024       7 -41.8397       8 -41.9806       9 -43.6165      10 -41.8130
      11 -41.8048      12 -42.0975      13 -59.0446      14 -61.3905      15 -59.9084
      16 -58.6224      17 -60.7949      18 -59.1999      19 -74.6916      20 -74.0406
      21 -79.8774      22 -79.3794
 
 
 
 E-fermi :  -4.4748     XC(G=0):  -0.1325     alpha+bet : -0.0465


 k-point     1 :       0.2500    0.2500    0.2500
  band No.  band energies     occupation 
      1     -26.1346      2.00000
      2     -25.6028      2.00000
      3     -23.3867      2.00000
      4     -22.7558      2.00000
      5     -19.5583      2.00000
      6     -18.2079      2.00000
      7     -17.5681      2.00000
      8     -15.7657      2.00000
      9     -14.9100      2.00000
     10     -14.0884      2.00000
     11     -13.1311      2.00000
     12     -12.2298      2.00000
     13     -11.9956      2.00000
     14     -11.3461      2.00000
     15     -11.1025      2.00000
     16     -10.7346      2.00000
     17     -10.2209      2.00000
     18     -10.1198      2.00000
     19      -9.9134      2.00000
     20      -9.5575      2.00000
     21      -9.3884      2.00000
     22      -9.1500      2.00000
     23      -9.0648      2.00000
     24      -8.8310      2.00000
     25      -8.5751      2.00000
     26      -6.7753      2.00000
     27      -6.1570      2.00000
     28      -5.9161      2.00000
     29      -5.4836      2.00000
     30      -1.0685      0.00000
     31      -0.8698      0.00000
     32      -0.4988      0.00000
     33      -0.3249      0.00000
     34      -0.2010      0.00000
     35      -0.0720      0.00000
     36       0.0403      0.00000
     37       0.1216      0.00000
     38       0.1300      0.00000
     39       0.1349      0.00000
     40       0.1787      0.00000
     41       0.1952      0.00000

 k-point     2 :      -0.2500    0.2500    0.2500
  band No.  band energies     occupation 
      1     -26.1346      2.00000
      2     -25.6028      2.00000
      3     -23.3867      2.00000
      4     -22.7558      2.00000
      5     -19.5583      2.00000
      6     -18.2079      2.00000
      7     -17.5681      2.00000
      8     -15.7657      2.00000
      9     -14.9100      2.00000
     10     -14.0884      2.00000
     11     -13.1311      2.00000
     12     -12.2298      2.00000
     13     -11.9956      2.00000
     14     -11.3460      2.00000
     15     -11.1025      2.00000
     16     -10.7346      2.00000
     17     -10.2209      2.00000
     18     -10.1198      2.00000
     19      -9.9134      2.00000
     20      -9.5575      2.00000
     21      -9.3884      2.00000
     22      -9.1500      2.00000
     23      -9.0648      2.00000
     24      -8.8310      2.00000
     25      -8.5751      2.00000
     26      -6.7753      2.00000
     27      -6.1571      2.00000
     28      -5.9161      2.00000
     29      -5.4836      2.00000
     30      -1.0685      0.00000
     31      -0.8698      0.00000
     32      -0.4988      0.00000
     33      -0.3249      0.00000
     34      -0.2010      0.00000
     35      -0.0727      0.00000
     36       0.0469      0.00000
     37       0.1115      0.00000
     38       0.1218      0.00000
     39       0.1420      0.00000
     40       0.1800      0.00000
     41       0.1911      0.00000

 k-point     3 :       0.2500   -0.2500    0.2500
  band No.  band energies     occupation 
      1     -26.1346      2.00000
      2     -25.6028      2.00000
      3     -23.3867      2.00000
      4     -22.7558      2.00000
      5     -19.5583      2.00000
      6     -18.2079      2.00000
      7     -17.5681      2.00000
      8     -15.7657      2.00000
      9     -14.9100      2.00000
     10     -14.0884      2.00000
     11     -13.1311      2.00000
     12     -12.2298      2.00000
     13     -11.9956      2.00000
     14     -11.3460      2.00000
     15     -11.1025      2.00000
     16     -10.7346      2.00000
     17     -10.2209      2.00000
     18     -10.1198      2.00000
     19      -9.9134      2.00000
     20      -9.5575      2.00000
     21      -9.3884      2.00000
     22      -9.1500      2.00000
     23      -9.0648      2.00000
     24      -8.8310      2.00000
     25      -8.5751      2.00000
     26      -6.7753      2.00000
     27      -6.1570      2.00000
     28      -5.9161      2.00000
     29      -5.4836      2.00000
     30      -1.0685      0.00000
     31      -0.8698      0.00000
     32      -0.4988      0.00000
     33      -0.3249      0.00000
     34      -0.2011      0.00000
     35      -0.0719      0.00000
     36       0.0452      0.00000
     37       0.1070      0.00000
     38       0.1312      0.00000
     39       0.1374      0.00000
     40       0.1756      0.00000
     41       0.1969      0.00000

 k-point     4 :      -0.2500   -0.2500    0.2500
  band No.  band energies     occupation 
      1     -26.1346      2.00000
      2     -25.6028      2.00000
      3     -23.3867      2.00000
      4     -22.7558      2.00000
      5     -19.5583      2.00000
      6     -18.2079      2.00000
      7     -17.5681      2.00000
      8     -15.7657      2.00000
      9     -14.9100      2.00000
     10     -14.0884      2.00000
     11     -13.1311      2.00000
     12     -12.2298      2.00000
     13     -11.9956      2.00000
     14     -11.3460      2.00000
     15     -11.1025      2.00000
     16     -10.7346      2.00000
     17     -10.2209      2.00000
     18     -10.1198      2.00000
     19      -9.9134      2.00000
     20      -9.5575      2.00000
     21      -9.3884      2.00000
     22      -9.1500      2.00000
     23      -9.0648      2.00000
     24      -8.8310      2.00000
     25      -8.5751      2.00000
     26      -6.7754      2.00000
     27      -6.1570      2.00000
     28      -5.9161      2.00000
     29      -5.4836      2.00000
     30      -1.0685      0.00000
     31      -0.8698      0.00000
     32      -0.4988      0.00000
     33      -0.3249      0.00000
     34      -0.2011      0.00000
     35      -0.0724      0.00000
     36       0.0461      0.00000
     37       0.1125      0.00000
     38       0.1285      0.00000
     39       0.1312      0.00000
     40       0.1823      0.00000
     41       0.1979      0.00000


--------------------------------------------------------------------------------------------------------


 soft charge-density along one line, spin component           1
         0         1         2         3         4         5         6         7         8         9
 total charge-density along one line
 
 pseudopotential strength for first ion, spin component:           1
 -2.352  -4.054   0.002   0.000  -0.001
 -4.054  -6.903   0.005   0.000  -0.002
  0.002   0.005  -0.332   0.000  -0.002
  0.000   0.000   0.000  -0.336   0.000
 -0.001  -0.002  -0.002   0.000  -0.336
 total augmentation occupancy for first ion, spin component:           1
  3.533  -0.636  -0.409   0.001   0.170
 -0.636   0.129   0.075   0.000  -0.031
 -0.409   0.075   0.049   0.000  -0.017
  0.001   0.000   0.000   0.009   0.000
  0.170  -0.031  -0.017   0.000   0.015


------------------------ aborting loop because EDIFF is reached ----------------------------------------


    CHARGE:  cpu time   16.9744: real time   16.9602
    FORLOC:  cpu time    5.8141: real time    5.8083
    FORNL :  cpu time   61.6236: real time   61.5734
    STRESS:  cpu time  184.7119: real time  184.5581
    FORCOR:  cpu time   23.7574: real time   23.7385
    FORHAR:  cpu time   10.5464: real time   10.5371
    MIXING:  cpu time    0.7709: real time    0.7693
    OFIELD:  cpu time    0.0000: real time    0.0000

  FORCE on cell =-STRESS in cart. coord.  units (eV):
  Direction    XX          YY          ZZ          XY          YZ          ZX
  --------------------------------------------------------------------------------------
  Alpha Z     0.51957     0.51957     0.51957
  Ewald    2527.86700  2481.08037  1062.49167  -246.95973  -224.63405  -993.49408
  Hartree  3166.63792  2931.86278  1976.50538  -216.87494  -260.95356  -816.79152
  E(xc)    -230.47870  -229.27975  -231.35806    -0.12689     0.52931    -0.70893
  Local   -6311.21330 -5993.21565 -3665.22942   464.71038   511.50996  1799.88022
  n-local  -132.08931  -134.97091  -132.95925     0.16045    -2.30520     0.71685
  augment    14.82810    13.98887    14.54694    -0.26429    -0.99942     0.02447
  Kinetic   960.08492   926.63217   971.68759    -0.71919   -23.02708    10.35845
  Fock        0.00000     0.00000     0.00000     0.00000     0.00000     0.00000
  -------------------------------------------------------------------------------------
  Total      -3.84380    -3.38256    -3.79558    -0.07421     0.11995    -0.01453
  in kB      -0.22809    -0.20072    -0.22523    -0.00440     0.00712    -0.00086
  external pressure =       -0.22 kB  Pullay stress =        0.00 kB


 VOLUME and BASIS-vectors are now :
 -----------------------------------------------------------------------------
  energy-cutoff  :      400.00
  volume of cell :    27000.00
      direct lattice vectors                 reciprocal lattice vectors
    30.000000000  0.000000000  0.000000000     0.033333333  0.000000000  0.000000000
     0.000000000 30.000000000  0.000000000     0.000000000  0.033333333  0.000000000
     0.000000000  0.000000000 30.000000000     0.000000000  0.000000000  0.033333333

  length of vectors
    30.000000000 30.000000000 30.000000000     0.033333333  0.033333333  0.033333333


 FORCES acting on ions
    electron-ion (+dipol)            ewald-force                    non-local-force                 convergence-correction
 -----------------------------------------------------------------------------------------------
   0.614E+02 -.611E+02 0.711E-01   -.635E+02 0.663E+02 -.863E-01   0.218E+01 -.524E+01 0.380E-02   -.432E-06 -.558E-04 0.931E-05
   0.570E+02 0.278E+02 0.548E+02   -.586E+02 -.304E+02 -.594E+02   0.163E+01 0.258E+01 0.456E+01   0.447E-05 -.696E-05 -.782E-05
   0.595E+02 0.301E+02 -.541E+02   -.616E+02 -.328E+02 0.584E+02   0.209E+01 0.269E+01 -.429E+01   0.829E-05 0.437E-05 -.184E-04
   0.637E+02 0.907E+02 0.281E+02   -.673E+02 -.967E+02 -.303E+02   0.367E+01 0.602E+01 0.224E+01   -.184E-04 0.311E-04 -.660E-05
   -.363E+02 -.290E+02 -.869E+02   0.376E+02 0.324E+02 0.913E+02   -.128E+01 -.339E+01 -.437E+01   -.274E-04 -.503E-04 -.361E-04
   -.743E+02 0.386E+02 -.320E+02   0.798E+02 -.391E+02 0.329E+02   -.548E+01 0.492E+00 -.904E+00   0.705E-05 0.294E-05 0.792E-05
   0.623E+01 0.812E+02 0.349E+02   -.723E+01 -.845E+02 -.392E+02   0.996E+00 0.334E+01 0.431E+01   -.260E-04 -.281E-04 -.445E-04
   0.198E+02 0.534E+02 -.689E+02   -.224E+02 -.551E+02 0.733E+02   0.266E+01 0.177E+01 -.447E+01   -.116E-04 0.984E-05 -.126E-05
   0.185E+02 -.787E+02 -.373E+02   -.229E+02 0.823E+02 0.418E+02   0.441E+01 -.368E+01 -.452E+01   -.663E-05 -.709E-04 -.761E-04
   -.814E+02 -.302E+01 0.325E+02   0.865E+02 0.809E+00 -.333E+02   -.515E+01 0.222E+01 0.826E+00   -.169E-04 -.725E-04 -.439E-04
   0.178E+02 -.174E+02 0.823E+02   -.206E+02 0.167E+02 -.870E+02   0.276E+01 0.668E+00 0.475E+01   0.215E-04 -.649E-04 0.506E-04
   -.223E+02 -.844E+02 0.744E+01   0.228E+02 0.899E+02 -.637E+01   -.505E+00 -.552E+01 -.107E+01   -.291E-04 -.231E-04 -.321E-04
   0.226E+03 -.758E+01 -.141E+01   -.227E+03 0.859E+01 0.133E+01   0.846E+00 -.100E+01 0.838E-01   0.593E-04 0.281E-04 0.451E-04
   0.181E+03 -.254E+01 -.203E+02   -.186E+03 0.290E+01 0.199E+02   0.502E+01 -.351E+00 0.361E+00   -.245E-03 -.385E-03 -.860E-04
   -.689E+02 0.602E+02 -.120E+03   0.747E+02 -.607E+02 0.121E+03   -.577E+01 0.486E+00 -.111E+01   -.134E-03 0.505E-04 -.199E-04
   -.601E+02 0.208E+03 -.100E+03   0.605E+02 -.209E+03 0.100E+03   -.464E+00 0.110E+01 0.500E-01   -.296E-04 0.810E-04 0.149E-03
   -.473E+02 0.138E+02 -.130E+02   0.449E+02 -.156E+02 0.164E+02   0.243E+01 0.186E+01 -.340E+01   -.203E-03 0.128E-03 -.304E-04
   -.108E+03 -.153E+03 0.154E+03   0.111E+03 0.155E+03 -.158E+03   -.258E+01 -.191E+01 0.429E+01   -.285E-03 -.384E-03 -.267E-03
   0.138E+03 0.172E+03 0.309E+01   -.136E+03 -.173E+03 -.291E+01   -.210E+01 0.495E+00 -.190E+00   -.232E-03 0.310E-04 0.956E-04
   -.750E+02 -.208E+03 0.779E+01   0.776E+02 0.211E+03 -.470E+01   -.265E+01 -.301E+01 -.309E+01   -.490E-03 -.274E-03 -.400E-03
   0.712E+01 -.378E+03 -.172E+03   0.139E+02 0.424E+03 0.186E+03   -.210E+02 -.453E+02 -.137E+02   -.336E-03 -.755E-03 -.286E-03
   -.239E+03 0.259E+03 0.287E+03   0.263E+03 -.292E+03 -.321E+03   -.243E+02 0.333E+02 0.338E+02   -.217E-03 0.129E-03 0.189E-04
 -----------------------------------------------------------------------------------------------
   0.426E+02 0.124E+02 -.142E+02   0.000E+00 -.568E-13 -.114E-12   -.426E+02 -.124E+02 0.142E+02   -.221E-02 -.168E-02 -.980E-03
 
 
 POSITION                                       TOTAL-FORCE (eV/Angst)
 -----------------------------------------------------------------------------------
     11.45470     16.43565     15.57159         0.005543      0.004981     -0.010575
     11.57011     14.89573     14.66316         0.003629     -0.002962      0.002280
     11.47083     14.87683     16.43841         0.000628      0.011620      0.001659
     13.56313     13.54523     15.14658         0.002284      0.002282     -0.002485
     15.76444     14.89969     16.50363         0.002559     -0.004607      0.001283
     16.95827     12.71714     16.16456        -0.000857     -0.005758     -0.000001
     15.65338     12.14063     15.12574        -0.000596     -0.001620     -0.002121
     15.33757     12.45651     16.86790        -0.001507     -0.003397     -0.003309
     15.69039     16.62891     14.93528        -0.003538     -0.002220      0.001888
     17.95939     16.34929     13.03793        -0.007300      0.000359     -0.004003
     16.39591     16.64343     12.24729        -0.009626      0.003199      0.002488
     17.04272     17.84206     13.41052        -0.005053      0.000233      0.001423
     11.87920     15.42627     15.57609         0.003021      0.003055     -0.001972
     13.38718     15.52407     15.68975         0.004031      0.003479      0.001939
     15.51758     14.24113     15.65439         0.002242     -0.002948     -0.000165
     15.88030     12.80037     15.97569        -0.000803     -0.001292     -0.000616
     16.30112     14.75542     14.41659        -0.005962      0.013864      0.013974
     16.95596     16.77125     13.18853        -0.006590      0.000658      0.001823
     14.07189     14.37068     15.45302         0.002631     -0.000299      0.000033
     16.30837     16.10717     14.30403        -0.000140     -0.005214     -0.001074
     13.96712     16.57902     16.00376         0.001871     -0.004089      0.003570
     16.87044     13.99356     13.62548         0.013532     -0.009324     -0.006039
 -----------------------------------------------------------------------------------
    total drift:                                0.010491      0.003298     -0.018108


--------------------------------------------------------------------------------------------------------



  FREE ENERGIE OF THE ION-ELECTRON SYSTEM (eV)
  ---------------------------------------------------
  free  energy   TOTEN  =      -129.53272516 eV

  energy  without entropy=     -129.53272516  energy(sigma->0) =     -129.53272516
 
 d Force = 0.2779057E-04[ 0.227E-04, 0.329E-04]  d Energy = 0.2770943E-04 0.811E-07
 d Force =-0.6750596E-01[-0.674E-01,-0.677E-01]  d Ewald  =-0.6750596E-01-0.289E-08


--------------------------------------------------------------------------------------------------------


    POTLOK:  cpu time   21.4737: real time   21.4574


--------------------------------------------------------------------------------------------------------


 NEB: the previous image is higher in energy: F
 NEB: the next image is higher in energy    : T
 NEB: only next energy greater

 NEB: Tangent
 ----------------------------------------------
     -0.04134     -0.06483     -0.07556
      0.00110     -0.01214     -0.15272
     -0.06113     -0.10824     -0.16199
     -0.00156     -0.01059     -0.19268
     -0.08191     -0.12935      0.01528
     -0.05488     -0.09024     -0.11663
      0.00053      0.00664     -0.22399
     -0.08608     -0.14650     -0.22387
     -0.01688      0.00247      0.16221
      0.11377      0.18432      0.32508
      0.17636      0.20669      0.22294
      0.04507      0.13196      0.35067
     -0.03487     -0.06130     -0.11583
     -0.04159     -0.06157     -0.05220
     -0.03304     -0.04989     -0.05045
     -0.04406     -0.07149     -0.16087
      0.03392      0.05638      0.04938
      0.09412      0.15034      0.27069
     -0.02099     -0.03368     -0.11382
      0.02557      0.05921      0.16197
     -0.06583     -0.08733      0.05261
      0.09372      0.12912      0.02988

 NEB: forces: par spring, perp REAL, dneb     0.003197    0.039845    0.000000
 NEB: distance to prev, next image, angle between     1.333751    1.333111  168.886757
 NEB: projections on to tangent (spring, REAL)    -0.003197    0.000518

 stress matrix after NEB project (eV)
     -3.84380     -0.07421     -0.01453
     -0.07421     -3.38256      0.11995
     -0.01453      0.11995     -3.79558
  FORCES: max atom, RMS     0.020339    0.008522
  FORCE total and by dimension    0.039973    0.013791
  Stress total and by dimension    6.376766    3.843798
 OPT: skip step - force has converged


--------------------------------------------------------------------------------------------------------


  
 reached required accuracy - stopping structural energy minimisation
     LOOP+:  cpu time 1818.4326: real time 1816.9679
    4ORBIT:  cpu time    0.0000: real time    0.0000

 total amount of memory used by VASP on root node  4333716. kBytes
========================================================================

   base      :      30000. kBytes
   nonlr-proj:       2411. kBytes
   fftplans  :     924480. kBytes
   grid      :    2089440. kBytes
   one-center:         67. kBytes
   wavefun   :    1287318. kBytes
 
  
  
 General timing and accounting informations for this job:
 ========================================================
  
                  Total CPU time used (sec):   226714.766
                            User time (sec):   225264.479
                          System time (sec):     1450.293
                         Elapsed time (sec):   226579.200
  
                   Maximum memory used (kb):     5901988.
                   Average memory used (kb):           0.
  
                          Minor page faults:    318758300
                          Major page faults:            9
                 Voluntary context switches:        13665
