unknown system                          
           1
    30.000000    0.000000    0.000000
     0.000000   30.000000    0.000000
     0.000000    0.000000   30.000000
   H    C    N    O 
  12   6   2   2
Direct configuration=     1
   0.38069532  0.54690506  0.52077514
   0.38477565  0.49695366  0.48836030
   0.38203717  0.49375684  0.54748063
   0.45158248  0.45079380  0.50542502
   0.52468388  0.49725502  0.54941175
   0.56540998  0.42486821  0.53820626
   0.52191794  0.40511382  0.50388520
   0.51164012  0.41551242  0.56204844
   0.52383462  0.55462823  0.49813343
   0.60044384  0.54545056  0.43646412
   0.54913983  0.55496850  0.40850847
   0.56930381  0.59502340  0.44793709
   0.39517532  0.51343092  0.51941706
   0.44546081  0.51704437  0.52259226
   0.51668466  0.47495758  0.52131733
   0.52939850  0.42716146  0.53218562
   0.54273686  0.49206293  0.48001467
   0.56677976  0.55932912  0.44043734
   0.46845069  0.47868219  0.51474411
   0.54413720  0.53712063  0.47693898
   0.46472925  0.55237295  0.53257168
   0.56098233  0.46660933  0.45314299
Direct configuration=     2
   0.38070767  0.54692386  0.52077881
   0.38476858  0.49694803  0.48838016
   0.38205390  0.49378723  0.54750714
   0.45158785  0.45080350  0.50545399
   0.52470846  0.49726582  0.54942371
   0.56541988  0.42487526  0.53823468
   0.52191979  0.40509800  0.50392779
   0.51165369  0.41554013  0.56208995
   0.52382336  0.55464120  0.49810533
   0.60042599  0.54541243  0.43639128
   0.54908980  0.55492990  0.40845886
   0.56928794  0.59500333  0.44786806
   0.39518440  0.51344440  0.51943446
   0.44547107  0.51705690  0.52262130
   0.51669368  0.47496990  0.52132708
   0.52940729  0.42716561  0.53221516
   0.54272815  0.49206676  0.48001540
   0.56674731  0.55929804  0.44039494
   0.46845993  0.47869491  0.51475905
   0.54414186  0.53711005  0.47690848
   0.46474005  0.55239451  0.53256469
   0.56097936  0.46657122  0.45313755
Direct configuration=     3
   0.38072533  0.54694858  0.52078248
   0.38476089  0.49694203  0.48841026
   0.38207535  0.49382831  0.54754399
   0.45159584  0.45081786  0.50549205
   0.52474160  0.49727767  0.54944023
   0.56543275  0.42488341  0.53827335
   0.52192291  0.40507619  0.50398631
   0.51167122  0.41557747  0.56214571
   0.52381580  0.55465186  0.49805824
   0.60039352  0.54536396  0.43629361
   0.54902335  0.55487867  0.40839819
   0.56926481  0.59497388  0.44777580
   0.39519607  0.51346347  0.51945397
   0.44548358  0.51707095  0.52265520
   0.51670768  0.47498514  0.52134259
   0.52941910  0.42717276  0.53225151
   0.54274119  0.49203153  0.47998492
   0.56671355  0.55925620  0.44032432
   0.46847180  0.47871450  0.51478069
   0.54413272  0.53711094  0.47688470
   0.46475597  0.55242548  0.53255799
   0.56095498  0.46655013  0.45316175
Direct configuration=     4
   0.38074806  0.54697677  0.52078364
   0.38475480  0.49693717  0.48845001
   0.38209862  0.49387768  0.54758780
   0.45160701  0.45083823  0.50553450
   0.52478169  0.49728644  0.54945931
   0.56544676  0.42488981  0.53831939
   0.52192750  0.40504870  0.50405609
   0.51169108  0.41562060  0.56220857
   0.52380782  0.55466093  0.49799880
   0.60034519  0.54531069  0.43618023
   0.54894587  0.55482049  0.40833588
   0.56923569  0.59493457  0.44766755
   0.39520880  0.51348634  0.51947174
   0.44549926  0.51709250  0.52268668
   0.51672865  0.47499576  0.52136170
   0.52943055  0.42718290  0.53229181
   0.54274904  0.49200490  0.47996724
   0.56668038  0.55921241  0.44023026
   0.46848755  0.47873877  0.51480784
   0.54411846  0.53710681  0.47686151
   0.46477245  0.55245802  0.53255484
   0.56093477  0.46652051  0.45318246
Direct configuration=     5
   0.38077314  0.54700471  0.52077936
   0.38475145  0.49693336  0.48849149
   0.38211994  0.49393002  0.54762982
   0.45162093  0.45086416  0.50557259
   0.52482399  0.49728682  0.54947832
   0.56545795  0.42489111  0.53836579
   0.52193312  0.40501792  0.50412583
   0.51170980  0.41566228  0.56226590
   0.52379186  0.55467273  0.49794327
   0.60029069  0.54525981  0.43606881
   0.54886658  0.55476523  0.40828134
   0.56920481  0.59489181  0.44755998
   0.39522164  0.51350974  0.51948762
   0.44551621  0.51712090  0.52270702
   0.51675330  0.47499798  0.52138041
   0.52943991  0.42719165  0.53233106
   0.54273418  0.49202038  0.47999322
   0.56664235  0.55917453  0.44013957
   0.46850748  0.47876278  0.51483626
   0.54411750  0.53708584  0.47682344
   0.46478528  0.55248576  0.53255917
   0.56093790  0.46647148  0.45317752
Direct configuration=     6
   0.38077341  0.54700471  0.52077804
   0.38475186  0.49693331  0.48849103
   0.38211953  0.49393055  0.54762901
   0.45162142  0.45086512  0.50557115
   0.52482423  0.49728470  0.54947861
   0.56545714  0.42488989  0.53836555
   0.52193332  0.40501733  0.50412526
   0.51170922  0.41566171  0.56226442
   0.52379124  0.55467267  0.49794343
   0.60029026  0.54526043  0.43606969
   0.54886617  0.55476613  0.40828271
   0.56920450  0.59489211  0.44756115
   0.39522195  0.51350984  0.51948750
   0.44551613  0.51712091  0.52270488
   0.51675329  0.47499759  0.52138063
   0.52944000  0.42719056  0.53233039
   0.54273647  0.49201779  0.47999235
   0.56664122  0.55917476  0.44014179
   0.46850801  0.47876285  0.51483627
   0.54411840  0.53708685  0.47682240
   0.46478500  0.55248572  0.53256088
   0.56093724  0.46647549  0.45318069
Direct configuration=     7
   0.38077398  0.54700472  0.52077539
   0.38475266  0.49693320  0.48849014
   0.38211873  0.49393161  0.54762742
   0.45162240  0.45086701  0.50556827
   0.52482475  0.49728049  0.54947923
   0.56545557  0.42488744  0.53836511
   0.52193370  0.40501609  0.50412413
   0.51170805  0.41566057  0.56226151
   0.52379007  0.55467248  0.49794365
   0.60028933  0.54526166  0.43607137
   0.54886534  0.55476792  0.40828544
   0.56920388  0.59489270  0.44756344
   0.39522257  0.51351006  0.51948715
   0.44551610  0.51712105  0.52270074
   0.51675333  0.47499674  0.52138102
   0.52944010  0.42718844  0.53232907
   0.54274044  0.49201375  0.47999142
   0.56663907  0.55917528  0.44014594
   0.46850905  0.47876304  0.51483627
   0.54411997  0.53708862  0.47682066
   0.46478439  0.55248556  0.53256425
   0.56093652  0.46648260  0.45318617
Direct configuration=     8
   0.38077487  0.54700479  0.52077138
   0.38475388  0.49693304  0.48848892
   0.38211757  0.49393325  0.54762519
   0.45162387  0.45086982  0.50556391
   0.52482565  0.49727427  0.54948030
   0.56545337  0.42488372  0.53836455
   0.52193426  0.40501413  0.50412246
   0.51170626  0.41565883  0.56225728
   0.52378847  0.55467203  0.49794368
   0.60028776  0.54526349  0.43607373
   0.54886396  0.55477056  0.40828947
   0.56920289  0.59489357  0.44756674
   0.39522350  0.51351042  0.51948636
   0.44551633  0.51712156  0.52269493
   0.51675354  0.47499526  0.52138153
   0.52944008  0.42718542  0.53232715
   0.54274499  0.49201038  0.47999197
   0.56663613  0.55917617  0.44015151
   0.46851060  0.47876340  0.51483624
   0.54412176  0.53709065  0.47681889
   0.46478337  0.55248512  0.53256918
   0.56093688  0.46649112  0.45319242
Direct configuration=     9
   0.38077613  0.54700503  0.52076612
   0.38475547  0.49693285  0.48848755
   0.38211615  0.49393553  0.54762259
   0.45162580  0.45087345  0.50555825
   0.52482707  0.49726636  0.54948195
   0.56545081  0.42487884  0.53836404
   0.52193497  0.40501138  0.50412040
   0.51170391  0.41565657  0.56225211
   0.52378663  0.55467122  0.49794319
   0.60028537  0.54526581  0.43607641
   0.54886186  0.55477386  0.40829453
   0.56920148  0.59489463  0.44757071
   0.39522473  0.51351095  0.51948489
   0.44551699  0.51712267  0.52268806
   0.51675407  0.47499304  0.52138205
   0.52943981  0.42718174  0.53232474
   0.54274884  0.49200995  0.47999547
   0.56663276  0.55917745  0.44015757
   0.46851262  0.47876403  0.51483619
   0.54412311  0.53709234  0.47681797
   0.46478192  0.55248434  0.53257538
   0.56093949  0.46649898  0.45319763
Direct configuration=    10
   0.38077778  0.54700560  0.52075981
   0.38475734  0.49693263  0.48848628
   0.38211462  0.49393854  0.54761997
   0.45162812  0.45087773  0.50555163
   0.52482914  0.49725726  0.54948433
   0.56544818  0.42487300  0.53836380
   0.52193577  0.40500785  0.50411824
   0.51170107  0.41565395  0.56224657
   0.52378471  0.55467005  0.49794190
   0.60028198  0.54526833  0.43607885
   0.54885878  0.55477743  0.40830014
   0.56919960  0.59489573  0.44757479
   0.39522634  0.51351176  0.51948258
   0.44551821  0.51712449  0.52268094
   0.51675505  0.47499015  0.52138259
   0.52943921  0.42717772  0.53232207
   0.54275140  0.49201332  0.48000222
   0.56662927  0.55917901  0.44016305
   0.46851501  0.47876501  0.51483615
   0.54412345  0.53709333  0.47681857
   0.46478017  0.55248331  0.53258245
   0.56094481  0.46650482  0.45320088
Direct configuration=    11
   0.38077992  0.54700668  0.52075262
   0.38475946  0.49693233  0.48848536
   0.38211324  0.49394250  0.54761775
   0.45163080  0.45088257  0.50554439
   0.52483204  0.49724741  0.54948764
   0.56544578  0.42486643  0.53836411
   0.52193663  0.40500348  0.50411636
   0.51169786  0.41565122  0.56224132
   0.52378267  0.55466866  0.49793958
   0.60027738  0.54527066  0.43608028
   0.54885425  0.55478080  0.40830571
   0.56919711  0.59489665  0.44757826
   0.39522834  0.51351298  0.51947942
   0.44552010  0.51712701  0.52267433
   0.51675659  0.47498676  0.52138324
   0.52943831  0.42717363  0.53231939
   0.54275298  0.49201965  0.48001126
   0.56662559  0.55918060  0.44016706
   0.46851771  0.47876645  0.51483622
   0.54412241  0.53709362  0.47682093
   0.46477840  0.55248237  0.53259004
   0.56095244  0.46650856  0.45320256
Direct configuration=    12
   0.38078300  0.54700877  0.52074381
   0.38476199  0.49693183  0.48848510
   0.38211221  0.49394847  0.54761627
   0.45163418  0.45088853  0.50553623
   0.52483656  0.49723619  0.54949261
   0.56544366  0.42485858  0.53836555
   0.52193763  0.40499764  0.50411530
   0.51169406  0.41564852  0.56223679
   0.52378004  0.55466725  0.49793563
   0.60027052  0.54527231  0.43607944
   0.54884673  0.55478350  0.40831088
   0.56919342  0.59489710  0.44758017
   0.39523112  0.51351504  0.51947524
   0.44552295  0.51713041  0.52266848
   0.51675911  0.47498282  0.52138435
   0.52943714  0.42716926  0.53231689
   0.54275489  0.49202721  0.48002158
   0.56662105  0.55918189  0.44016866
   0.46852107  0.47876875  0.51483664
   0.54411962  0.53709345  0.47682509
   0.46477687  0.55248211  0.53259872
   0.56096217  0.46651139  0.45320438
Direct configuration=    13
   0.38078733  0.54701237  0.52073356
   0.38476488  0.49693097  0.48848602
   0.38211209  0.49395731  0.54761629
   0.45163830  0.45089567  0.50552794
   0.52484319  0.49722425  0.54949957
   0.56544214  0.42484982  0.53836880
   0.52193871  0.40499017  0.50411613
   0.51168995  0.41564650  0.56223429
   0.52377620  0.55466650  0.49792992
   0.60026084  0.54527218  0.43607439
   0.54883486  0.55478431  0.40831426
   0.56918814  0.59489650  0.44757864
   0.39523485  0.51351831  0.51947064
   0.44552676  0.51713454  0.52266441
   0.51676282  0.47497894  0.52138635
   0.52943605  0.42716482  0.53231539
   0.54275883  0.49203212  0.48003022
   0.56661491  0.55918202  0.44016657
   0.46852517  0.47877212  0.51483783
   0.54411550  0.53709321  0.47682966
   0.46477631  0.55248352  0.53260815
   0.56097218  0.46651486  0.45320879
Direct configuration=    14
   0.38079325  0.54701804  0.52072211
   0.38476806  0.49692952  0.48848870
   0.38211354  0.49397009  0.54761869
   0.45164322  0.45090406  0.50552061
   0.52485256  0.49721242  0.54950873
   0.56544149  0.42484064  0.53837471
   0.52193982  0.40498098  0.50412026
   0.51168597  0.41564608  0.56223538
   0.52377031  0.55466719  0.49792236
   0.60024777  0.54526883  0.43606265
   0.54881694  0.55478172  0.40831404
   0.56918083  0.59489408  0.44757122
   0.39523984  0.51352331  0.51946661
   0.44553160  0.51713945  0.52266322
   0.51676797  0.47497578  0.52138977
   0.52943546  0.42716051  0.53231610
   0.54276566  0.49203136  0.48003511
   0.56660581  0.55917997  0.44015963
   0.46853028  0.47877677  0.51484040
   0.54411103  0.53709303  0.47683223
   0.46477745  0.55248761  0.53261791
   0.56098114  0.46651958  0.45321737
Direct configuration=    15
   0.38080136  0.54702660  0.52070964
   0.38477152  0.49692719  0.48849403
   0.38211743  0.49398840  0.54762462
   0.45164907  0.45091392  0.50551561
   0.52486559  0.49720170  0.54952029
   0.56544199  0.42483161  0.53838443
   0.52194087  0.40496987  0.50412963
   0.51168277  0.41564844  0.56224201
   0.52376141  0.55467005  0.49791249
   0.60023037  0.54526033  0.43604079
   0.54879057  0.55477369  0.40830788
   0.56917083  0.59488873  0.44755453
   0.39524659  0.51353079  0.51946456
   0.44553810  0.51714600  0.52266629
   0.51677498  0.47497395  0.52139522
   0.52943588  0.42715648  0.53232078
   0.54277441  0.49202494  0.48003677
   0.56659174  0.55917429  0.44014626
   0.46853685  0.47878301  0.51484521
   0.54410726  0.53709231  0.47682989
   0.46478108  0.55249522  0.53262749
   0.56098933  0.46652348  0.45322937
Direct configuration=    16
   0.38081212  0.54703861  0.52069557
   0.38477541  0.49692363  0.48850195
   0.38212435  0.49401356  0.54763421
   0.45165607  0.45092566  0.50551286
   0.52488288  0.49719208  0.54953455
   0.56544347  0.42482255  0.53839850
   0.52194176  0.40495662  0.50414484
   0.51168041  0.41565378  0.56225456
   0.52374865  0.55467528  0.49790036
   0.60020809  0.54524592  0.43600724
   0.54875417  0.55475962  0.40829490
   0.56915762  0.59488018  0.44752728
   0.39525522  0.51354111  0.51946516
   0.44554677  0.51715495  0.52267476
   0.51678438  0.47497292  0.52140339
   0.52943742  0.42715224  0.53233037
   0.54278222  0.49201764  0.48003938
   0.56657131  0.55916456  0.44012580
   0.46854549  0.47879111  0.51485243
   0.54410471  0.53709035  0.47682159
   0.46478746  0.55250632  0.53263684
   0.56100004  0.46652229  0.45324126
Direct configuration=    17
   0.38082604  0.54705455  0.52067889
   0.38478033  0.49691861  0.48851246
   0.38213454  0.49404665  0.54764738
   0.45166460  0.45093994  0.50551164
   0.52490484  0.49718306  0.54955162
   0.56544550  0.42481283  0.53841717
   0.52194240  0.40494117  0.50416600
   0.51167874  0.41566181  0.56227263
   0.52373260  0.55468159  0.49788478
   0.60017997  0.54522554  0.43596114
   0.54870665  0.55473958  0.40827524
   0.56914066  0.59486841  0.44748911
   0.39526578  0.51355448  0.51946820
   0.44555825  0.51716691  0.52268899
   0.51679649  0.47497216  0.52141443
   0.52944000  0.42714690  0.53234549
   0.54278663  0.49201574  0.48004739
   0.56654393  0.55915074  0.44009769
   0.46855674  0.47880145  0.51486223
   0.54410142  0.53708702  0.47680955
   0.46479673  0.55252029  0.53264628
   0.56101715  0.46651158  0.45324947
Direct configuration=    18
   0.38084377  0.54707485  0.52065755
   0.38478778  0.49691223  0.48852579
   0.38214757  0.49408862  0.54766404
   0.45167553  0.45095823  0.50550994
   0.52493160  0.49717298  0.54957170
   0.56544734  0.42480086  0.53844044
   0.52194269  0.40492370  0.50419258
   0.51167680  0.41567120  0.56229493
   0.52371523  0.55468597  0.49786345
   0.60014368  0.54520024  0.43590273
   0.54864704  0.55471469  0.40825088
   0.56911902  0.59485370  0.44744104
   0.39527889  0.51357129  0.51947154
   0.44557289  0.51718153  0.52270761
   0.51681154  0.47497057  0.52142889
   0.52944296  0.42713894  0.53236514
   0.54279284  0.49201587  0.48005623
   0.56651083  0.55913331  0.44006098
   0.46857098  0.47881453  0.51487486
   0.54409211  0.53708472  0.47680009
   0.46480965  0.55253682  0.53265732
   0.56103926  0.46649614  0.45326005
Direct configuration=    19
   0.38086538  0.54709880  0.52062852
   0.38480011  0.49690500  0.48854100
   0.38216134  0.49413829  0.54768250
   0.45168983  0.45098226  0.50550337
   0.52496175  0.49715846  0.54959460
   0.56544772  0.42478367  0.53846664
   0.52194241  0.40490470  0.50422078
   0.51167223  0.41567819  0.56231750
   0.52369592  0.55468728  0.49783900
   0.60009793  0.54517352  0.43583744
   0.54857744  0.55468907  0.40822798
   0.56909248  0.59483781  0.44738894
   0.39529545  0.51359158  0.51947135
   0.44559015  0.51719626  0.52272578
   0.51682936  0.47496672  0.52144575
   0.52944490  0.42712774  0.53238502
   0.54281123  0.49200575  0.48005677
   0.56647327  0.55911419  0.44001951
   0.46858772  0.47883015  0.51488993
   0.54407646  0.53708462  0.47679506
   0.46482639  0.55255462  0.53267322
   0.56106053  0.46649232  0.45328714
Direct configuration=    20
   0.38089034  0.54712464  0.52058848
   0.38481919  0.49689690  0.48855433
   0.38217313  0.49419331  0.54769810
   0.45170773  0.45101261  0.50548561
   0.52499289  0.49713544  0.54961925
   0.56544486  0.42475755  0.53849252
   0.52194085  0.40488415  0.50424300
   0.51166205  0.41567691  0.56233346
   0.52366870  0.55468783  0.49782179
   0.60004556  0.54515013  0.43577533
   0.54850250  0.55466943  0.40821429
   0.56906227  0.59482361  0.44734251
   0.39531499  0.51361349  0.51946538
   0.44561068  0.51721293  0.52273789
   0.51684934  0.47495835  0.52146088
   0.52944364  0.42711407  0.53240030
   0.54282717  0.49200717  0.48007654
   0.56642982  0.55909939  0.43998558
   0.46860762  0.47884572  0.51490553
   0.54406584  0.53707865  0.47678522
   0.46484430  0.55256822  0.53269720
   0.56109654  0.46649051  0.45331457
Direct configuration=    21
   0.38089071  0.54712464  0.52058661
   0.38482019  0.49689664  0.48855328
   0.38217263  0.49419376  0.54769692
   0.45170809  0.45101321  0.50548321
   0.52499263  0.49713381  0.54961944
   0.56544411  0.42475595  0.53849197
   0.52194060  0.40488399  0.50424113
   0.51166095  0.41567517  0.56233155
   0.52366818  0.55468713  0.49782290
   0.60004522  0.54515127  0.43577708
   0.54850239  0.55467112  0.40821633
   0.56906192  0.59482445  0.44734482
   0.39531540  0.51361352  0.51946465
   0.44561093  0.51721281  0.52273662
   0.51684928  0.47495807  0.52146062
   0.52944319  0.42711346  0.53239912
   0.54282769  0.49200738  0.48007839
   0.56642920  0.55910034  0.43998771
   0.46860802  0.47884555  0.51490520
   0.54406567  0.53707940  0.47678617
   0.46484443  0.55256750  0.53269867
   0.56109858  0.46649183  0.45331540
Direct configuration=    22
   0.38089148  0.54712467  0.52058290
   0.38482219  0.49689614  0.48855127
   0.38217167  0.49419472  0.54769468
   0.45170882  0.45101440  0.50547848
   0.52499219  0.49713064  0.54961987
   0.56544264  0.42475279  0.53849092
   0.52194010  0.40488368  0.50423749
   0.51165878  0.41567179  0.56232782
   0.52366712  0.55468578  0.49782506
   0.60004444  0.54515344  0.43578040
   0.54850205  0.55467438  0.40822029
   0.56906118  0.59482608  0.44734925
   0.39531623  0.51361362  0.51946313
   0.44561148  0.51721264  0.52273423
   0.51684920  0.47495747  0.52146017
   0.52944229  0.42711224  0.53239684
   0.54282887  0.49200780  0.48008181
   0.56642797  0.55910219  0.43999176
   0.46860876  0.47884526  0.51490457
   0.54406526  0.53708069  0.47678805
   0.46484468  0.55256611  0.53270156
   0.56110259  0.46649447  0.45331722
Direct configuration=    23
   0.38089270  0.54712484  0.52057738
   0.38482520  0.49689540  0.48854848
   0.38217034  0.49419630  0.54769159
   0.45170995  0.45101620  0.50547159
   0.52499165  0.49712614  0.54962064
   0.56544054  0.42474815  0.53848950
   0.52193934  0.40488326  0.50423233
   0.51165563  0.41566691  0.56232249
   0.52366544  0.55468390  0.49782818
   0.60004305  0.54515650  0.43578493
   0.54850121  0.55467899  0.40822587
   0.56905999  0.59482839  0.44735546
   0.39531751  0.51361386  0.51946075
   0.44561242  0.51721250  0.52273102
   0.51684917  0.47495646  0.52145967
   0.52944094  0.42711036  0.53239361
   0.54283089  0.49200849  0.48008632
   0.56642619  0.55910484  0.43999734
   0.46860980  0.47884489  0.51490367
   0.54406450  0.53708214  0.47679092
   0.46484514  0.55256414  0.53270575
   0.56110843  0.46649837  0.45332024
Direct configuration=    24
   0.38089450  0.54712529  0.52057010
   0.38482924  0.49689441  0.48854520
   0.38216876  0.49419873  0.54768795
   0.45171153  0.45101861  0.50546278
   0.52499123  0.49712058  0.54962192
   0.56543790  0.42474213  0.53848793
   0.52193834  0.40488275  0.50422607
   0.51165159  0.41566076  0.56231591
   0.52366306  0.55468161  0.49783210
   0.60004074  0.54516013  0.43579006
   0.54849940  0.55468458  0.40823261
   0.56905819  0.59483118  0.44736286
   0.39531929  0.51361434  0.51945744
   0.44561387  0.51721250  0.52272743
   0.51684928  0.47495492  0.52145931
   0.52943914  0.42710778  0.53238968
   0.54283393  0.49200950  0.48009136
   0.56642378  0.55910825  0.44000393
   0.46861107  0.47884454  0.51490258
   0.54406327  0.53708333  0.47679476
   0.46484596  0.55256177  0.53271110
   0.56111593  0.46650333  0.45332469
Direct configuration=    25
   0.38089704  0.54712627  0.52056111
   0.38483435  0.49689316  0.48854180
   0.38216717  0.49420239  0.54768421
   0.45171360  0.45102166  0.50545241
   0.52499119  0.49711436  0.54962389
   0.56543489  0.42473492  0.53848653
   0.52193710  0.40488218  0.50421928
   0.51164683  0.41565371  0.56230864
   0.52365986  0.55467907  0.49783653
   0.60003711  0.54516389  0.43579485
   0.54849592  0.55469059  0.40823983
   0.56905560  0.59483418  0.44737054
   0.39532167  0.51361522  0.51945325
   0.44561594  0.51721277  0.52272403
   0.51684971  0.47495277  0.52145933
   0.52943696  0.42710449  0.53238547
   0.54283804  0.49201086  0.48009650
   0.56642061  0.55911205  0.44001066
   0.46861256  0.47884434  0.51490147
   0.54406141  0.53708391  0.47679939
   0.46484741  0.55255933  0.53271744
   0.56112503  0.46650889  0.45333062
Direct configuration=    26
   0.38090052  0.54712810  0.52055061
   0.38484049  0.49689160  0.48853878
   0.38216590  0.49420782  0.54768096
   0.45171619  0.45102536  0.50544116
   0.52499189  0.49710809  0.54962671
   0.56543171  0.42472685  0.53848575
   0.52193559  0.40488155  0.50421282
   0.51164162  0.41564632  0.56230155
   0.52365575  0.55467640  0.49784098
   0.60003167  0.54516706  0.43579793
   0.54848991  0.55469618  0.40824654
   0.56905198  0.59483699  0.44737715
   0.39532476  0.51361677  0.51944851
   0.44561874  0.51721344  0.52272151
   0.51685066  0.47495010  0.52146001
   0.52943457  0.42710058  0.53238161
   0.54284295  0.49201244  0.48010156
   0.56641638  0.55911550  0.44001651
   0.46861437  0.47884449  0.51490061
   0.54405887  0.53708386  0.47680427
   0.46484980  0.55255731  0.53272447
   0.56113568  0.46651418  0.45333779
Direct configuration=    27
   0.38090556  0.54713137  0.52053782
   0.38484822  0.49688950  0.48853647
   0.38216527  0.49421625  0.54767864
   0.45171954  0.45103007  0.50542884
   0.52499387  0.49710184  0.54963077
   0.56542833  0.42471758  0.53848614
   0.52193367  0.40488077  0.50420719
   0.51163583  0.41563865  0.56229515
   0.52365029  0.55467344  0.49784517
   0.60002336  0.54516899  0.43579775
   0.54847965  0.55470078  0.40825218
   0.56904664  0.59483926  0.44738153
   0.39532902  0.51361951  0.51944341
   0.44562266  0.51721480  0.52272033
   0.51685247  0.47494694  0.52146176
   0.52943201  0.42709592  0.53237866
   0.54284866  0.49201395  0.48010706
   0.56641002  0.55911807  0.44002050
   0.46861687  0.47884522  0.51490041
   0.54405538  0.53708338  0.47680896
   0.46485381  0.55255610  0.53273253
   0.56114885  0.46651862  0.45334651
Direct configuration=    28
   0.38091250  0.54713660  0.52052301
   0.38485753  0.49688674  0.48853561
   0.38216583  0.49422868  0.54767817
   0.45172368  0.45103587  0.50541658
   0.52499768  0.49709639  0.54963613
   0.56542505  0.42470760  0.53848848
   0.52193130  0.40487972  0.50420374
   0.51162990  0.41563158  0.56229094
   0.52364341  0.55467023  0.49784816
   0.60001147  0.54516839  0.43579195
   0.54846372  0.55470300  0.40825528
   0.56903914  0.59484016  0.44738133
   0.39533469  0.51362391  0.51943885
   0.44562795  0.51721721  0.52272127
   0.51685571  0.47494371  0.52146512
   0.52942965  0.42709085  0.53237773
   0.54285477  0.49201455  0.48011303
   0.56640045  0.55911879  0.44002085
   0.46862038  0.47884683  0.51490149
   0.54405093  0.53708274  0.47681226
   0.46485991  0.55255632  0.53274126
   0.56116435  0.46652112  0.45335651
Direct configuration=    29
   0.38092187  0.54714449  0.52050637
   0.38486851  0.49688318  0.48853721
   0.38216820  0.49424638  0.54768072
   0.45172873  0.45104298  0.50540572
   0.52500402  0.49709258  0.54964287
   0.56542226  0.42469743  0.53849376
   0.52192840  0.40487829  0.50420413
   0.51162432  0.41562616  0.56229074
   0.52363501  0.55466679  0.49784876
   0.59999499  0.54516372  0.43577760
   0.54844027  0.55470117  0.40825412
   0.56902889  0.59483860  0.44737368
   0.39534211  0.51363060  0.51943590
   0.44563506  0.51722125  0.52272508
   0.51686074  0.47494100  0.52147059
   0.52942791  0.42708584  0.53238023
   0.54286114  0.49201324  0.48011941
   0.56638641  0.55911656  0.44001523
   0.46862532  0.47884962  0.51490473
   0.54404538  0.53708191  0.47681273
   0.46486868  0.55255857  0.53275032
   0.56118179  0.46652065  0.45336788
Direct configuration=    30
   0.38093431  0.54715595  0.52048798
   0.38488143  0.49687869  0.48854258
   0.38217309  0.49427102  0.54768774
   0.45173493  0.45105184  0.50539778
   0.52501377  0.49709137  0.54965106
   0.56542044  0.42468758  0.53850318
   0.52192490  0.40487633  0.50421032
   0.51161963  0.41562361  0.56229667
   0.52362497  0.55466308  0.49784544
   0.59997244  0.54515313  0.43575115
   0.54840690  0.55469330  0.40824672
   0.56901506  0.59483319  0.44735505
   0.39535179  0.51364036  0.51943565
   0.44564478  0.51722767  0.52273261
   0.51686790  0.47493944  0.52147873
   0.52942718  0.42708151  0.53238775
   0.54286811  0.49200869  0.48012575
   0.56636643  0.55911015  0.44000089
   0.46863224  0.47885402  0.51491122
   0.54403836  0.53708014  0.47680891
   0.46488076  0.55256348  0.53275941
   0.56120056  0.46651644  0.45338120
Direct configuration=    31
   0.38095063  0.54717200  0.52046771
   0.38489688  0.49687323  0.48855332
   0.38218109  0.49430443  0.54770086
   0.45174272  0.45106315  0.50539421
   0.52502784  0.49709347  0.54966074
   0.56542011  0.42467832  0.53851803
   0.52192072  0.40487373  0.50422435
   0.51161634  0.41562499  0.56231074
   0.52361322  0.55465890  0.49783652
   0.59994192  0.54513488  0.43570897
   0.54836100  0.55467750  0.40823124
   0.56899672  0.59482250  0.44732194
   0.39536441  0.51365398  0.51943882
   0.44565782  0.51723694  0.52274422
   0.51687755  0.47493938  0.52149008
   0.52942770  0.42707845  0.53240182
   0.54287623  0.49200117  0.48013192
   0.56633898  0.55909861  0.43997472
   0.46864171  0.47886051  0.51492218
   0.54402926  0.53707554  0.47679960
   0.46489693  0.55257158  0.53276852
   0.56122021  0.46650774  0.45339723
Direct configuration=    32
   0.38097169  0.54719345  0.52044472
   0.38491581  0.49686679  0.48857082
   0.38219240  0.49434822  0.54772124
   0.45175278  0.45107796  0.50539556
   0.52504689  0.49709878  0.54967201
   0.56542155  0.42466921  0.53853924
   0.52191579  0.40487050  0.50424745
   0.51161448  0.41563066  0.56233389
   0.52359976  0.55465356  0.49782066
   0.59990112  0.54510813  0.43564871
   0.54830016  0.55465282  0.40820678
   0.56897285  0.59480564  0.44727227
   0.39538091  0.51367277  0.51944516
   0.44567474  0.51724905  0.52275946
   0.51689004  0.47494055  0.52150495
   0.52942925  0.42707692  0.53242312
   0.54288598  0.49199262  0.48013856
   0.56630307  0.55908070  0.43993516
   0.46865430  0.47886947  0.51493855
   0.54401729  0.53706614  0.47678436
   0.46491801  0.55258333  0.53277851
   0.56124111  0.46649375  0.45341657
Direct configuration=    33
   0.38099836  0.54722104  0.52041646
   0.38493989  0.49685932  0.48859519
   0.38220650  0.49440388  0.54774824
   0.45176616  0.45109777  0.50539974
   0.52507080  0.49710512  0.54968503
   0.56542393  0.42465820  0.53856646
   0.52191000  0.40486680  0.50427852
   0.51161300  0.41563920  0.56236405
   0.52358451  0.55464550  0.49779766
   0.59984773  0.54507405  0.43557101
   0.54822282  0.55462075  0.40817502
   0.56894229  0.59478315  0.44720778
   0.39540217  0.51369652  0.51945290
   0.44569614  0.51726442  0.52277709
   0.51690617  0.47494191  0.52152337
   0.52943112  0.42707576  0.53245035
   0.54289843  0.49198401  0.48014747
   0.56625821  0.55905598  0.43988533
   0.46867041  0.47888118  0.51496018
   0.54400187  0.53705303  0.47676342
   0.46494424  0.55259759  0.53279149
   0.56126525  0.46647583  0.45344099
Direct configuration=    34
   0.38103186  0.54725410  0.52037592
   0.38497196  0.49684974  0.48862152
   0.38222141  0.49447229  0.54777591
   0.45178434  0.45112409  0.50539744
   0.52509771  0.49710513  0.54970095
   0.56542363  0.42463905  0.53859609
   0.52190308  0.40486259  0.50430940
   0.51160776  0.41564441  0.56239141
   0.52356614  0.55463247  0.49777204
   0.59978170  0.54503853  0.43548521
   0.54813093  0.55458941  0.40814576
   0.56890392  0.59475876  0.44714084
   0.39542861  0.51372417  0.51945858
   0.44572208  0.51728180  0.52279271
   0.51692606  0.47494156  0.52154503
   0.52943227  0.42707169  0.53247710
   0.54291625  0.49197285  0.48016259
   0.56620118  0.55902892  0.43983651
   0.46869105  0.47889548  0.51498380
   0.54398379  0.53704286  0.47674058
   0.46497525  0.55261070  0.53281323
   0.56129903  0.46646042  0.45347510
Direct configuration=    35
   0.38103248  0.54725419  0.52037393
   0.38497282  0.49684932  0.48862054
   0.38222108  0.49447308  0.54777489
   0.45178482  0.45112458  0.50539525
   0.52509761  0.49710361  0.54970165
   0.56542291  0.42463743  0.53859553
   0.52190291  0.40486246  0.50430763
   0.51160673  0.41564301  0.56238942
   0.52356534  0.55463223  0.49777318
   0.59978105  0.54503957  0.43548663