  22  22   0   0
  0.1227273E+04  0.3000000E-08  0.3000000E-08  0.3000000E-08  0.0000000E+00
  1.000000000000000E-004
  CAR 
 unknown system                          
      2.19947280    -28.24301902  301     -4.49708263      1.00000000
    -28.243  0.0000E+00  0.0000E+00
    -28.142  0.0000E+00  0.0000E+00
    -28.040  0.0000E+00  0.0000E+00
    -27.939  0.0000E+00  0.0000E+00
    -27.837  0.0000E+00  0.0000E+00
    -27.736  0.0000E+00  0.0000E+00
    -27.634  0.0000E+00  0.0000E+00
    -27.533  0.0000E+00  0.0000E+00
    -27.431  0.0000E+00  0.0000E+00
    -27.330  0.5069E-15  0.5144E-16
    -27.228  0.1060E-12  0.1081E-13
    -27.127  0.1344E-10  0.1375E-11
    -27.025  0.1028E-08  0.1057E-09
    -26.924  0.4751E-07  0.4927E-08
    -26.822  0.1328E-05  0.1397E-06
    -26.721  0.2251E-04  0.2424E-05
    -26.619  0.2316E-03  0.2592E-04
    -26.518  0.1449E-02  0.1730E-03
    -26.416  0.5522E-02  0.7334E-03
    -26.315  0.1284E-01  0.2036E-02
    -26.214  0.1821E-01  0.3884E-02
    -26.112  0.1578E-01  0.5485E-02
    -26.011  0.8355E-02  0.6333E-02
    -25.909  0.2786E-02  0.6616E-02
    -25.808  0.1235E-02  0.6741E-02
    -25.706  0.3380E-02  0.7084E-02
    -25.605  0.9522E-02  0.8051E-02
    -25.503  0.1667E-01  0.9742E-02
    -25.402  0.1782E-01  0.1155E-01
    -25.300  0.1163E-01  0.1273E-01
    -25.199  0.4636E-02  0.1320E-01
    -25.097  0.1126E-02  0.1331E-01
    -24.996  0.1667E-03  0.1333E-01
    -24.894  0.1500E-04  0.1333E-01
    -24.793  0.8190E-06  0.1333E-01
    -24.691  0.2710E-07  0.1333E-01
    -24.590  0.5424E-09  0.1333E-01
    -24.488  0.6596E-11  0.1333E-01
    -24.387  0.5490E-11  0.1333E-01
    -24.285  0.4593E-09  0.1333E-01
    -24.184  0.2341E-07  0.1333E-01
    -24.083  0.7219E-06  0.1333E-01
    -23.981  0.1349E-04  0.1333E-01
    -23.880  0.1529E-03  0.1335E-01
    -23.778  0.1054E-02  0.1346E-01
    -23.677  0.4423E-02  0.1391E-01
    -23.575  0.1132E-01  0.1505E-01
    -23.474  0.1768E-01  0.1685E-01
    -23.372  0.1687E-01  0.1856E-01
    -23.271  0.9825E-02  0.1956E-01
    -23.169  0.3494E-02  0.1991E-01
    -23.068  0.7903E-03  0.1999E-01
    -22.966  0.4199E-03  0.2004E-01
    -22.865  0.1859E-02  0.2022E-01
    -22.763  0.6524E-02  0.2089E-01
    -22.662  0.1402E-01  0.2231E-01
    -22.560  0.1840E-01  0.2418E-01
    -22.459  0.1474E-01  0.2567E-01
    -22.357  0.7212E-02  0.2640E-01
    -22.256  0.2153E-02  0.2662E-01
    -22.155  0.3914E-03  0.2666E-01
    -22.053  0.4331E-04  0.2667E-01
    -21.952  0.2911E-05  0.2667E-01
    -21.850  0.1186E-06  0.2667E-01
    -21.749  0.2925E-08  0.2667E-01
    -21.647  0.4361E-10  0.2667E-01
    -21.546  0.3923E-12  0.2667E-01
    -21.444  0.2123E-14  0.2667E-01
    -21.343  0.7294E-17  0.2667E-01
    -21.241  0.0000E+00  0.2667E-01
    -21.140  0.0000E+00  0.2667E-01
    -21.038  0.0000E+00  0.2667E-01
    -20.937  0.0000E+00  0.2667E-01
    -20.835  0.0000E+00  0.2667E-01
    -20.734  0.5470E-16  0.2667E-01
    -20.632  0.1388E-13  0.2667E-01
    -20.531  0.2146E-11  0.2667E-01
    -20.429  0.2000E-09  0.2667E-01
    -20.328  0.1125E-07  0.2667E-01
    -20.226  0.3830E-06  0.2667E-01
    -20.125  0.7894E-05  0.2667E-01
    -20.024  0.9870E-04  0.2668E-01
    -19.922  0.7501E-03  0.2675E-01
    -19.821  0.3470E-02  0.2711E-01
    -19.719  0.9787E-02  0.2810E-01
    -19.618  0.1684E-01  0.2981E-01
    -19.516  0.1770E-01  0.3160E-01
    -19.415  0.1136E-01  0.3276E-01
    -19.313  0.4449E-02  0.3321E-01
    -19.212  0.1063E-02  0.3332E-01
    -19.110  0.1545E-03  0.3333E-01
    -19.009  0.1368E-04  0.3333E-01
    -18.907  0.1189E-05  0.3333E-01
    -18.806  0.9163E-05  0.3333E-01
    -18.704  0.1113E-03  0.3335E-01
    -18.603  0.8238E-03  0.3343E-01
    -18.501  0.3712E-02  0.3381E-01
    -18.400  0.1020E-01  0.3484E-01
    -18.298  0.1710E-01  0.3658E-01
    -18.197  0.1750E-01  0.3835E-01
    -18.096  0.1094E-01  0.3946E-01
    -17.994  0.4175E-02  0.3989E-01
    -17.893  0.9744E-03  0.3999E-01
    -17.791  0.1824E-03  0.4000E-01
    -17.690  0.4144E-03  0.4005E-01
    -17.588  0.2198E-02  0.4027E-01
    -17.487  0.7312E-02  0.4101E-01
    -17.385  0.1484E-01  0.4252E-01
    -17.284  0.1839E-01  0.4438E-01
    -17.182  0.1392E-01  0.4580E-01
    -17.081  0.6429E-02  0.4645E-01
    -16.979  0.1812E-02  0.4663E-01
    -16.878  0.3111E-03  0.4666E-01
    -16.776  0.3276E-04  0.4667E-01
    -16.675  0.7987E-05  0.4667E-01
    -16.573  0.7808E-04  0.4668E-01
    -16.472  0.6237E-03  0.4674E-01
    -16.370  0.3035E-02  0.4705E-01
    -16.269  0.9004E-02  0.4796E-01
    -16.167  0.1630E-01  0.4961E-01
    -16.066  0.1801E-01  0.5144E-01
    -15.965  0.1216E-01  0.5268E-01
    -15.863  0.5009E-02  0.5318E-01
    -15.762  0.1258E-02  0.5331E-01
    -15.660  0.1926E-03  0.5333E-01
    -15.559  0.1792E-04  0.5333E-01
    -15.457  0.1082E-05  0.5333E-01
    -15.356  0.1898E-05  0.5333E-01
    -15.254  0.2988E-04  0.5334E-01
    -15.153  0.2909E-03  0.5337E-01
    -15.051  0.1722E-02  0.5354E-01
    -14.950  0.6214E-02  0.5417E-01
    -14.848  0.1367E-01  0.5556E-01
    -14.747  0.1837E-01  0.5742E-01
    -14.645  0.1507E-01  0.5895E-01
    -14.544  0.7546E-02  0.5972E-01
    -14.442  0.2311E-02  0.5995E-01
    -14.341  0.5029E-03  0.6000E-01
    -14.239  0.6443E-03  0.6007E-01
    -14.138  0.2938E-02  0.6037E-01
    -14.037  0.8815E-02  0.6126E-01
    -13.935  0.1616E-01  0.6290E-01
    -13.834  0.1808E-01  0.6473E-01
    -13.732  0.1237E-01  0.6599E-01
    -13.631  0.5364E-02  0.6653E-01
    -13.529  0.2661E-02  0.6680E-01
    -13.428  0.5463E-02  0.6736E-01
    -13.326  0.1251E-01  0.6863E-01
    -13.225  0.1812E-01  0.7047E-01
    -13.123  0.1605E-01  0.7210E-01
    -13.022  0.8690E-02  0.7298E-01
    -12.920  0.3013E-02  0.7328E-01
    -12.819  0.1614E-02  0.7345E-01
    -12.717  0.4446E-02  0.7390E-01
    -12.616  0.1125E-01  0.7504E-01
    -12.514  0.1765E-01  0.7683E-01
    -12.413  0.1691E-01  0.7855E-01
    -12.311  0.9895E-02  0.7955E-01
    -12.210  0.3533E-02  0.7991E-01
    -12.108  0.7698E-03  0.7999E-01
    -12.007  0.1178E-03  0.8000E-01
    -11.906  0.1933E-03  0.8002E-01
    -11.804  0.1337E-02  0.8016E-01
    -11.703  0.6025E-02  0.8077E-01
    -11.601  0.1707E-01  0.8250E-01
    -11.500  0.3063E-01  0.8561E-01
    -11.398  0.3496E-01  0.8916E-01
    -11.297  0.2560E-01  0.9175E-01
    -11.195  0.1314E-01  0.9309E-01
    -11.094  0.9223E-02  0.9402E-01
    -10.992  0.1570E-01  0.9562E-01
    -10.891  0.2614E-01  0.9827E-01
    -10.789  0.3157E-01  0.1015E+00
    -10.688  0.2827E-01  0.1043E+00
    -10.586  0.2149E-01  0.1065E+00
    -10.485  0.1928E-01  0.1085E+00
    -10.383  0.2135E-01  0.1106E+00
    -10.282  0.2350E-01  0.1130E+00
    -10.180  0.3030E-01  0.1161E+00
    -10.079  0.4419E-01  0.1206E+00
     -9.978  0.5170E-01  0.1258E+00
     -9.876  0.4161E-01  0.1301E+00
     -9.775  0.2249E-01  0.1323E+00
     -9.673  0.9110E-02  0.1333E+00
     -9.572  0.6765E-02  0.1340E+00
     -9.470  0.1276E-01  0.1352E+00
     -9.369  0.2062E-01  0.1373E+00
     -9.267  0.2542E-01  0.1399E+00
     -9.166  0.2918E-01  0.1429E+00
     -9.064  0.3362E-01  0.1463E+00
     -8.963  0.3502E-01  0.1498E+00
     -8.861  0.3228E-01  0.1531E+00
     -8.760  0.2813E-01  0.1560E+00
     -8.658  0.2273E-01  0.1583E+00
     -8.557  0.1739E-01  0.1600E+00
     -8.455  0.1688E-01  0.1618E+00
     -8.354  0.1915E-01  0.1637E+00
     -8.252  0.1646E-01  0.1654E+00
     -8.151  0.9018E-02  0.1663E+00
     -8.049  0.3035E-02  0.1666E+00
     -7.948  0.6235E-03  0.1667E+00
     -7.847  0.7797E-04  0.1667E+00
     -7.745  0.5925E-05  0.1667E+00
     -7.644  0.2731E-06  0.1667E+00
     -7.542  0.9453E-08  0.1667E+00
     -7.441  0.7887E-07  0.1667E+00
     -7.339  0.2050E-05  0.1667E+00
     -7.238  0.3235E-04  0.1667E+00
     -7.136  0.3100E-03  0.1667E+00
     -7.035  0.1807E-02  0.1669E+00
     -6.933  0.6419E-02  0.1675E+00
     -6.832  0.1391E-01  0.1689E+00
     -6.730  0.1846E-01  0.1708E+00
     -6.629  0.1541E-01  0.1724E+00
     -6.527  0.1012E-01  0.1734E+00
     -6.426  0.1076E-01  0.1745E+00
     -6.324  0.1636E-01  0.1762E+00
     -6.223  0.1828E-01  0.1780E+00
     -6.121  0.1323E-01  0.1794E+00
     -6.020  0.8331E-02  0.1802E+00
     -5.919  0.1029E-01  0.1813E+00
     -5.817  0.1658E-01  0.1829E+00
     -5.716  0.1910E-01  0.1849E+00
     -5.614  0.1663E-01  0.1866E+00
     -5.513  0.1631E-01  0.1882E+00
     -5.411  0.1892E-01  0.1901E+00
     -5.310  0.1713E-01  0.1919E+00
     -5.208  0.9948E-02  0.1929E+00
     -5.107  0.3554E-02  0.1932E+00
     -5.005  0.7750E-03  0.1933E+00
     -4.904  0.1029E-03  0.1933E+00
     -4.802  0.8306E-05  0.1933E+00
     -4.701  0.4067E-06  0.1933E+00
     -4.599  0.1206E-07  0.1933E+00
     -4.498  0.2163E-09  0.1933E+00
     -4.396  0.2343E-11  0.1933E+00
     -4.295  0.1530E-13  0.1933E+00
     -4.193  0.5835E-16  0.1933E+00
     -4.092  0.0000E+00  0.1933E+00
     -3.991  0.0000E+00  0.1933E+00
     -3.889  0.0000E+00  0.1933E+00
     -3.788  0.0000E+00  0.1933E+00
     -3.686  0.0000E+00  0.1933E+00
     -3.585  0.0000E+00  0.1933E+00
     -3.483  0.0000E+00  0.1933E+00
     -3.382  0.0000E+00  0.1933E+00
     -3.280  0.0000E+00  0.1933E+00
     -3.179  0.0000E+00  0.1933E+00
     -3.077  0.0000E+00  0.1933E+00
     -2.976  0.0000E+00  0.1933E+00
     -2.874  0.0000E+00  0.1933E+00
     -2.773  0.0000E+00  0.1933E+00
     -2.671  0.0000E+00  0.1933E+00
     -2.570  0.0000E+00  0.1933E+00
     -2.468  0.0000E+00  0.1933E+00
     -2.367  0.0000E+00  0.1933E+00
     -2.265  0.1787E-15  0.1933E+00
     -2.164  0.4144E-13  0.1933E+00
     -2.062  0.5771E-11  0.1933E+00
     -1.961  0.4852E-09  0.1933E+00
     -1.860  0.2468E-07  0.1933E+00
     -1.758  0.7617E-06  0.1933E+00
     -1.657  0.1432E-04  0.1933E+00
     -1.555  0.1651E-03  0.1934E+00
     -1.454  0.1177E-02  0.1935E+00
     -1.352  0.5254E-02  0.1940E+00
     -1.251  0.1494E-01  0.1955E+00
     -1.149  0.2761E-01  0.1983E+00
     -1.048  0.3372E-01  0.2017E+00
     -0.946  0.2740E-01  0.2045E+00
     -0.845  0.1485E-01  0.2060E+00
     -0.743  0.6201E-02  0.2067E+00
     -0.642  0.5887E-02  0.2073E+00
     -0.540  0.1367E-01  0.2086E+00
     -0.439  0.2661E-01  0.2113E+00
     -0.337  0.4005E-01  0.2154E+00
     -0.236  0.5109E-01  0.2206E+00
     -0.134  0.6100E-01  0.2268E+00
     -0.033  0.7714E-01  0.2346E+00
      0.068  0.1018E+00  0.2449E+00
      0.170  0.1145E+00  0.2566E+00
      0.271  0.9293E-01  0.2660E+00
      0.373  0.5033E-01  0.2711E+00
      0.474  0.1758E-01  0.2729E+00
      0.576  0.3893E-02  0.2733E+00
      0.677  0.5405E-03  0.2733E+00
      0.779  0.4672E-04  0.2733E+00
      0.880  0.2497E-05  0.2733E+00
      0.982  0.8212E-07  0.2733E+00
      1.083  0.1654E-08  0.2733E+00
      1.185  0.2032E-10  0.2733E+00
      1.286  0.1519E-12  0.2733E+00
      1.388  0.6929E-15  0.2733E+00
      1.489  0.0000E+00  0.2733E+00
      1.591  0.0000E+00  0.2733E+00
      1.692  0.0000E+00  0.2733E+00
      1.794  0.0000E+00  0.2733E+00
      1.895  0.0000E+00  0.2733E+00
      1.997  0.0000E+00  0.2733E+00
      2.098  0.0000E+00  0.2733E+00
      2.199  0.0000E+00  0.2733E+00
