   22   22  300    1
  0.1227273E+04  0.3000000E-08  0.3000000E-08  0.3000000E-08  0.0000000E+00
  1.000000000000000E-004
  CAR 
 unknown system                          
     58      4     41
 
  0.2500000E+00  0.2500000E+00  0.2500000E+00  0.2500000E+00
    1      -26.243014   1.000000
    2      -25.489433   1.000000
    3      -23.483418   1.000000
    4      -22.605997   1.000000
    5      -19.607433   1.000000
    6      -18.293639   1.000000
    7      -17.341071   1.000000
    8      -16.146906   1.000000
    9      -14.787600   1.000000
   10      -13.911911   1.000000
   11      -13.249722   1.000000
   12      -12.523191   1.000000
   13      -11.512212   1.000000
   14      -11.427840   1.000000
   15      -10.917262   1.000000
   16      -10.753497   1.000000
   17      -10.410034   1.000000
   18      -10.084373   1.000000
   19      -10.045214   1.000000
   20       -9.948033   1.000000
   21       -9.387245   1.000000
   22       -9.130123   1.000000
   23       -8.974652   1.000000
   24       -8.746220   1.000000
   25       -8.374533   1.000000
   26       -6.774287   1.000000
   27       -6.297769   1.000000
   28       -5.794943   1.000000
   29       -5.419507   1.000000
   30       -1.160147   0.000000
   31       -1.038841   0.000000
   32       -0.448126   0.000000
   33       -0.278020   0.000000
   34       -0.198000   0.000000
   35       -0.057921   0.000000
   36        0.050560   0.000000
   37        0.105100   0.000000
   38        0.130347   0.000000
   39        0.143274   0.000000
   40        0.175631   0.000000
   41        0.199415   0.000000
 
 -0.2500000E+00  0.2500000E+00  0.2500000E+00  0.2500000E+00
    1      -26.243019   1.000000
    2      -25.489433   1.000000
    3      -23.483412   1.000000
    4      -22.606000   1.000000
    5      -19.607432   1.000000
    6      -18.293639   1.000000
    7      -17.341075   1.000000
    8      -16.146905   1.000000
    9      -14.787599   1.000000
   10      -13.911915   1.000000
   11      -13.249725   1.000000
   12      -12.523193   1.000000
   13      -11.512197   1.000000
   14      -11.427850   1.000000
   15      -10.917266   1.000000
   16      -10.753503   1.000000
   17      -10.410029   1.000000
   18      -10.084365   1.000000
   19      -10.045207   1.000000
   20       -9.948027   1.000000
   21       -9.387253   1.000000
   22       -9.130121   1.000000
   23       -8.974653   1.000000
   24       -8.746221   1.000000
   25       -8.374533   1.000000
   26       -6.774263   1.000000
   27       -6.297778   1.000000
   28       -5.794953   1.000000
   29       -5.419502   1.000000
   30       -1.160137   0.000000
   31       -1.038841   0.000000
   32       -0.448118   0.000000
   33       -0.278025   0.000000
   34       -0.197975   0.000000
   35       -0.057765   0.000000
   36        0.049112   0.000000
   37        0.103376   0.000000
   38        0.133486   0.000000
   39        0.143475   0.000000
   40        0.184756   0.000000
   41        0.199473   0.000000
 
  0.2500000E+00 -0.2500000E+00  0.2500000E+00  0.2500000E+00
    1      -26.243014   1.000000
    2      -25.489434   1.000000
    3      -23.483412   1.000000
    4      -22.605998   1.000000
    5      -19.607431   1.000000
    6      -18.293639   1.000000
    7      -17.341071   1.000000
    8      -16.146908   1.000000
    9      -14.787595   1.000000
   10      -13.911919   1.000000
   11      -13.249727   1.000000
   12      -12.523185   1.000000
   13      -11.512208   1.000000
   14      -11.427845   1.000000
   15      -10.917263   1.000000
   16      -10.753506   1.000000
   17      -10.410029   1.000000
   18      -10.084375   1.000000
   19      -10.045205   1.000000
   20       -9.948028   1.000000
   21       -9.387252   1.000000
   22       -9.130126   1.000000
   23       -8.974649   1.000000
   24       -8.746228   1.000000
   25       -8.374530   1.000000
   26       -6.774285   1.000000
   27       -6.297759   1.000000
   28       -5.794932   1.000000
   29       -5.419498   1.000000
   30       -1.160123   0.000000
   31       -1.038842   0.000000
   32       -0.448119   0.000000
   33       -0.278040   0.000000
   34       -0.197968   0.000000
   35       -0.056756   0.000000
   36        0.041106   0.000000
   37        0.115523   0.000000
   38        0.129543   0.000000
   39        0.146693   0.000000
   40        0.191287   0.000000
   41        0.197003   0.000000
 
 -0.2500000E+00 -0.2500000E+00  0.2500000E+00  0.2500000E+00
    1      -26.243014   1.000000
    2      -25.489433   1.000000
    3      -23.483412   1.000000
    4      -22.605999   1.000000
    5      -19.607433   1.000000
    6      -18.293638   1.000000
    7      -17.341072   1.000000
    8      -16.146904   1.000000
    9      -14.787603   1.000000
   10      -13.911913   1.000000
   11      -13.249730   1.000000
   12      -12.523197   1.000000
   13      -11.512204   1.000000
   14      -11.427849   1.000000
   15      -10.917253   1.000000
   16      -10.753498   1.000000
   17      -10.410019   1.000000
   18      -10.084382   1.000000
   19      -10.045210   1.000000
   20       -9.948025   1.000000
   21       -9.387250   1.000000
   22       -9.130106   1.000000
   23       -8.974645   1.000000
   24       -8.746215   1.000000
   25       -8.374533   1.000000
   26       -6.774290   1.000000
   27       -6.297771   1.000000
   28       -5.794939   1.000000
   29       -5.419493   1.000000
   30       -1.160136   0.000000
   31       -1.038841   0.000000
   32       -0.448122   0.000000
   33       -0.278032   0.000000
   34       -0.198003   0.000000
   35       -0.056839   0.000000
   36        0.041908   0.000000
   37        0.124895   0.000000
   38        0.131024   0.000000
   39        0.135538   0.000000
   40        0.179242   0.000000
   41        0.191814   0.000000
