 vasp.5.4.1 24Jun15 (build Jan 13 2020 12:58:22) complex                        
  
 executed on           IFC91_ompi date 2020.02.03  09:56:59
 running on   15 total cores
 each image running on    1 cores
 distrk:  each k-point on    1 cores,    1 groups
 distr:  one band on NCORES_PER_BAND=   1 cores,    1 groups


--------------------------------------------------------------------------------------------------------


 INCAR:
 POTCAR:    PAW_PBE H 15Jun2001                   
 POTCAR:    PAW_PBE C 08Apr2002                   
 POTCAR:    PAW_PBE N 08Apr2002                   
 POTCAR:    PAW_PBE O 08Apr2002                   
 POTCAR:    PAW_PBE H 15Jun2001                   
   VRHFIN =H: ultrasoft test                                                    
   LEXCH  = PE                                                                  
   EATOM  =    12.4884 eV,    0.9179 Ry                                         
                                                                                
   TITEL  = PAW_PBE H 15Jun2001                                                 
   LULTRA =        F    use ultrasoft PP ?                                      
   IUNSCR =        0    unscreen: 0-lin 1-nonlin 2-no                           
   RPACOR =    0.000    partial core radius                                     
   POMASS =    1.000; ZVAL   =    1.000    mass and valenz                      
   RCORE  =    1.100    outmost cutoff radius                                   
   RWIGS  =    0.700; RWIGS  =    0.370    wigner-seitz radius (au A)           
   ENMAX  =  250.000; ENMIN  =  200.000 eV                                      
   RCLOC  =    0.701    cutoff for local pot                                    
   LCOR   =        T    correct aug charges                                     
   LPAW   =        T    paw PP                                                  
   EAUG   =  400.000                                                            
   RMAX   =    1.123    core radius for proj-oper                               
   RAUG   =    1.200    factor for augmentation sphere                          
   RDEP   =    1.112    radius for radial grids                                 
   RDEPT  =    0.926    core radius for aug-charge                              
                                                                                
   Atomic configuration                                                         
    2 entries                                                                   
     n  l   j            E        occ.                                          
     1  0  0.50        -6.4927   1.0000                                         
     2  1  0.50        -3.4015   0.0000                                         
   Description                                                                  
     l       E           TYP  RCUT    TYP  RCUT                                 
     0     -6.4927494     23  1.100                                             
     0      6.8029130     23  1.100                                             
     1     -4.0817478     23  1.100                                             
  local pseudopotential read in
  atomic valenz-charges read in
  non local Contribution for L=           0  read in
    real space projection operators read in
  non local Contribution for L=           0  read in
    real space projection operators read in
  non local Contribution for L=           1  read in
    real space projection operators read in
    PAW grid and wavefunctions read in
 
   number of l-projection  operators is LMAX  =           3
   number of lm-projection operators is LMMAX =           5
 
 POTCAR:    PAW_PBE C 08Apr2002                   
   VRHFIN =C: s2p2                                                              
   LEXCH  = PE                                                                  
   EATOM  =   147.1560 eV,   10.8157 Ry                                         
                                                                                
   TITEL  = PAW_PBE C 08Apr2002                                                 
   LULTRA =        F    use ultrasoft PP ?                                      
   IUNSCR =        1    unscreen: 0-lin 1-nonlin 2-no                           
   RPACOR =    1.200    partial core radius                                     
   POMASS =   12.011; ZVAL   =    4.000    mass and valenz                      
   RCORE  =    1.500    outmost cutoff radius                                   
   RWIGS  =    1.630; RWIGS  =    0.863    wigner-seitz radius (au A)           
   ENMAX  =  400.000; ENMIN  =  300.000 eV                                      
   ICORE  =        2    local potential                                         
   LCOR   =        T    correct aug charges                                     
   LPAW   =        T    paw PP                                                  
   EAUG   =  644.873                                                            
   DEXC   =    0.000                                                            
   RMAX   =    1.529    core radius for proj-oper                               
   RAUG   =    1.300    factor for augmentation sphere                          
   RDEP   =    1.501    radius for radial grids                                 
   RDEPT  =    1.300    core radius for aug-charge                              
                                                                                
   Atomic configuration                                                         
    4 entries                                                                   
     n  l   j            E        occ.                                          
     1  0  0.50      -273.3789   2.0000                                         
     2  0  0.50       -13.7508   2.0000                                         
     2  1  0.50        -5.2854   2.0000                                         
     3  2  1.50        -5.4423   0.0000                                         
   Description                                                                  
     l       E           TYP  RCUT    TYP  RCUT                                 
     0    -13.7508458     23  1.200                                             
     0     -8.2022199     23  1.200                                             
     1     -5.2854383     23  1.500                                             
     1     34.0145650     23  1.500                                             
     2     -5.4423304      7  1.500                                             
  local pseudopotential read in
  partial core-charges read in
  partial kinetic energy density read in
  atomic valenz-charges read in
  non local Contribution for L=           0  read in
    real space projection operators read in
  non local Contribution for L=           0  read in
    real space projection operators read in
  non local Contribution for L=           1  read in
    real space projection operators read in
  non local Contribution for L=           1  read in
    real space projection operators read in
    PAW grid and wavefunctions read in
 
   number of l-projection  operators is LMAX  =           4
   number of lm-projection operators is LMMAX =           8
 
 POTCAR:    PAW_PBE N 08Apr2002                   
   VRHFIN =N: s2p3                                                              
   LEXCH  = PE                                                                  
   EATOM  =   264.5486 eV,   19.4438 Ry                                         
                                                                                
   TITEL  = PAW_PBE N 08Apr2002                                                 
   LULTRA =        F    use ultrasoft PP ?                                      
   IUNSCR =        1    unscreen: 0-lin 1-nonlin 2-no                           
   RPACOR =    1.200    partial core radius                                     
   POMASS =   14.001; ZVAL   =    5.000    mass and valenz                      
   RCORE  =    1.500    outmost cutoff radius                                   
   RWIGS  =    1.400; RWIGS  =    0.741    wigner-seitz radius (au A)           
   ENMAX  =  400.000; ENMIN  =  300.000 eV                                      
   ICORE  =        2    local potential                                         
   LCOR   =        T    correct aug charges                                     
   LPAW   =        T    paw PP                                                  
   EAUG   =  627.112                                                            
   DEXC   =    0.000                                                            
   RMAX   =    1.529    core radius for proj-oper                               
   RAUG   =    1.300    factor for augmentation sphere                          
   RDEP   =    1.514    radius for radial grids                                 
   RDEPT  =    1.338    core radius for aug-charge                              
                                                                                
   Atomic configuration                                                         
    4 entries                                                                   
     n  l   j            E        occ.                                          
     1  0  0.50      -384.7179   2.0000                                         
     2  0  0.50       -18.5828   2.0000                                         
     2  1  0.50        -7.0898   3.0000                                         
     3  2  1.50        -6.8029   0.0000                                         
   Description                                                                  
     l       E           TYP  RCUT    TYP  RCUT                                 
     0    -18.5828119     23  1.200                                             
     0    -13.5018863     23  1.200                                             
     1     -7.0897853     23  1.500                                             
     1      9.5240782     23  1.500                                             
     2     -6.8029130      7  1.500                                             
  local pseudopotential read in
  partial core-charges read in
  partial kinetic energy density read in
  atomic valenz-charges read in
  non local Contribution for L=           0  read in
    real space projection operators read in
  non local Contribution for L=           0  read in
    real space projection operators read in
  non local Contribution for L=           1  read in
    real space projection operators read in
  non local Contribution for L=           1  read in
    real space projection operators read in
    PAW grid and wavefunctions read in
 
   number of l-projection  operators is LMAX  =           4
   number of lm-projection operators is LMMAX =           8
 
 POTCAR:    PAW_PBE O 08Apr2002                   
   VRHFIN =O: s2p4                                                              
   LEXCH  = PE                                                                  
   EATOM  =   432.3788 eV,   31.7789 Ry                                         
                                                                                
   TITEL  = PAW_PBE O 08Apr2002                                                 
   LULTRA =        F    use ultrasoft PP ?                                      
   IUNSCR =        1    unscreen: 0-lin 1-nonlin 2-no                           
   RPACOR =    1.200    partial core radius                                     
   POMASS =   16.000; ZVAL   =    6.000    mass and valenz                      
   RCORE  =    1.520    outmost cutoff radius                                   
   RWIGS  =    1.550; RWIGS  =    0.820    wigner-seitz radius (au A)           
   ENMAX  =  400.000; ENMIN  =  300.000 eV                                      
   ICORE  =        2    local potential                                         
   LCOR   =        T    correct aug charges                                     
   LPAW   =        T    paw PP                                                  
   EAUG   =  605.392                                                            
   DEXC   =    0.000                                                            
   RMAX   =    1.553    core radius for proj-oper                               
   RAUG   =    1.300    factor for augmentation sphere                          
   RDEP   =    1.550    radius for radial grids                                 
   RDEPT  =    1.329    core radius for aug-charge                              
                                                                                
   Atomic configuration                                                         
    4 entries                                                                   
     n  l   j            E        occ.                                          
     1  0  0.50      -514.6923   2.0000                                         
     2  0  0.50       -23.9615   2.0000                                         
     2  1  0.50        -9.0305   4.0000                                         
     3  2  1.50        -9.5241   0.0000                                         
   Description                                                                  
     l       E           TYP  RCUT    TYP  RCUT                                 
     0    -23.9615318     23  1.200                                             
     0     -9.5240782     23  1.200                                             
     1     -9.0304911     23  1.520                                             
     1      8.1634956     23  1.520                                             
     2     -9.5240782      7  1.500                                             
  local pseudopotential read in
  partial core-charges read in
  partial kinetic energy density read in
  kinetic energy density of atom read in
  atomic valenz-charges read in
  non local Contribution for L=           0  read in
    real space projection operators read in
  non local Contribution for L=           0  read in
    real space projection operators read in
  non local Contribution for L=           1  read in
    real space projection operators read in
  non local Contribution for L=           1  read in
    real space projection operators read in
    PAW grid and wavefunctions read in
 
   number of l-projection  operators is LMAX  =           4
   number of lm-projection operators is LMMAX =           8
 
 Optimization of the real space projectors (new method)

 maximal supplied QI-value         = 34.20
 optimisation between [QCUT,QGAM] = [  9.92, 20.18] = [ 27.55,114.04] Ry 
 Optimized for a Real-space Cutoff    1.26 Angstroem

   l    n(q)    QCUT    max X(q) W(low)/X(q) W(high)/X(q)  e(spline) 
   0      8     9.919    19.460    0.50E-03    0.23E-03    0.29E-06
   0      8     9.919    12.209    0.48E-03    0.23E-03    0.28E-06
   1      7     9.919     4.655    0.17E-03    0.75E-03    0.30E-06
 Optimization of the real space projectors (new method)

 maximal supplied QI-value         = 25.13
 optimisation between [QCUT,QGAM] = [ 10.05, 20.36] = [ 28.30,116.06] Ry 
 Optimized for a Real-space Cutoff    1.30 Angstroem

   l    n(q)    QCUT    max X(q) W(low)/X(q) W(high)/X(q)  e(spline) 
   0      8    10.053   115.676    0.49E-03    0.72E-03    0.18E-06
   0      8    10.053    87.132    0.49E-03    0.71E-03    0.18E-06
   1      7    10.053     4.429    0.32E-03    0.31E-03    0.18E-06
   1      7    10.053     2.733    0.23E-03    0.19E-03    0.20E-06
 Optimization of the real space projectors (new method)

 maximal supplied QI-value         = 25.13
 optimisation between [QCUT,QGAM] = [ 10.05, 20.36] = [ 28.30,116.06] Ry 
 Optimized for a Real-space Cutoff    1.65 Angstroem

   l    n(q)    QCUT    max X(q) W(low)/X(q) W(high)/X(q)  e(spline) 
   0     10    10.053    79.467    0.76E-04    0.72E-04    0.56E-06
   0     10    10.053    66.151    0.76E-04    0.72E-04    0.55E-06
   1     10    10.053     8.350    0.25E-03    0.92E-03    0.41E-05
   1     10    10.053     5.531    0.27E-03    0.10E-02    0.45E-05
 Optimization of the real space projectors (new method)

 maximal supplied QI-value         = 24.76
 optimisation between [QCUT,QGAM] = [ 10.15, 20.30] = [ 28.85,115.39] Ry 
 Optimized for a Real-space Cutoff    1.38 Angstroem

   l    n(q)    QCUT    max X(q) W(low)/X(q) W(high)/X(q)  e(spline) 
   0      8    10.150    20.381    0.22E-03    0.32E-03    0.29E-06
   0      8    10.150    15.268    0.23E-03    0.35E-03    0.30E-06
   1      8    10.150     5.964    0.46E-03    0.53E-03    0.21E-06
   1      8    10.150     5.382    0.38E-03    0.45E-03    0.19E-06
  PAW_PBE H 15Jun2001                   :
 energy of atom  1       EATOM=  -12.4884
 kinetic energy error for atom=    0.0098 (will be added to EATOM!!)
  PAW_PBE C 08Apr2002                   :
 energy of atom  2       EATOM= -147.1560
 kinetic energy error for atom=    0.0288 (will be added to EATOM!!)
  PAW_PBE N 08Apr2002                   :
 energy of atom  3       EATOM= -264.5486
 kinetic energy error for atom=    0.0736 (will be added to EATOM!!)
  PAW_PBE O 08Apr2002                   :
 energy of atom  4       EATOM= -432.3788
 kinetic energy error for atom=    0.1156 (will be added to EATOM!!)
 
 
 POSCAR: H12 C6 N2 O2                            
  positions in direct lattice
  velocities in cartesian coordinates
 exchange correlation table for  LEXCH =        8
   RHO(1)=    0.500       N(1)  =     2000
   RHO(2)=  100.500       N(2)  =     4000

 VTST: version 3.2, (02/03/18)

 CHAIN: initializing optimizer
 
 OPT: Using FIRE optimizer
 OPT: FIRE, Init
 OPT: FIRE, MAXMOVE       0.20000
 OPT: FIRE, TIMESTEP      0.10000
 OPT: FIRE, FTIMEMAX      1.00000
 OPT: FIRE, FTIMEINC      1.10000
 OPT: FIRE, FTIMEDEC      0.50000
 OPT: FIRE, FALPHADEC     0.99000
 OPT: FIRE, FALPHA        0.10000
 OPT: FIRE, FNMIN         5
 
 CHAIN: Read ICHAIN            0
 CHAIN: Running the NEB
 NEB:          SPRING     -5.000000
 NEB:          LCLIMB      T
 NEB:     LTANGENTOLD      F
 NEB:           LDNEB      F
 NEB:        LDNEBORG      F
 NEB:        LNEBCELL      F
 NEB:          EFIRST      0.000000
 NEB:           ELAST      0.000000
 
 POSCAR: H12 C6 N2 O2                            
  positions in direct lattice
  No initial velocities read in
 
 POSCAR: H12 C6 N2 O2                            
  positions in direct lattice
  No initial velocities read in
 


--------------------------------------------------------------------------------------------------------


 ion  position               nearest neighbor table
   1  0.375  0.536  0.501-  13 1.09
   2  0.379  0.479  0.483-  13 1.10
   3  0.380  0.492  0.541-  13 1.10
   4  0.448  0.448  0.529-  19 1.02
   5  0.521  0.440  0.539-  15 1.10
   6  0.556  0.424  0.467-  16 1.10
   7  0.514  0.456  0.438-  16 1.10
   8  0.499  0.406  0.467-  16 1.10
   9  0.514  0.547  0.487-  20 1.03
  10  0.591  0.577  0.537-  18 1.10
  11  0.608  0.565  0.481-  18 1.10
  12  0.565  0.605  0.490-  18 1.10
  13  0.391  0.504  0.508-   1 1.09   3 1.10   2 1.10  14 1.52
  14  0.441  0.509  0.502-  21 1.24  19 1.36  13 1.52
  15  0.514  0.463  0.511-   5 1.10  19 1.48  16 1.54  17 1.55
  16  0.521  0.436  0.468-   7 1.10   6 1.10   8 1.10  15 1.54
  17  0.551  0.498  0.516-  22 1.24  20 1.35  15 1.55
  18  0.579  0.573  0.502-  12 1.10  10 1.10  11 1.10  20 1.45
  19  0.466  0.475  0.517-   4 1.02  14 1.36  15 1.48
  20  0.545  0.539  0.499-   9 1.03  17 1.35  18 1.45
  21  0.456  0.543  0.484-  14 1.24
  22  0.586  0.485  0.533-  17 1.24
 
  LATTYP: Found a simple cubic cell.
 ALAT       =    30.0000000000
  
  Lattice vectors:
  
 A1 = (  30.0000000000,   0.0000000000,   0.0000000000)
 A2 = (   0.0000000000,  30.0000000000,   0.0000000000)
 A3 = (   0.0000000000,   0.0000000000,  30.0000000000)


Analysis of symmetry for initial positions (statically):
=====================================================================
 Subroutine PRICEL returns:
 Original cell was already a primitive cell.
 

 Routine SETGRP: Setting up the symmetry group for a 
 simple cubic supercell.


 Subroutine GETGRP returns: Found  1 space group operations
 (whereof  1 operations were pure point group operations)
 out of a pool of 48 trial point group operations.


The static configuration has the point symmetry C_1 .


Analysis of symmetry for dynamics (positions and initial velocities):
=====================================================================
 Subroutine PRICEL returns:
 Original cell was already a primitive cell.
 

 Routine SETGRP: Setting up the symmetry group for a 
 simple cubic supercell.


 Subroutine GETGRP returns: Found  1 space group operations
 (whereof  1 operations were pure point group operations)
 out of a pool of 48 trial point group operations.


The dynamic configuration has the point symmetry C_1 .
 
 
 KPOINTS: Mo2C                                    

Automatic generation of k-mesh.
Space group operators:
 irot       det(A)        alpha          n_x          n_y          n_z        tau_x        tau_y        tau_z
    1     1.000000     0.000000     1.000000     0.000000     0.000000     0.000000     0.000000     0.000000
 
 Subroutine IBZKPT returns following result:
 ===========================================
 
 Found      4 irreducible k-points:
 
 Following reciprocal coordinates:
            Coordinates               Weight
  0.250000  0.250000  0.250000      2.000000
 -0.250000  0.250000  0.250000      2.000000
  0.250000 -0.250000  0.250000      2.000000
 -0.250000 -0.250000  0.250000      2.000000
 
 Following cartesian coordinates:
            Coordinates               Weight
  0.008333  0.008333  0.008333      2.000000
 -0.008333  0.008333  0.008333      2.000000
  0.008333 -0.008333  0.008333      2.000000
 -0.008333 -0.008333  0.008333      2.000000
 


--------------------------------------------------------------------------------------------------------




 Dimension of arrays:
   k-points           NKPTS =      4   k-points in BZ     NKDIM =      4   number of bands    NBANDS=     41
   number of dos      NEDOS =    301   number of ions     NIONS =     22
   non local maximal  LDIM  =      4   non local SUM 2l+1 LMDIM =      8
   total plane-waves  NPLWV = ******
   max r-space proj   IRMAX =   2395   max aug-charges    IRDMAX=   1821
   dimension x,y,z NGX =   150 NGY =  150 NGZ =  150
   dimension x,y,z NGXF=   300 NGYF=  300 NGZF=  300
   support grid    NGXF=   300 NGYF=  300 NGZF=  300
   ions per type =              12   6   2   2
 NGX,Y,Z   is equivalent  to a cutoff of   8.31,  8.31,  8.31 a.u.
 NGXF,Y,Z  is equivalent  to a cutoff of  16.62, 16.62, 16.62 a.u.


 I would recommend the setting:
   dimension x,y,z NGX =   147 NGY =  147 NGZ =  147
 SYSTEM =  unknown system                          
 POSCAR =  H12 C6 N2 O2                            

 Startparameter for this run:
   NWRITE =      2    write-flag & timer
   PREC   = normal    normal or accurate (medium, high low for compatibility)
   ISTART =      0    job   : 0-new  1-cont  2-samecut
   ICHARG =      2    charge: 1-file 2-atom 10-const
   ISPIN  =      1    spin polarized calculation?
   LNONCOLLINEAR =      F non collinear calculations
   LSORBIT =      F    spin-orbit coupling
   INIWAV =      1    electr: 0-lowe 1-rand  2-diag
   LASPH  =      F    aspherical Exc in radial PAW
   METAGGA=      F    non-selfconsistent MetaGGA calc.

 Electronic Relaxation 1
   ENCUT  =  400.0 eV  29.40 Ry    5.42 a.u.  48.92 48.92 48.92*2*pi/ulx,y,z
   ENINI  =  400.0     initial cutoff
   ENAUG  =  644.9 eV  augmentation charge cutoff
   NELM   =    500;   NELMIN=  6; NELMDL= -5     # of ELM steps 
   EDIFF  = 0.1E-03   stopping-criterion for ELM
   LREAL  =      T    real-space projection
   NLSPLINE    = F    spline interpolate recip. space projectors
   LCOMPAT=      F    compatible to vasp.4.4
   GGA_COMPAT  = T    GGA compatible to vasp.4.4-vasp.4.6
   LMAXPAW     = -100 max onsite density
   LMAXMIX     =    2 max onsite mixed and CHGCAR
   VOSKOWN=      0    Vosko Wilk Nusair interpolation
   ROPT   =   -0.00050  -0.00050  -0.00050  -0.00050
 Ionic relaxation
   EDIFFG = -.1E+00   stopping-criterion for IOM
   NSW    =    300    number of steps for IOM
   NBLOCK =      1;   KBLOCK =    300    inner block; outer block 
   IBRION =      3    ionic relax: 0-MD 1-quasi-New 2-CG
   NFREE  =      0    steps in history (QN), initial steepest desc. (CG)
   ISIF   =      2    stress and relaxation
   IWAVPR =     11    prediction:  0-non 1-charg 2-wave 3-comb
   ISYM   =      2    0-nonsym 1-usesym 2-fastsym
   LCORR  =      T    Harris-Foulkes like correction to forces

   POTIM  = 0.0000    time-step for ionic-motion
   TEIN   =    0.0    initial temperature
   TEBEG  =    0.0;   TEEND  =   0.0 temperature during run
   SMASS  =   2.00    Nose mass-parameter (am)
   estimated Nose-frequenzy (Omega)   =  0.24E+10 period in steps =  0.00 mass=   0.137E-25a.u.
   SCALEE = 1.0000    scale energy and forces
   NPACO  =    256;   APACO  = 16.0  distance and # of slots for P.C.
   PSTRESS=    0.0 pullay stress

  Mass of Ions in am
   POMASS =   1.00 12.01 14.00 16.00
  Ionic Valenz
   ZVAL   =   1.00  4.00  5.00  6.00
  Atomic Wigner-Seitz radii
   RWIGS  =  -1.00 -1.00 -1.00 -1.00
  virtual crystal weights 
   VCA    =   1.00  1.00  1.00  1.00
   NELECT =      58.0000    total number of electrons
   NUPDOWN=      -1.0000    fix difference up-down

 DOS related values:
   EMIN   =  10.00;   EMAX   =-10.00  energy-range for DOS
   EFERMI =   0.00
   ISMEAR =     0;   SIGMA  =   0.20  broadening in eV -4-tet -1-fermi 0-gaus

 Electronic relaxation 2 (details)
   IALGO  =     38    algorithm
   LDIAG  =      T    sub-space diagonalisation (order eigenvalues)
   LSUBROT=      F    optimize rotation matrix (better conditioning)
   TURBO    =      0    0=normal 1=particle mesh
   IRESTART =      0    0=no restart 2=restart with 2 vectors
   NREBOOT  =      0    no. of reboots
   NMIN     =      0    reboot dimension
   EREF     =   0.00    reference energy to select bands
   IMIX   =      4    mixing-type and parameters
     AMIX     =   0.40;   BMIX     =  1.00
     AMIX_MAG =   1.60;   BMIX_MAG =  1.00
     AMIN     =   0.10
     WC   =   100.;   INIMIX=   1;  MIXPRE=   1;  MAXMIX= -45

 Intra band minimization:
   WEIMIN = 0.0010     energy-eigenvalue tresh-hold
   EBREAK =  0.61E-06  absolut break condition
   DEPER  =   0.30     relativ break condition  

   TIME   =   0.40     timestep for ELM

  volume/ion in A,a.u.               =    1227.27      8282.05
  Fermi-wavevector in a.u.,A,eV,Ry     =   0.211234  0.399174  0.607087  0.044620
  Thomas-Fermi vector in A             =   0.980021
 
 Write flags
   LWAVE  =      F    write WAVECAR
   LCHARG =      F    write CHGCAR
   LVTOT  =      F    write LOCPOT, total local potential
   LVHAR  =      F    write LOCPOT, Hartree potential only
   LELF   =      F    write electronic localiz. function (ELF)
   LORBIT =      0    0 simple, 1 ext, 2 COOP (PROOUT)


 Dipole corrections
   LMONO  =      F    monopole corrections only (constant potential shift)
   LDIPOL =      F    correct potential (dipole corrections)
   IDIPOL =      0    1-x, 2-y, 3-z, 4-all directions 
   EPSILON=  1.0000000 bulk dielectric constant

 Exchange correlation treatment:
   GGA     =    PE    GGA type
   LEXCH   =     8    internal setting for exchange type
   VOSKOWN=      0    Vosko Wilk Nusair interpolation
   LHFCALC =     F    Hartree Fock is set to
   LHFONE  =     F    Hartree Fock one center treatment
   AEXX    =    0.0000 exact exchange contribution

 Linear response parameters
   LEPSILON=     F    determine dielectric tensor
   LRPA    =     F    only Hartree local field effects (RPA)
   LNABLA  =     F    use nabla operator in PAW spheres
   LVEL    =     F    velocity operator in full k-point grid
   LINTERFAST=   F  fast interpolation
   KINTER  =     0    interpolate to denser k-point grid
   CSHIFT  =0.1000    complex shift for real part using Kramers Kronig
   OMEGAMAX=  -1.0    maximum frequency
   DEG_THRESHOLD= 0.2000000E-02 threshold for treating states as degnerate
   RTIME   =    0.100 relaxation time in fs

 Orbital magnetization related:
   ORBITALMAG=     F  switch on orbital magnetization
   LCHIMAG   =     F  perturbation theory with respect to B field
   DQ        =  0.001000  dq finite difference perturbation B field



--------------------------------------------------------------------------------------------------------


 quickmin algorithm: (dynamic with friction)
 charge density and potential will be updated during run
 non-spin polarized calculation
 Variant of blocked Davidson
 Davidson routine will perform the subspace rotation
 perform sub-space diagonalisation
    after iterative eigenvector-optimisation
 modified Broyden-mixing scheme, WC =      100.0
 initial mixing is a Kerker type mixing with AMIX =  0.4000 and BMIX =      1.0000
 Hartree-type preconditioning will be used
 using additional bands           12
 real space projection scheme for non local part
 use partial core corrections
 calculate Harris-corrections to forces 
   (improved forces if not selfconsistent)
 use gradient corrections 
 use of overlap-Matrix (Vanderbilt PP)
 Gauss-broadening in eV      SIGMA  =   0.20


--------------------------------------------------------------------------------------------------------


  energy-cutoff  :      400.00
  volume of cell :    27000.00
      direct lattice vectors                 reciprocal lattice vectors
    30.000000000  0.000000000  0.000000000     0.033333333  0.000000000  0.000000000
     0.000000000 30.000000000  0.000000000     0.000000000  0.033333333  0.000000000
     0.000000000  0.000000000 30.000000000     0.000000000  0.000000000  0.033333333

  length of vectors
    30.000000000 30.000000000 30.000000000     0.033333333  0.033333333  0.033333333


 
 k-points in units of 2pi/SCALE and weight: Mo2C                                    
   0.00833333  0.00833333  0.00833333       0.250
  -0.00833333  0.00833333  0.00833333       0.250
   0.00833333 -0.00833333  0.00833333       0.250
  -0.00833333 -0.00833333  0.00833333       0.250
 
 k-points in reciprocal lattice and weights: Mo2C                                    
   0.25000000  0.25000000  0.25000000       0.250
  -0.25000000  0.25000000  0.25000000       0.250
   0.25000000 -0.25000000  0.25000000       0.250
  -0.25000000 -0.25000000  0.25000000       0.250
 
 position of ions in fractional coordinates (direct lattice) 
   0.37486146  0.53562557  0.50051139
   0.37899860  0.47899928  0.48337117
   0.38015230  0.49213090  0.54110705
   0.44826418  0.44846952  0.52919685
   0.52102427  0.44012595  0.53888963
   0.55585503  0.42433979  0.46662175
   0.51410902  0.45576242  0.43790556
   0.49936644  0.40605213  0.46738953
   0.51377048  0.54667282  0.48654737
   0.59059843  0.57737529  0.53658406
   0.60845550  0.56538176  0.48134511
   0.56450586  0.60478333  0.49042437
   0.39076883  0.50362222  0.50792592
   0.44091745  0.50938637  0.50242221
   0.51368869  0.46250501  0.51084373
   0.52099332  0.43571515  0.46780040
   0.55117220  0.49788822  0.51582792
   0.57904049  0.57321727  0.50195741
   0.46619855  0.47473686  0.51730550
   0.54507645  0.53887911  0.49863216
   0.45585292  0.54342982  0.48401773
   0.58633182  0.48489897  0.53336683
 
 position of ions in cartesian coordinates  (Angst):
  11.24584366 16.06876715 15.01534172
  11.36995786 14.36997843 14.50113521
  11.40456888 14.76392686 16.23321158
  13.44792535 13.45408562 15.87590557
  15.63072820 13.20377856 16.16668890
  16.67565085 12.73019384 13.99865238
  15.42327048 13.67287255 13.13716678
  14.98099323 12.18156404 14.02168599
  15.41311444 16.40018472 14.59642112
  17.71795296 17.32125860 16.09752175
  18.25366501 16.96145268 14.44035328
  16.93517577 18.14349988 14.71273099
  11.72306496 15.10866653 15.23777762
  13.22752362 15.28159110 15.07266642
  15.41066059 13.87515042 15.32531203
  15.62979950 13.07145453 14.03401201
  16.53516603 14.93664672 15.47483771
  17.37121474 17.19651818 15.05872220
  13.98595656 14.24210582 15.51916497
  16.35229337 16.16637337 14.95896467
  13.67558768 16.30289453 14.52053188
  17.58995470 14.54696914 16.00100497
 


--------------------------------------------------------------------------------------------------------


 k-point  1 :   0.2500 0.2500 0.2500  plane waves:  490454
 k-point  2 :  -0.2500 0.2500 0.2500  plane waves:  490454
 k-point  3 :   0.2500-0.2500 0.2500  plane waves:  490454
 k-point  4 :  -0.2500-0.2500 0.2500  plane waves:  490454

 maximum and minimum number of plane-waves per node :    490454   490454

 maximum number of plane-waves:    490454
 maximum index in each direction: 
   IXMAX=   49   IYMAX=   49   IZMAX=   48
   IXMIN=  -49   IYMIN=  -49   IZMIN=  -49

 WARNING: aliasing errors must be expected set NGX to 198 to avoid them
 WARNING: aliasing errors must be expected set NGY to 198 to avoid them
 WARNING: aliasing errors must be expected set NGZ to 196 to avoid them
 aliasing errors are usually negligible using standard VASP settings
 and one can safely disregard these warnings

 serial   3D FFT for wavefunctions
 parallel 3D FFT for charge:
    minimum data exchange during FFTs selected (reduces bandwidth)


 total amount of memory used by VASP on root node  4333705. kBytes
========================================================================

   base      :      30000. kBytes
   nonlr-proj:       2400. kBytes
   fftplans  :     924480. kBytes
   grid      :    2089440. kBytes
   one-center:         67. kBytes
   wavefun   :    1287318. kBytes
 
     INWAV:  cpu time    0.0000: real time    0.0004
 Broyden mixing: mesh for mixing (old mesh)
   NGX = 97   NGY = 97   NGZ = 97
  (NGX  =300   NGY  =300   NGZ  =300)
  gives a total of 912673 points

 initial charge density was supplied:
 charge density of overlapping atoms calculated
 number of electron      58.0000000 magnetization 
 keeping initial charge density in first step


--------------------------------------------------------------------------------------------------------


 Maximum index for non-local projection operator         2271
 Maximum index for augmentation-charges         1574 (set IRDMAX)


--------------------------------------------------------------------------------------------------------


 First call to EWALD:  gamma=   0.059
 Maximum number of real-space cells 3x 3x 3
 Maximum number of reciprocal cells 3x 3x 3

 FEWALD executed in parallel
    FEWALD:  cpu time    0.0050: real time    0.0050


----------------------------------------- Iteration    1(   1)  ---------------------------------------


    POTLOK:  cpu time   21.0348: real time   21.0175
    SETDIJ:  cpu time    0.0290: real time    0.0295
     EDDAV:  cpu time  272.5306: real time  272.3066
       DOS:  cpu time    0.0000: real time    0.0009
    --------------------------------------------
      LOOP:  cpu time  293.5964: real time  293.3593

 eigenvalue-minimisations  :   392
 total energy-change (2. order) : 0.6091318E+03  (-0.7958588E+03)
 number of electron      58.0000000 magnetization 
 augmentation part       58.0000000 magnetization 

 Free energy of the ion-electron system (eV)
  ---------------------------------------------------
  alpha Z        PSCENC =         0.51957394
  Ewald energy   TEWEN  =      6048.10638704
  -Hartree energ DENC   =     -7792.02009362
  -exchange      EXHF   =         0.00000000
  -V(xc)+E(xc)   XCENC  =       201.93538684
  PAW double counting   =      1779.70502452    -1789.20730229
  entropy T*S    EENTRO =        -0.79403370
  eigenvalues    EBANDS =      -265.09647335
  atomic energy  EATOM  =      2425.98333211
  Solvation  Ediel_sol  =         0.00000000
  ---------------------------------------------------
  free energy    TOTEN  =       609.13180148 eV

  energy without entropy =      609.92583518  energy(sigma->0) =      609.52881833


--------------------------------------------------------------------------------------------------------




----------------------------------------- Iteration    1(   2)  ---------------------------------------


     EDDAV:  cpu time  376.1128: real time  375.8050
       DOS:  cpu time    0.0010: real time    0.0008
    --------------------------------------------
      LOOP:  cpu time  376.1158: real time  375.8089

 eigenvalue-minimisations  :   579
 total energy-change (2. order) :-0.3368640E+03  (-0.3258154E+03)
 number of electron      58.0000000 magnetization 
 augmentation part       58.0000000 magnetization 

 Free energy of the ion-electron system (eV)
  ---------------------------------------------------
  alpha Z        PSCENC =         0.51957394
  Ewald energy   TEWEN  =      6048.10638704
  -Hartree energ DENC   =     -7792.02009362
  -exchange      EXHF   =         0.00000000
  -V(xc)+E(xc)   XCENC  =       201.93538684
  PAW double counting   =      1779.70502452    -1789.20730229
  entropy T*S    EENTRO =        -0.47022204
  eigenvalues    EBANDS =      -602.28430770
  atomic energy  EATOM  =      2425.98333211
  Solvation  Ediel_sol  =         0.00000000
  ---------------------------------------------------
  free energy    TOTEN  =       272.26777879 eV

  energy without entropy =      272.73800083  energy(sigma->0) =      272.50288981


--------------------------------------------------------------------------------------------------------




----------------------------------------- Iteration    1(   3)  ---------------------------------------


     EDDAV:  cpu time  329.0790: real time  328.8101
       DOS:  cpu time    0.0000: real time    0.0005
    --------------------------------------------
      LOOP:  cpu time  329.0810: real time  328.8142

 eigenvalue-minimisations  :   496
 total energy-change (2. order) :-0.3191815E+03  (-0.3106247E+03)
 number of electron      58.0000000 magnetization 
 augmentation part       58.0000000 magnetization 

 Free energy of the ion-electron system (eV)
  ---------------------------------------------------
  alpha Z        PSCENC =         0.51957394
  Ewald energy   TEWEN  =      6048.10638704
  -Hartree energ DENC   =     -7792.02009362
  -exchange      EXHF   =         0.00000000
  -V(xc)+E(xc)   XCENC  =       201.93538684
  PAW double counting   =      1779.70502452    -1789.20730229
  entropy T*S    EENTRO =        -0.00000211
  eigenvalues    EBANDS =      -921.93606401
  atomic energy  EATOM  =      2425.98333211
  Solvation  Ediel_sol  =         0.00000000
  ---------------------------------------------------
  free energy    TOTEN  =       -46.91375759 eV

  energy without entropy =      -46.91375548  energy(sigma->0) =      -46.91375653


--------------------------------------------------------------------------------------------------------




----------------------------------------- Iteration    1(   4)  ---------------------------------------


     EDDAV:  cpu time  275.9231: real time  275.6972
       DOS:  cpu time    0.0000: real time    0.0005
    --------------------------------------------
      LOOP:  cpu time  275.9251: real time  275.7009

 eigenvalue-minimisations  :   398
 total energy-change (2. order) :-0.8989323E+02  (-0.8976579E+02)
 number of electron      58.0000000 magnetization 
 augmentation part       58.0000000 magnetization 

 Free energy of the ion-electron system (eV)
  ---------------------------------------------------
  alpha Z        PSCENC =         0.51957394
  Ewald energy   TEWEN  =      6048.10638704
  -Hartree energ DENC   =     -7792.02009362
  -exchange      EXHF   =         0.00000000
  -V(xc)+E(xc)   XCENC  =       201.93538684
  PAW double counting   =      1779.70502452    -1789.20730229
  entropy T*S    EENTRO =         0.00000000
  eigenvalues    EBANDS =     -1011.82929845
  atomic energy  EATOM  =      2425.98333211
  Solvation  Ediel_sol  =         0.00000000
  ---------------------------------------------------
  free energy    TOTEN  =      -136.80698992 eV

  energy without entropy =     -136.80698992  energy(sigma->0) =     -136.80698992


--------------------------------------------------------------------------------------------------------




----------------------------------------- Iteration    1(   5)  ---------------------------------------


     EDDAV:  cpu time  315.8930: real time  315.6348
       DOS:  cpu time    0.0000: real time    0.0005
    CHARGE:  cpu time   18.1482: real time   18.1331
    MIXING:  cpu time    0.6349: real time    0.6339
    --------------------------------------------
      LOOP:  cpu time  334.6771: real time  334.4057

 eigenvalue-minimisations  :   464
 total energy-change (2. order) :-0.4872784E+01  (-0.4862156E+01)
 number of electron      58.0000026 magnetization 
 augmentation part        2.9669916 magnetization 

 Broyden mixing:
  rms(total) = 0.19507E+01    rms(broyden)= 0.19484E+01
  rms(prec ) = 0.20258E+01
  weight for this iteration     100.00

 Free energy of the ion-electron system (eV)
  ---------------------------------------------------
  alpha Z        PSCENC =         0.51957394
  Ewald energy   TEWEN  =      6048.10638704
  -Hartree energ DENC   =     -7792.02009362
  -exchange      EXHF   =         0.00000000
  -V(xc)+E(xc)   XCENC  =       201.93538684
  PAW double counting   =      1779.70502452    -1789.20730229
  entropy T*S    EENTRO =         0.00000000
  eigenvalues    EBANDS =     -1016.70208221
  atomic energy  EATOM  =      2425.98333211
  Solvation  Ediel_sol  =         0.00000000
  ---------------------------------------------------
  free energy    TOTEN  =      -141.67977368 eV

  energy without entropy =     -141.67977368  energy(sigma->0) =     -141.67977368


--------------------------------------------------------------------------------------------------------




----------------------------------------- Iteration    1(   6)  ---------------------------------------


    POTLOK:  cpu time   20.4519: real time   20.4362
    SETDIJ:  cpu time    0.0290: real time    0.0293
     EDDAV:  cpu time  288.5611: real time  288.3241
       DOS:  cpu time    0.0000: real time    0.0005
    CHARGE:  cpu time   16.5595: real time   16.5454
    MIXING:  cpu time    0.6229: real time    0.6227
    --------------------------------------------
      LOOP:  cpu time  326.2264: real time  325.9614

 eigenvalue-minimisations  :   429
 total energy-change (2. order) : 0.1012964E+02  (-0.2368989E+01)
 number of electron      58.0000018 magnetization 
 augmentation part        2.6287736 magnetization 

 Broyden mixing:
  rms(total) = 0.99381E+00    rms(broyden)= 0.99337E+00
  rms(prec ) = 0.10219E+01
  weight for this iteration     100.00

 eigenvalues of (default mixing * dielectric matrix)
  average eigenvalue GAMMA=   1.2797
  1.2797

 Free energy of the ion-electron system (eV)
  ---------------------------------------------------
  alpha Z        PSCENC =         0.51957394
  Ewald energy   TEWEN  =      6048.10638704
  -Hartree energ DENC   =     -7906.56957644
  -exchange      EXHF   =         0.00000000
  -V(xc)+E(xc)   XCENC  =       208.01814572
  PAW double counting   =      2770.21622763    -2781.06965496
  entropy T*S    EENTRO =         0.00000000
  eigenvalues    EBANDS =      -896.75456752
  atomic energy  EATOM  =      2425.98333211
  Solvation  Ediel_sol  =         0.00000000
  ---------------------------------------------------
  free energy    TOTEN  =      -131.55013248 eV

  energy without entropy =     -131.55013248  energy(sigma->0) =     -131.55013248


--------------------------------------------------------------------------------------------------------




----------------------------------------- Iteration    1(   7)  ---------------------------------------


    POTLOK:  cpu time   18.2322: real time   18.2171
    SETDIJ:  cpu time    0.0280: real time    0.0284
     EDDAV:  cpu time  271.0218: real time  270.7957
       DOS:  cpu time    0.0010: real time    0.0005
    CHARGE:  cpu time   18.8571: real time   18.8419
    MIXING:  cpu time    0.6999: real time    0.6996
    --------------------------------------------
      LOOP:  cpu time  308.8410: real time  308.5870

 eigenvalue-minimisations  :   424
 total energy-change (2. order) : 0.1733384E+01  (-0.4549661E+00)
 number of electron      58.0000021 magnetization 
 augmentation part        2.6138616 magnetization 

 Broyden mixing:
  rms(total) = 0.51309E+00    rms(broyden)= 0.51298E+00
  rms(prec ) = 0.52574E+00
  weight for this iteration     100.00

 eigenvalues of (default mixing * dielectric matrix)
  average eigenvalue GAMMA=   1.5762
  1.1160  2.0364

 Free energy of the ion-electron system (eV)
  ---------------------------------------------------
  alpha Z        PSCENC =         0.51957394
  Ewald energy   TEWEN  =      6048.10638704
  -Hartree energ DENC   =     -7968.38985106
  -exchange      EXHF   =         0.00000000
  -V(xc)+E(xc)   XCENC  =       211.05933860
  PAW double counting   =      3733.62293005    -3744.74789176
  entropy T*S    EENTRO =         0.00000000
  eigenvalues    EBANDS =      -835.97056762
  atomic energy  EATOM  =      2425.98333211
  Solvation  Ediel_sol  =         0.00000000
  ---------------------------------------------------
  free energy    TOTEN  =      -129.81674869 eV

  energy without entropy =     -129.81674869  energy(sigma->0) =     -129.81674869


--------------------------------------------------------------------------------------------------------




----------------------------------------- Iteration    1(   8)  ---------------------------------------


    POTLOK:  cpu time   21.4317: real time   21.4139
    SETDIJ:  cpu time    0.0300: real time    0.0305
     EDDAV:  cpu time  299.2395: real time  298.9947
       DOS:  cpu time    0.0000: real time    0.0005
    CHARGE:  cpu time   17.4293: real time   17.4154
    MIXING:  cpu time    0.7139: real time    0.7133
    --------------------------------------------
      LOOP:  cpu time  338.8475: real time  338.5765

 eigenvalue-minimisations  :   432
 total energy-change (2. order) : 0.4877731E+00  (-0.8646538E-01)
 number of electron      58.0000021 magnetization 
 augmentation part        2.5882577 magnetization 

 Broyden mixing:
  rms(total) = 0.14909E+00    rms(broyden)= 0.14903E+00
  rms(prec ) = 0.15688E+00
  weight for this iteration     100.00

 eigenvalues of (default mixing * dielectric matrix)
  average eigenvalue GAMMA=   1.5412
  2.3819  0.9616  1.2800

 Free energy of the ion-electron system (eV)
  ---------------------------------------------------
  alpha Z        PSCENC =         0.51957394
  Ewald energy   TEWEN  =      6048.10638704
  -Hartree energ DENC   =     -8008.79641313
  -exchange      EXHF   =         0.00000000
  -V(xc)+E(xc)   XCENC  =       213.17182593
  PAW double counting   =      4551.89131888    -4563.19339518
  entropy T*S    EENTRO =         0.00000000
  eigenvalues    EBANDS =      -797.01160521
  atomic energy  EATOM  =      2425.98333211
  Solvation  Ediel_sol  =         0.00000000
  ---------------------------------------------------
  free energy    TOTEN  =      -129.32897562 eV

  energy without entropy =     -129.32897562  energy(sigma->0) =     -129.32897562


--------------------------------------------------------------------------------------------------------




----------------------------------------- Iteration    1(   9)  ---------------------------------------


    POTLOK:  cpu time   20.4659: real time   20.4497
    SETDIJ:  cpu time    0.0290: real time    0.0292
     EDDAV:  cpu time  306.8753: real time  306.6232
       DOS:  cpu time    0.0000: real time    0.0005
    CHARGE:  cpu time   16.0176: real time   16.0037
    MIXING:  cpu time    0.7009: real time    0.7007
    --------------------------------------------
      LOOP:  cpu time  344.0907: real time  343.8109

 eigenvalue-minimisations  :   464
 total energy-change (2. order) : 0.6592357E-01  (-0.9976890E-02)
 number of electron      58.0000020 magnetization 
 augmentation part        2.5787415 magnetization 

 Broyden mixing:
  rms(total) = 0.57090E-01    rms(broyden)= 0.57061E-01
  rms(prec ) = 0.65685E-01
  weight for this iteration     100.00

 eigenvalues of (default mixing * dielectric matrix)
  average eigenvalue GAMMA=   1.5221
  2.1967  1.0562  1.0562  1.7792

 Free energy of the ion-electron system (eV)
  ---------------------------------------------------
  alpha Z        PSCENC =         0.51957394
  Ewald energy   TEWEN  =      6048.10638704
  -Hartree energ DENC   =     -8022.18798990
  -exchange      EXHF   =         0.00000000
  -V(xc)+E(xc)   XCENC  =       213.71995842
  PAW double counting   =      4776.51152188    -4787.78850927
  entropy T*S    EENTRO =         0.00000000
  eigenvalues    EBANDS =      -784.12732628
  atomic energy  EATOM  =      2425.98333211
  Solvation  Ediel_sol  =         0.00000000
  ---------------------------------------------------
  free energy    TOTEN  =      -129.26305205 eV

  energy without entropy =     -129.26305205  energy(sigma->0) =     -129.26305205


--------------------------------------------------------------------------------------------------------




----------------------------------------- Iteration    1(  10)  ---------------------------------------


    POTLOK:  cpu time   18.9231: real time   18.9072
    SETDIJ:  cpu time    0.0290: real time    0.0290
     EDDAV:  cpu time  313.5833: real time  313.3268
       DOS:  cpu time    0.0010: real time    0.0005
    CHARGE:  cpu time   17.6043: real time   17.5901
    MIXING:  cpu time    0.8299: real time    0.8288
    --------------------------------------------
      LOOP:  cpu time  350.9716: real time  350.6858

 eigenvalue-minimisations  :   448
 total energy-change (2. order) : 0.1180465E-01  (-0.2449603E-02)
 number of electron      58.0000021 magnetization 
 augmentation part        2.5851792 magnetization 

 Broyden mixing:
  rms(total) = 0.25580E-01    rms(broyden)= 0.25557E-01
  rms(prec ) = 0.35701E-01
  weight for this iteration     100.00

 eigenvalues of (default mixing * dielectric matrix)
  average eigenvalue GAMMA=   1.4948
  2.1735  2.1735  0.9802  0.9802  1.1665

 Free energy of the ion-electron system (eV)
  ---------------------------------------------------
  alpha Z        PSCENC =         0.51957394
  Ewald energy   TEWEN  =      6048.10638704
  -Hartree energ DENC   =     -8027.21968343
  -exchange      EXHF   =         0.00000000
  -V(xc)+E(xc)   XCENC  =       213.73376104
  PAW double counting   =      4770.61967254    -4781.84515395
  entropy T*S    EENTRO =         0.00000000
  eigenvalues    EBANDS =      -779.14913670
  atomic energy  EATOM  =      2425.98333211
  Solvation  Ediel_sol  =         0.00000000
  ---------------------------------------------------
  free energy    TOTEN  =      -129.25124740 eV

  energy without entropy =     -129.25124740  energy(sigma->0) =     -129.25124740


--------------------------------------------------------------------------------------------------------




----------------------------------------- Iteration    1(  11)  ---------------------------------------


    POTLOK:  cpu time   20.8198: real time   20.8027
    SETDIJ:  cpu time    0.0290: real time    0.0292
     EDDAV:  cpu time  310.0829: real time  309.8294
       DOS:  cpu time    0.0000: real time    0.0005
    CHARGE:  cpu time   16.3485: real time   16.3348
    MIXING:  cpu time    0.8039: real time    0.8028
    --------------------------------------------
      LOOP:  cpu time  348.0851: real time  347.8032

 eigenvalue-minimisations  :   456
 total energy-change (2. order) : 0.5524242E-02  (-0.8403202E-03)
 number of electron      58.0000021 magnetization 
 augmentation part        2.5808238 magnetization 

 Broyden mixing:
  rms(total) = 0.16024E-01    rms(broyden)= 0.16016E-01
  rms(prec ) = 0.24797E-01
  weight for this iteration     100.00

 eigenvalues of (default mixing * dielectric matrix)
  average eigenvalue GAMMA=   1.5466
  2.4691  2.4691  0.9449  0.9449  1.2257  1.2257

 Free energy of the ion-electron system (eV)
  ---------------------------------------------------
  alpha Z        PSCENC =         0.51957394
  Ewald energy   TEWEN  =      6048.10638704
  -Hartree energ DENC   =     -8033.15380539
  -exchange      EXHF   =         0.00000000
  -V(xc)+E(xc)   XCENC  =       213.84159793
  PAW double counting   =      4773.63322430    -4784.85833684
  entropy T*S    EENTRO =         0.00000000
  eigenvalues    EBANDS =      -773.31769626
  atomic energy  EATOM  =      2425.98333211
  Solvation  Ediel_sol  =         0.00000000
  ---------------------------------------------------
  free energy    TOTEN  =      -129.24572316 eV

  energy without entropy =     -129.24572316  energy(sigma->0) =     -129.24572316


--------------------------------------------------------------------------------------------------------




----------------------------------------- Iteration    1(  12)  ---------------------------------------


    POTLOK:  cpu time   18.2162: real time   18.2020
    SETDIJ:  cpu time    0.0290: real time    0.0286
     EDDAV:  cpu time  293.3704: real time  293.1311
       DOS:  cpu time    0.0000: real time    0.0005
    CHARGE:  cpu time   18.4042: real time   18.3895
    MIXING:  cpu time    0.9479: real time    0.9465
    --------------------------------------------
      LOOP:  cpu time  330.9697: real time  330.7021

 eigenvalue-minimisations  :   408
 total energy-change (2. order) :-0.7148005E-03  (-0.5632447E-03)
 number of electron      58.0000020 magnetization 
 augmentation part        2.5802509 magnetization 

 Broyden mixing:
  rms(total) = 0.98734E-02    rms(broyden)= 0.98692E-02
  rms(prec ) = 0.16067E-01
  weight for this iteration     100.00

 eigenvalues of (default mixing * dielectric matrix)
  average eigenvalue GAMMA=   1.5958
  2.7194  2.7194  1.2892  1.2536  1.2536  0.9678  0.9678

 Free energy of the ion-electron system (eV)
  ---------------------------------------------------
  alpha Z        PSCENC =         0.51957394
  Ewald energy   TEWEN  =      6048.10638704
  -Hartree energ DENC   =     -8039.59542595
  -exchange      EXHF   =         0.00000000
  -V(xc)+E(xc)   XCENC  =       213.92291912
  PAW double counting   =      4768.64483821    -4779.86051931
  entropy T*S    EENTRO =         0.00000000
  eigenvalues    EBANDS =      -766.96754313
  atomic energy  EATOM  =      2425.98333211
  Solvation  Ediel_sol  =         0.00000000
  ---------------------------------------------------
  free energy    TOTEN  =      -129.24643796 eV

  energy without entropy =     -129.24643796  energy(sigma->0) =     -129.24643796


--------------------------------------------------------------------------------------------------------




----------------------------------------- Iteration    1(  13)  ---------------------------------------


    POTLOK:  cpu time   20.8508: real time   20.8349
    SETDIJ:  cpu time    0.0300: real time    0.0298
     EDDAV:  cpu time  319.7324: real time  319.4708
       DOS:  cpu time    0.0010: real time    0.0005
    CHARGE:  cpu time   16.8144: real time   16.8019
    MIXING:  cpu time    0.9699: real time    0.9691
    --------------------------------------------
      LOOP:  cpu time  358.4005: real time  358.1108

 eigenvalue-minimisations  :   464
 total energy-change (2. order) :-0.6207603E-02  (-0.4052122E-03)
 number of electron      58.0000020 magnetization 
 augmentation part        2.5792229 magnetization 

 Broyden mixing:
  rms(total) = 0.58429E-02    rms(broyden)= 0.58376E-02
  rms(prec ) = 0.96564E-02
  weight for this iteration     100.00

 eigenvalues of (default mixing * dielectric matrix)
  average eigenvalue GAMMA=   1.7118
  4.1234  2.4853  1.6482  1.3962  1.0925  0.9844  0.9821  0.9821

 Free energy of the ion-electron system (eV)
  ---------------------------------------------------
  alpha Z        PSCENC =         0.51957394
  Ewald energy   TEWEN  =      6048.10638704
  -Hartree energ DENC   =     -8045.02028478
  -exchange      EXHF   =         0.00000000
  -V(xc)+E(xc)   XCENC  =       213.98402827
  PAW double counting   =      4762.43383747    -4773.64821548
  entropy T*S    EENTRO =         0.00000000
  eigenvalues    EBANDS =      -761.61130413
  atomic energy  EATOM  =      2425.98333211
  Solvation  Ediel_sol  =         0.00000000
  ---------------------------------------------------
  free energy    TOTEN  =      -129.25264556 eV

  energy without entropy =     -129.25264556  energy(sigma->0) =     -129.25264556


--------------------------------------------------------------------------------------------------------




----------------------------------------- Iteration    1(  14)  ---------------------------------------


    POTLOK:  cpu time   19.1081: real time   19.0924
    SETDIJ:  cpu time    0.0290: real time    0.0287
     EDDAV:  cpu time  301.7361: real time  301.4905
       DOS:  cpu time    0.0000: real time    0.0005
    CHARGE:  cpu time   17.8733: real time   17.8586
    MIXING:  cpu time    1.0898: real time    1.0892
    --------------------------------------------
      LOOP:  cpu time  339.8383: real time  339.5644

 eigenvalue-minimisations  :   430
 total energy-change (2. order) :-0.6838298E-02  (-0.1987616E-03)
 number of electron      58.0000020 magnetization 
 augmentation part        2.5783516 magnetization 

 Broyden mixing:
  rms(total) = 0.37959E-02    rms(broyden)= 0.37920E-02
  rms(prec ) = 0.58410E-02
  weight for this iteration     100.00

 eigenvalues of (default mixing * dielectric matrix)
  average eigenvalue GAMMA=   1.8300
  5.0935  2.4248  2.2159  1.3680  1.2224  1.2224  0.9825  0.9701  0.9701

 Free energy of the ion-electron system (eV)
  ---------------------------------------------------
  alpha Z        PSCENC =         0.51957394
  Ewald energy   TEWEN  =      6048.10638704
  -Hartree energ DENC   =     -8048.70766685
  -exchange      EXHF   =         0.00000000
  -V(xc)+E(xc)   XCENC  =       214.01173864
  PAW double counting   =      4757.28243970    -4768.49453562
  entropy T*S    EENTRO =         0.00000000
  eigenvalues    EBANDS =      -757.96075282
  atomic energy  EATOM  =      2425.98333211
  Solvation  Ediel_sol  =         0.00000000
  ---------------------------------------------------
  free energy    TOTEN  =      -129.25948386 eV

  energy without entropy =     -129.25948386  energy(sigma->0) =     -129.25948386


--------------------------------------------------------------------------------------------------------




----------------------------------------- Iteration    1(  15)  ---------------------------------------


    POTLOK:  cpu time   20.4279: real time   20.4117
    SETDIJ:  cpu time    0.0290: real time    0.0297
     EDDAV:  cpu time  303.4519: real time  303.2033
       DOS:  cpu time    0.0000: real time    0.0005
    CHARGE:  cpu time   17.4413: real time   17.4274
    MIXING:  cpu time    1.1428: real time    1.1420
    --------------------------------------------
      LOOP:  cpu time  342.4949: real time  342.2181

 eigenvalue-minimisations  :   430
 total energy-change (2. order) :-0.7902211E-02  (-0.8870513E-04)
 number of electron      58.0000020 magnetization 
 augmentation part        2.5782261 magnetization 

 Broyden mixing:
  rms(total) = 0.24536E-02    rms(broyden)= 0.24519E-02
  rms(prec ) = 0.35713E-02
  weight for this iteration     100.00

 eigenvalues of (default mixing * dielectric matrix)
  average eigenvalue GAMMA=   1.9119
  5.6368  2.8121  2.3457  1.6742  1.5680  0.9347  1.0280  1.0280  1.0457  1.0457

 Free energy of the ion-electron system (eV)
  ---------------------------------------------------
  alpha Z        PSCENC =         0.51957394
  Ewald energy   TEWEN  =      6048.10638704
  -Hartree energ DENC   =     -8050.40689499
  -exchange      EXHF   =         0.00000000
  -V(xc)+E(xc)   XCENC  =       214.01029129
  PAW double counting   =      4756.53876284    -4767.74931264
  entropy T*S    EENTRO =         0.00000000
  eigenvalues    EBANDS =      -756.26952567
  atomic energy  EATOM  =      2425.98333211
  Solvation  Ediel_sol  =         0.00000000
  ---------------------------------------------------
  free energy    TOTEN  =      -129.26738607 eV

  energy without entropy =     -129.26738607  energy(sigma->0) =     -129.26738607


--------------------------------------------------------------------------------------------------------




----------------------------------------- Iteration    1(  16)  ---------------------------------------


    POTLOK:  cpu time   19.7510: real time   19.7355
    SETDIJ:  cpu time    0.0290: real time    0.0295
     EDDAV:  cpu time  264.1338: real time  263.9169
       DOS:  cpu time    0.0000: real time    0.0005
    CHARGE:  cpu time   17.5353: real time   17.5202
    MIXING:  cpu time    1.2098: real time    1.2092
    --------------------------------------------
      LOOP:  cpu time  302.6620: real time  302.4156

 eigenvalue-minimisations  :   372
 total energy-change (2. order) :-0.6005577E-02  (-0.4757845E-04)
 number of electron      58.0000020 magnetization 
 augmentation part        2.5782183 magnetization 

 Broyden mixing:
  rms(total) = 0.13349E-02    rms(broyden)= 0.13344E-02
  rms(prec ) = 0.19917E-02
  weight for this iteration     100.00

 eigenvalues of (default mixing * dielectric matrix)
  average eigenvalue GAMMA=   1.9710
  6.4206  3.1890  2.3266  1.9964  1.3536  1.3536  0.9709  1.0222  1.0222  1.0132
  1.0132

 Free energy of the ion-electron system (eV)
  ---------------------------------------------------
  alpha Z        PSCENC =         0.51957394
  Ewald energy   TEWEN  =      6048.10638704
  -Hartree energ DENC   =     -8051.05900073
  -exchange      EXHF   =         0.00000000
  -V(xc)+E(xc)   XCENC  =       214.00125321
  PAW double counting   =      4756.56269257    -4767.77294908
  entropy T*S    EENTRO =         0.00000000
  eigenvalues    EBANDS =      -755.61468070
  atomic energy  EATOM  =      2425.98333211
  Solvation  Ediel_sol  =         0.00000000
  ---------------------------------------------------
  free energy    TOTEN  =      -129.27339165 eV

  energy without entropy =     -129.27339165  energy(sigma->0) =     -129.27339165


--------------------------------------------------------------------------------------------------------




----------------------------------------- Iteration    1(  17)  ---------------------------------------


    POTLOK:  cpu time   21.2428: real time   21.2262
    SETDIJ:  cpu time    0.0290: real time    0.0288
     EDDAV:  cpu time  256.0861: real time  255.8770
       DOS:  cpu time    0.0000: real time    0.0005
    CHARGE:  cpu time   18.6322: real time   18.6168
    MIXING:  cpu time    1.3118: real time    1.3108
    --------------------------------------------
      LOOP:  cpu time  297.3038: real time  297.0642

 eigenvalue-minimisations  :   336
 total energy-change (2. order) :-0.2641033E-02  (-0.1268895E-04)
 number of electron      58.0000020 magnetization 
 augmentation part        2.5781960 magnetization 

 Broyden mixing:
  rms(total) = 0.86156E-03    rms(broyden)= 0.86125E-03
  rms(prec ) = 0.12693E-02
  weight for this iteration     100.00

 eigenvalues of (default mixing * dielectric matrix)
  average eigenvalue GAMMA=   2.0553
  7.1489  3.7265  2.2910  2.2910  1.5397  1.5397  1.0498  1.0498  1.0044  1.0044
  1.0089  1.0089

 Free energy of the ion-electron system (eV)
  ---------------------------------------------------
  alpha Z        PSCENC =         0.51957394
  Ewald energy   TEWEN  =      6048.10638704
  -Hartree energ DENC   =     -8051.36050608
  -exchange      EXHF   =         0.00000000
  -V(xc)+E(xc)   XCENC  =       213.99677618
  PAW double counting   =      4756.62759705    -4767.83755214
  entropy T*S    EENTRO =         0.00000000
  eigenvalues    EBANDS =      -755.31164078
  atomic energy  EATOM  =      2425.98333211
  Solvation  Ediel_sol  =         0.00000000
  ---------------------------------------------------
  free energy    TOTEN  =      -129.27603268 eV

  energy without entropy =     -129.27603268  energy(sigma->0) =     -129.27603268


--------------------------------------------------------------------------------------------------------




----------------------------------------- Iteration    1(  18)  ---------------------------------------


    POTLOK:  cpu time   21.2628: real time   21.2458
    SETDIJ:  cpu time    0.0290: real time    0.0288
     EDDAV:  cpu time  215.5902: real time  215.4130
       DOS:  cpu time    0.0000: real time    0.0005
    CHARGE:  cpu time   16.3395: real time   16.3264
    MIXING:  cpu time    1.1498: real time    1.1479
    --------------------------------------------
      LOOP:  cpu time  254.3723: real time  254.1661

 eigenvalue-minimisations  :   288
 total energy-change (2. order) :-0.1866717E-02  (-0.1331922E-04)
 number of electron      58.0000020 magnetization 
 augmentation part        2.5781600 magnetization 

 Broyden mixing:
  rms(total) = 0.52824E-03    rms(broyden)= 0.52802E-03
  rms(prec ) = 0.74247E-03
  weight for this iteration     100.00

 eigenvalues of (default mixing * dielectric matrix)
  average eigenvalue GAMMA=   2.0960
  7.5857  4.1991  2.4471  2.3236  1.8163  1.4294  1.4294  1.0547  1.0547  0.9878
  0.9878  0.9664  0.9664

 Free energy of the ion-electron system (eV)
  ---------------------------------------------------
  alpha Z        PSCENC =         0.51957394
  Ewald energy   TEWEN  =      6048.10638704
  -Hartree energ DENC   =     -8051.53159343
  -exchange      EXHF   =         0.00000000
  -V(xc)+E(xc)   XCENC  =       213.99379964
  PAW double counting   =      4756.87893149    -4768.08888523
  entropy T*S    EENTRO =         0.00000000
  eigenvalues    EBANDS =      -755.13944496
  atomic energy  EATOM  =      2425.98333211
  Solvation  Ediel_sol  =         0.00000000
  ---------------------------------------------------
  free energy    TOTEN  =      -129.27789940 eV

  energy without entropy =     -129.27789940  energy(sigma->0) =     -129.27789940


--------------------------------------------------------------------------------------------------------




----------------------------------------- Iteration    1(  19)  ---------------------------------------


    POTLOK:  cpu time   18.1402: real time   18.1261
    SETDIJ:  cpu time    0.0290: real time    0.0283
     EDDAV:  cpu time  275.8301: real time  275.6048
       DOS:  cpu time    0.0010: real time    0.0005
    CHARGE:  cpu time   19.4820: real time   19.4667
    MIXING:  cpu time    1.6637: real time    1.6625
    --------------------------------------------
      LOOP:  cpu time  315.1471: real time  314.8928

 eigenvalue-minimisations  :   368
 total energy-change (2. order) :-0.8335245E-03  (-0.4559906E-05)
 number of electron      58.0000020 magnetization 
 augmentation part        2.5781275 magnetization 

 Broyden mixing:
  rms(total) = 0.30113E-03    rms(broyden)= 0.30101E-03
  rms(prec ) = 0.43443E-03
  weight for this iteration     100.00

 eigenvalues of (default mixing * dielectric matrix)
  average eigenvalue GAMMA=   2.1510
  8.1342  4.7660  2.6223  2.6223  1.6328  1.6328  1.5238  1.0569  1.0569  0.9440
  1.0645  1.0645  0.9962  0.9962

 Free energy of the ion-electron system (eV)
  ---------------------------------------------------
  alpha Z        PSCENC =         0.51957394
  Ewald energy   TEWEN  =      6048.10638704
  -Hartree energ DENC   =     -8051.60908674
  -exchange      EXHF   =         0.00000000
  -V(xc)+E(xc)   XCENC  =       213.99350963
  PAW double counting   =      4757.05870602    -4768.26880485
  entropy T*S    EENTRO =         0.00000000
  eigenvalues    EBANDS =      -755.06235007
  atomic energy  EATOM  =      2425.98333211
  Solvation  Ediel_sol  =         0.00000000
  ---------------------------------------------------
  free energy    TOTEN  =      -129.27873292 eV

  energy without entropy =     -129.27873292  energy(sigma->0) =     -129.27873292


--------------------------------------------------------------------------------------------------------




----------------------------------------- Iteration    1(  20)  ---------------------------------------


    POTLOK:  cpu time   21.9827: real time   21.9651
    SETDIJ:  cpu time    0.0290: real time    0.0294
     EDDAV:  cpu time  215.7172: real time  215.5411
       DOS:  cpu time    0.0000: real time    0.0006
    CHARGE:  cpu time   17.8573: real time   17.8426
    MIXING:  cpu time    1.6228: real time    1.6210
    --------------------------------------------
      LOOP:  cpu time  257.2119: real time  257.0040

 eigenvalue-minimisations  :   268
 total energy-change (2. order) :-0.4109393E-03  (-0.1736414E-05)
 number of electron      58.0000020 magnetization 
 augmentation part        2.5781294 magnetization 

 Broyden mixing:
  rms(total) = 0.19461E-03    rms(broyden)= 0.19452E-03
  rms(prec ) = 0.27004E-03
  weight for this iteration     100.00

 eigenvalues of (default mixing * dielectric matrix)
  average eigenvalue GAMMA=   2.1596
  8.3089  5.2179  2.8839  2.4404  2.0385  1.6201  1.3297  1.3297  1.0399  1.0399
  1.0858  1.0858  0.9904  0.9914  0.9914

 Free energy of the ion-electron system (eV)
  ---------------------------------------------------
  alpha Z        PSCENC =         0.51957394
  Ewald energy   TEWEN  =      6048.10638704
  -Hartree energ DENC   =     -8051.62554214
  -exchange      EXHF   =         0.00000000
  -V(xc)+E(xc)   XCENC  =       213.99217858
  PAW double counting   =      4756.77930391    -4767.98930656
  entropy T*S    EENTRO =         0.00000000
  eigenvalues    EBANDS =      -755.04507075
  atomic energy  EATOM  =      2425.98333211
  Solvation  Ediel_sol  =         0.00000000
  ---------------------------------------------------
  free energy    TOTEN  =      -129.27914386 eV

  energy without entropy =     -129.27914386  energy(sigma->0) =     -129.27914386


--------------------------------------------------------------------------------------------------------




----------------------------------------- Iteration    1(  21)  ---------------------------------------


    POTLOK:  cpu time   20.8868: real time   20.8699
    SETDIJ:  cpu time    0.0310: real time    0.0316
     EDDAV:  cpu time  260.7854: real time  260.5719
       DOS:  cpu time    0.0000: real time    0.0005
    CHARGE:  cpu time   20.0739: real time   20.0580
    MIXING:  cpu time    1.8977: real time    1.8960
    --------------------------------------------
      LOOP:  cpu time  303.6778: real time  303.4316

 eigenvalue-minimisations  :   368
 total energy-change (2. order) :-0.1978098E-03  (-0.7819058E-06)
 number of electron      58.0000020 magnetization 
 augmentation part        2.5781136 magnetization 

 Broyden mixing:
  rms(total) = 0.12050E-03    rms(broyden)= 0.12045E-03
  rms(prec ) = 0.16819E-03
  weight for this iteration     100.00

 eigenvalues of (default mixing * dielectric matrix)
  average eigenvalue GAMMA=   2.2234
  8.5011  5.8117  3.3693  2.6384  2.3430  1.6265  1.6265  1.4423  1.1354  1.1354
  1.0425  1.0425  0.9786  0.9786  0.9909  0.9116

 Free energy of the ion-electron system (eV)
  ---------------------------------------------------
  alpha Z        PSCENC =         0.51957394
  Ewald energy   TEWEN  =      6048.10638704
  -Hartree energ DENC   =     -8051.63805127
  -exchange      EXHF   =         0.00000000
  -V(xc)+E(xc)   XCENC  =       213.99213664
  PAW double counting   =      4756.89254278    -4768.10257602
  entropy T*S    EENTRO =         0.00000000
  eigenvalues    EBANDS =      -755.03268689
  atomic energy  EATOM  =      2425.98333211
  Solvation  Ediel_sol  =         0.00000000
  ---------------------------------------------------
  free energy    TOTEN  =      -129.27934167 eV

  energy without entropy =     -129.27934167  energy(sigma->0) =     -129.27934167


--------------------------------------------------------------------------------------------------------




----------------------------------------- Iteration    1(  22)  ---------------------------------------


    POTLOK:  cpu time   21.2238: real time   21.2067
    SETDIJ:  cpu time    0.0280: real time    0.0284
     EDDAV:  cpu time  227.2505: real time  227.0647
       DOS:  cpu time    0.0000: real time    0.0006
    CHARGE:  cpu time   18.6962: real time   18.6807
    MIXING:  cpu time    1.8367: real time    1.8366
    --------------------------------------------
      LOOP:  cpu time  269.0381: real time  268.8210

 eigenvalue-minimisations  :   278
 total energy-change (2. order) :-0.1347570E-03  (-0.3567036E-06)
 number of electron      58.0000020 magnetization 
 augmentation part        2.5781201 magnetization 

 Broyden mixing:
  rms(total) = 0.86060E-04    rms(broyden)= 0.86025E-04
  rms(prec ) = 0.10675E-03
  weight for this iteration     100.00

 eigenvalues of (default mixing * dielectric matrix)
  average eigenvalue GAMMA=   2.2196
  8.5908  6.1177  3.6431  2.4750  2.4750  1.9764  1.4954  1.3350  1.3350  1.0427
  1.0427  1.1702  1.1702  0.9796  0.9796  0.9324  0.9725

 Free energy of the ion-electron system (eV)
  ---------------------------------------------------
  alpha Z        PSCENC =         0.51957394
  Ewald energy   TEWEN  =      6048.10638704
  -Hartree energ DENC   =     -8051.64797565
  -exchange      EXHF   =         0.00000000
  -V(xc)+E(xc)   XCENC  =       213.99174548
  PAW double counting   =      4756.78471460    -4767.99474475
  entropy T*S    EENTRO =         0.00000000
  eigenvalues    EBANDS =      -755.02250920
  atomic energy  EATOM  =      2425.98333211
  Solvation  Ediel_sol  =         0.00000000
  ---------------------------------------------------
  free energy    TOTEN  =      -129.27947643 eV

  energy without entropy =     -129.27947643  energy(sigma->0) =     -129.27947643


--------------------------------------------------------------------------------------------------------




----------------------------------------- Iteration    1(  23)  ---------------------------------------


    POTLOK:  cpu time   21.6397: real time   21.6222
    SETDIJ:  cpu time    0.0300: real time    0.0296
     EDDAV:  cpu time  267.6123: real time  267.3930
       DOS:  cpu time    0.0000: real time    0.0005
    --------------------------------------------
      LOOP:  cpu time  289.2830: real time  289.0490

 eigenvalue-minimisations  :   368
 total energy-change (2. order) :-0.4195264E-04  (-0.8891042E-07)
 number of electron      58.0000020 magnetization 
 augmentation part        2.5781201 magnetization 

 Free energy of the ion-electron system (eV)
  ---------------------------------------------------
  alpha Z        PSCENC =         0.51957394
  Ewald energy   TEWEN  =      6048.10638704
  -Hartree energ DENC   =     -8051.65663684
  -exchange      EXHF   =         0.00000000
  -V(xc)+E(xc)   XCENC  =       213.99171349
  PAW double counting   =      4756.80598702    -4768.01600194
  entropy T*S    EENTRO =         0.00000000
  eigenvalues    EBANDS =      -755.01387321
  atomic energy  EATOM  =      2425.98333211
  Solvation  Ediel_sol  =         0.00000000
  ---------------------------------------------------
  free energy    TOTEN  =      -129.27951838 eV

  energy without entropy =     -129.27951838  energy(sigma->0) =     -129.27951838


--------------------------------------------------------------------------------------------------------




 average (electrostatic) potential at core
  the test charge radii are     0.5201  0.6991  0.7089  0.7215
  (the norm of the test charge is              1.0000)
       1 -42.3099       2 -42.5770       3 -42.5733       4 -44.7750       5 -42.3421
       6 -41.9359       7 -41.9707       8 -42.0775       9 -43.1467      10 -41.6773
      11 -41.6835      12 -41.9670      13 -59.1084      14 -61.5762      15 -60.0596
      16 -58.7331      17 -60.7740      18 -59.0892      19 -74.8008      20 -73.8359
      21 -80.0666      22 -79.1747
 
 
 
 E-fermi :  -4.4102     XC(G=0):  -0.1525     alpha+bet : -0.0465


 k-point     1 :       0.2500    0.2500    0.2500
  band No.  band energies     occupation 
      1     -26.2403      2.00000
      2     -25.4548      2.00000
      3     -23.4832      2.00000
      4     -22.5938      2.00000
      5     -19.6064      2.00000
      6     -18.2766      2.00000
      7     -17.3527      2.00000
      8     -16.1293      2.00000
      9     -14.8744      2.00000
     10     -13.8885      2.00000
     11     -13.1173      2.00000
     12     -12.4960      2.00000
     13     -11.5744      2.00000
     14     -11.4097      2.00000
     15     -10.9653      2.00000
     16     -10.6807      2.00000
     17     -10.4236      2.00000
     18     -10.0845      2.00000
     19     -10.0569      2.00000
     20      -9.9425      2.00000
     21      -9.4005      2.00000
     22      -9.0837      2.00000
     23      -9.0200      2.00000
     24      -8.7433      2.00000
     25      -8.4091      2.00000
     26      -6.6979      2.00000
     27      -6.3201      2.00000
     28      -5.7629      2.00000
     29      -5.4183      2.00000
     30      -1.1487      0.00000
     31      -1.0233      0.00000
     32      -0.4719      0.00000
     33      -0.2563      0.00000
     34      -0.2125      0.00000
     35      -0.0521      0.00000
     36       0.0264      0.00000
     37       0.0798      0.00000
     38       0.1082      0.00000
     39       0.1159      0.00000
     40       0.1515      0.00000
     41       0.1772      0.00000

 k-point     2 :      -0.2500    0.2500    0.2500
  band No.  band energies     occupation 
      1     -26.2403      2.00000
      2     -25.4548      2.00000
      3     -23.4832      2.00000
      4     -22.5938      2.00000
      5     -19.6064      2.00000
      6     -18.2766      2.00000
      7     -17.3527      2.00000
      8     -16.1293      2.00000
      9     -14.8744      2.00000
     10     -13.8885      2.00000
     11     -13.1173      2.00000
     12     -12.4960      2.00000
     13     -11.5744      2.00000
     14     -11.4097      2.00000
     15     -10.9653      2.00000
     16     -10.6807      2.00000
     17     -10.4236      2.00000
     18     -10.0845      2.00000
     19     -10.0569      2.00000
     20      -9.9425      2.00000
     21      -9.4005      2.00000
     22      -9.0837      2.00000
     23      -9.0199      2.00000
     24      -8.7433      2.00000
     25      -8.4091      2.00000
     26      -6.6979      2.00000
     27      -6.3201      2.00000
     28      -5.7630      2.00000
     29      -5.4183      2.00000
     30      -1.1487      0.00000
     31      -1.0233      0.00000
     32      -0.4719      0.00000
     33      -0.2563      0.00000
     34      -0.2125      0.00000
     35      -0.0514      0.00000
     36       0.0242      0.00000
     37       0.0769      0.00000
     38       0.1088      0.00000
     39       0.1189      0.00000
     40       0.1648      0.00000
     41       0.1755      0.00000

 k-point     3 :       0.2500   -0.2500    0.2500
  band No.  band energies     occupation 
      1     -26.2403      2.00000
      2     -25.4548      2.00000
      3     -23.4832      2.00000
      4     -22.5938      2.00000
      5     -19.6064      2.00000
      6     -18.2766      2.00000
      7     -17.3527      2.00000
      8     -16.1293      2.00000
      9     -14.8744      2.00000
[...]
 augmentation part        2.5804970 magnetization 

 Free energy of the ion-electron system (eV)
  ---------------------------------------------------
  alpha Z        PSCENC =         0.51957394
  Ewald energy   TEWEN  =      6092.56100723
  -Hartree energ DENC   =     -8095.96780280
  -exchange      EXHF   =         0.00000000
  -V(xc)+E(xc)   XCENC  =       214.07513730
  PAW double counting   =      4773.38701687    -4784.60311531
  entropy T*S    EENTRO =         0.00000000
  eigenvalues    EBANDS =      -755.36211376
  atomic energy  EATOM  =      2425.98333211
  Solvation  Ediel_sol  =         0.00000000
  ---------------------------------------------------
  free energy    TOTEN  =      -129.40696441 eV

  energy without entropy =     -129.40696441  energy(sigma->0) =     -129.40696441


--------------------------------------------------------------------------------------------------------




 average (electrostatic) potential at core
  the test charge radii are     0.5201  0.6991  0.7089  0.7215
  (the norm of the test charge is              1.0000)
       1 -42.3715       2 -42.5815       3 -42.6098       4 -44.8081       5 -42.3940
       6 -41.9033       7 -41.8706       8 -41.9928       9 -43.2702      10 -41.7003
      11 -41.6880      12 -42.0010      13 -59.1318      14 -61.5415      15 -60.0297
      16 -58.6536      17 -60.7476      18 -59.0920      19 -74.8006      20 -73.8734
      21 -80.0321      22 -79.2071
 
 
 
 E-fermi :  -4.4971     XC(G=0):  -0.1306     alpha+bet : -0.0465


 k-point     1 :       0.2500    0.2500    0.2500
  band No.  band energies     occupation 
      1     -26.2430      2.00000
      2     -25.4894      2.00000
      3     -23.4834      2.00000
      4     -22.6060      2.00000
      5     -19.6074      2.00000
      6     -18.2936      2.00000
      7     -17.3411      2.00000
      8     -16.1469      2.00000
      9     -14.7876      2.00000
     10     -13.9119      2.00000
     11     -13.2497      2.00000
     12     -12.5232      2.00000
     13     -11.5122      2.00000
     14     -11.4278      2.00000
     15     -10.9173      2.00000
     16     -10.7535      2.00000
     17     -10.4100      2.00000
     18     -10.0844      2.00000
     19     -10.0452      2.00000
     20      -9.9480      2.00000
     21      -9.3872      2.00000
     22      -9.1301      2.00000
     23      -8.9747      2.00000
     24      -8.7462      2.00000
     25      -8.3745      2.00000
     26      -6.7743      2.00000
     27      -6.2978      2.00000
     28      -5.7949      2.00000
     29      -5.4195      2.00000
     30      -1.1601      0.00000
     31      -1.0388      0.00000
     32      -0.4481      0.00000
     33      -0.2780      0.00000
     34      -0.1980      0.00000
     35      -0.0579      0.00000
     36       0.0506      0.00000
     37       0.1051      0.00000
     38       0.1303      0.00000
     39       0.1433      0.00000
     40       0.1756      0.00000
     41       0.1994      0.00000

 k-point     2 :      -0.2500    0.2500    0.2500
  band No.  band energies     occupation 
      1     -26.2430      2.00000
      2     -25.4894      2.00000
      3     -23.4834      2.00000
      4     -22.6060      2.00000
      5     -19.6074      2.00000
      6     -18.2936      2.00000
      7     -17.3411      2.00000
      8     -16.1469      2.00000
      9     -14.7876      2.00000
     10     -13.9119      2.00000
     11     -13.2497      2.00000
     12     -12.5232      2.00000
     13     -11.5122      2.00000
     14     -11.4278      2.00000
     15     -10.9173      2.00000
     16     -10.7535      2.00000
     17     -10.4100      2.00000
     18     -10.0844      2.00000
     19     -10.0452      2.00000
     20      -9.9480      2.00000
     21      -9.3873      2.00000
     22      -9.1301      2.00000
     23      -8.9747      2.00000
     24      -8.7462      2.00000
     25      -8.3745      2.00000
     26      -6.7743      2.00000
     27      -6.2978      2.00000
     28      -5.7950      2.00000
     29      -5.4195      2.00000
     30      -1.1601      0.00000
     31      -1.0388      0.00000
     32      -0.4481      0.00000
     33      -0.2780      0.00000
     34      -0.1980      0.00000
     35      -0.0578      0.00000
     36       0.0491      0.00000
     37       0.1034      0.00000
     38       0.1335      0.00000
     39       0.1435      0.00000
     40       0.1848      0.00000
     41       0.1995      0.00000

 k-point     3 :       0.2500   -0.2500    0.2500
  band No.  band energies     occupation 
      1     -26.2430      2.00000
      2     -25.4894      2.00000
      3     -23.4834      2.00000
      4     -22.6060      2.00000
      5     -19.6074      2.00000
      6     -18.2936      2.00000
      7     -17.3411      2.00000
      8     -16.1469      2.00000
      9     -14.7876      2.00000
     10     -13.9119      2.00000
     11     -13.2497      2.00000
     12     -12.5232      2.00000
     13     -11.5122      2.00000
     14     -11.4278      2.00000
     15     -10.9173      2.00000
     16     -10.7535      2.00000
     17     -10.4100      2.00000
     18     -10.0844      2.00000
     19     -10.0452      2.00000
     20      -9.9480      2.00000
     21      -9.3873      2.00000
     22      -9.1301      2.00000
     23      -8.9746      2.00000
     24      -8.7462      2.00000
     25      -8.3745      2.00000
     26      -6.7743      2.00000
     27      -6.2978      2.00000
     28      -5.7949      2.00000
     29      -5.4195      2.00000
     30      -1.1601      0.00000
     31      -1.0388      0.00000
     32      -0.4481      0.00000
     33      -0.2780      0.00000
     34      -0.1980      0.00000
     35      -0.0568      0.00000
     36       0.0411      0.00000
     37       0.1155      0.00000
     38       0.1295      0.00000
     39       0.1467      0.00000
     40       0.1913      0.00000
     41       0.1970      0.00000

 k-point     4 :      -0.2500   -0.2500    0.2500
  band No.  band energies     occupation 
      1     -26.2430      2.00000
      2     -25.4894      2.00000
      3     -23.4834      2.00000
      4     -22.6060      2.00000
      5     -19.6074      2.00000
      6     -18.2936      2.00000
      7     -17.3411      2.00000
      8     -16.1469      2.00000
      9     -14.7876      2.00000
     10     -13.9119      2.00000
     11     -13.2497      2.00000
     12     -12.5232      2.00000
     13     -11.5122      2.00000
     14     -11.4278      2.00000
     15     -10.9173      2.00000
     16     -10.7535      2.00000
     17     -10.4100      2.00000
     18     -10.0844      2.00000
     19     -10.0452      2.00000
     20      -9.9480      2.00000
     21      -9.3873      2.00000
     22      -9.1301      2.00000
     23      -8.9746      2.00000
     24      -8.7462      2.00000
     25      -8.3745      2.00000
     26      -6.7743      2.00000
     27      -6.2978      2.00000
     28      -5.7949      2.00000
     29      -5.4195      2.00000
     30      -1.1601      0.00000
     31      -1.0388      0.00000
     32      -0.4481      0.00000
     33      -0.2780      0.00000
     34      -0.1980      0.00000
     35      -0.0568      0.00000
     36       0.0419      0.00000
     37       0.1249      0.00000
     38       0.1310      0.00000
     39       0.1355      0.00000
     40       0.1792      0.00000
     41       0.1918      0.00000


--------------------------------------------------------------------------------------------------------


 soft charge-density along one line, spin component           1
         0         1         2         3         4         5         6         7         8         9
 total charge-density along one line
 
 pseudopotential strength for first ion, spin component:           1
 -2.353  -4.057   0.002   0.000  -0.001
 -4.057  -6.908   0.005  -0.001  -0.002
  0.002   0.005  -0.332  -0.001  -0.002
  0.000  -0.001  -0.001  -0.336   0.000
 -0.001  -0.002  -0.002   0.000  -0.335
 total augmentation occupancy for first ion, spin component:           1
  3.525  -0.635  -0.400   0.059   0.177
 -0.635   0.129   0.074  -0.011  -0.032
 -0.400   0.074   0.047  -0.006  -0.017
  0.059  -0.011  -0.006   0.009   0.003
  0.177  -0.032  -0.017   0.003   0.016


------------------------ aborting loop because EDIFF is reached ----------------------------------------


    CHARGE:  cpu time   16.5485: real time   16.5344
    FORLOC:  cpu time    5.6781: real time    5.6743
    FORNL :  cpu time   60.4778: real time   60.4271
    STRESS:  cpu time  182.6992: real time  182.5470
    FORCOR:  cpu time   22.4766: real time   22.4580
    FORHAR:  cpu time    9.9635: real time    9.9553
    MIXING:  cpu time    0.7449: real time    0.7437
    OFIELD:  cpu time    0.0000: real time    0.0000

  FORCE on cell =-STRESS in cart. coord.  units (eV):
  Direction    XX          YY          ZZ          XY          YZ          ZX
  --------------------------------------------------------------------------------------
  Alpha Z     0.51957     0.51957     0.51957
  Ewald    3331.90975  2079.69310   680.95678   163.79846  -416.84389   321.68125
  Hartree  3770.11539  2701.34382  1624.51302   144.26559  -200.79459   256.85211
  E(xc)    -229.38729  -230.23261  -231.44258    -0.02034    -1.23857     0.41591
  Local   -7696.94288 -5386.28794 -2928.65755  -311.41577   581.74350  -569.74159
  n-local  -133.38303  -133.25578  -132.92775     0.54004     2.42554    -1.10061
  augment    14.46138    14.75775    14.22504     0.02648     0.63241    -0.09841
  Kinetic   938.90230   949.68314   969.23923     2.72774    33.82465    -7.83817
  Fock        0.00000     0.00000     0.00000     0.00000     0.00000     0.00000
  -------------------------------------------------------------------------------------
  Total      -3.80480    -3.77895    -3.57423    -0.07780    -0.25094     0.17049
  in kB      -0.22578    -0.22424    -0.21209    -0.00462    -0.01489     0.01012
  external pressure =       -0.22 kB  Pullay stress =        0.00 kB


 VOLUME and BASIS-vectors are now :
 -----------------------------------------------------------------------------
  energy-cutoff  :      400.00
  volume of cell :    27000.00
      direct lattice vectors                 reciprocal lattice vectors
    30.000000000  0.000000000  0.000000000     0.033333333  0.000000000  0.000000000
     0.000000000 30.000000000  0.000000000     0.000000000  0.033333333  0.000000000
     0.000000000  0.000000000 30.000000000     0.000000000  0.000000000  0.033333333

  length of vectors
    30.000000000 30.000000000 30.000000000     0.033333333  0.033333333  0.033333333


 FORCES acting on ions
    electron-ion (+dipol)            ewald-force                    non-local-force                 convergence-correction
 -----------------------------------------------------------------------------------------------
   0.621E+02 -.601E+02 0.231E+01   -.644E+02 0.652E+02 -.306E+01   0.227E+01 -.512E+01 0.765E+00   -.228E-04 0.507E-04 0.299E-04
   0.643E+02 0.407E+02 0.398E+02   -.667E+02 -.441E+02 -.434E+02   0.241E+01 0.338E+01 0.357E+01   -.113E-04 -.168E-04 0.452E-04
   0.509E+02 0.179E+02 -.656E+02   -.521E+02 -.197E+02 0.706E+02   0.122E+01 0.172E+01 -.507E+01   0.254E-04 -.308E-04 0.111E-03
   0.553E+02 0.724E+02 -.726E+02   -.590E+02 -.770E+02 0.771E+02   0.371E+01 0.461E+01 -.450E+01   0.679E-04 -.535E-05 0.188E-03
   -.146E+02 0.767E+02 -.669E+02   0.160E+02 -.804E+02 0.710E+02   -.138E+01 0.372E+01 -.417E+01   0.561E-04 -.661E-06 0.174E-03
   -.662E+02 0.521E+02 0.323E+02   0.714E+02 -.538E+02 -.328E+02   -.528E+01 0.171E+01 0.475E+00   0.658E-04 -.905E-04 0.137E-03
   0.307E+01 -.498E+01 0.852E+02   -.422E+01 0.839E+01 -.895E+02   0.114E+01 -.339E+01 0.429E+01   -.280E-04 0.116E-04 0.147E-04
   0.303E+02 0.816E+02 0.267E+02   -.335E+02 -.860E+02 -.271E+02   0.323E+01 0.441E+01 0.389E+00   0.158E-04 -.537E-04 0.109E-03
   0.377E+02 -.548E+02 0.420E+02   -.440E+02 0.560E+02 -.453E+02   0.620E+01 -.122E+01 0.326E+01   0.401E-04 0.247E-04 0.116E-03
   -.434E+02 -.429E+02 -.634E+02   0.453E+02 0.436E+02 0.686E+02   -.189E+01 -.670E+00 -.525E+01   -.163E-04 -.379E-04 0.146E-03
   -.756E+02 -.145E+02 0.420E+02   0.801E+02 0.130E+02 -.450E+02   -.442E+01 0.147E+01 0.305E+01   -.250E-04 0.113E-04 -.159E-05
   0.173E+01 -.842E+02 0.229E+02   -.375E+01 0.891E+02 -.248E+02   0.200E+01 -.492E+01 0.191E+01   -.259E-04 -.394E-04 -.234E-04
   0.225E+03 -.457E+01 -.331E+02   -.226E+03 0.546E+01 0.332E+02   0.777E+00 -.891E+00 -.119E+00   0.689E-04 -.129E-03 0.177E-03
   0.180E+03 0.311E+01 -.303E+02   -.185E+03 -.300E+01 0.309E+02   0.492E+01 -.114E+00 -.655E+00   0.257E-04 -.368E-04 0.250E-03
   -.282E+02 0.149E+03 -.540E+02   0.336E+02 -.150E+03 0.535E+02   -.533E+01 0.142E+01 0.538E+00   0.291E-03 -.236E-03 0.948E-03
   -.389E+02 0.174E+03 0.158E+03   0.392E+02 -.174E+03 -.158E+03   -.238E+00 0.253E+00 0.917E+00   -.180E-03 -.446E-03 0.743E-03
   -.212E+02 0.247E+02 -.363E+02   0.183E+02 -.271E+02 0.360E+02   0.286E+01 0.244E+01 0.227E+00   0.644E-05 -.342E-03 0.510E-03
   -.146E+03 -.197E+03 0.882E+01   0.150E+03 0.200E+03 -.836E+01   -.416E+01 -.327E+01 -.454E+00   -.378E-03 0.457E-04 -.293E-03
   0.108E+03 0.135E+03 -.162E+03   -.104E+03 -.132E+03 0.164E+03   -.394E+01 -.249E+01 -.241E+01   0.596E-03 0.458E-03 0.161E-02
   -.196E+02 -.196E+03 0.461E+02   0.162E+02 0.199E+03 -.467E+02   0.335E+01 -.342E+01 0.615E+00   -.734E-03 0.395E-03 0.942E-03
   0.777E+02 -.282E+03 0.277E+03   -.630E+02 0.318E+03 -.311E+03   -.147E+02 -.354E+02 0.343E+02   0.223E-03 -.112E-02 -.124E-02
   -.390E+03 0.135E+03 -.208E+03   0.435E+03 -.150E+03 0.230E+03   -.454E+02 0.157E+02 -.223E+02   0.649E-03 -.939E-03 -.154E-02
 -----------------------------------------------------------------------------------------------
   0.527E+02 0.201E+02 -.938E+01   -.568E-13 -.284E-13 0.000E+00   -.527E+02 -.201E+02 0.937E+01   0.709E-03 -.253E-02 0.315E-02
 
 
 POSITION                                       TOTAL-FORCE (eV/Angst)
 -----------------------------------------------------------------------------------
     11.31990     16.09568     15.07825         0.014728      0.006753      0.008300
     11.28670     14.41448     14.50405        -0.007661      0.010086     -0.002959
     11.53994     14.74410     16.23603         0.005697     -0.003175     -0.000278
     13.50065     13.62132     16.18810         0.012580      0.024032      0.048668
     15.63838     13.14307     16.14000         0.003229     -0.012229     -0.004669
     16.64462     12.81483     13.90249        -0.005849      0.009075     -0.016406
     15.37431     13.82214     13.15118        -0.010309      0.018331     -0.000688
     14.94734     12.26942     13.92664        -0.005968      0.009285     -0.011342
     15.40117     16.34913     14.58595        -0.002838     -0.013011     -0.017608
     17.70068     17.31831     16.13975        -0.003701      0.001306      0.006309
     18.21005     16.89058     14.49497        -0.004631      0.001514      0.001438
     16.93634     18.12732     14.73511        -0.009821     -0.001651      0.005047
     11.76142     15.10280     15.22067         0.006672      0.001473     -0.000858
     13.24693     15.17100     14.92202         0.008144     -0.004045     -0.022901
     15.41490     13.86151     15.33900         0.002979     -0.007490      0.005702
     15.60197     13.15122     13.99032        -0.007017      0.011154     -0.006748
     16.52385     14.92646     15.53144        -0.044369      0.023797     -0.016982
     17.34210     17.17945     15.10927        -0.005837      0.001521      0.002859
     14.01123     14.25364     15.57826         0.004291      0.001864      0.015834
     16.30054     16.17015     15.05815         0.005710     -0.015123      0.014384
     13.70458     16.00460     14.11961         0.001520     -0.051182     -0.040885
     17.59247     14.56873     16.04852         0.042450     -0.012283      0.033782
 -----------------------------------------------------------------------------------
    total drift:                               -0.006394      0.004536     -0.007385


--------------------------------------------------------------------------------------------------------



  FREE ENERGIE OF THE ION-ELECTRON SYSTEM (eV)
  ---------------------------------------------------
  free  energy   TOTEN  =      -129.40696441 eV

  energy  without entropy=     -129.40696441  energy(sigma->0) =     -129.40696441
 
 d Force = 0.1551931E-03[ 0.146E-03, 0.164E-03]  d Energy = 0.1562509E-03-0.106E-05
 d Force = 0.3210654E-01[ 0.334E-01, 0.308E-01]  d Ewald  = 0.3210664E-01-0.105E-06


--------------------------------------------------------------------------------------------------------


    POTLOK:  cpu time   19.1071: real time   19.0931


--------------------------------------------------------------------------------------------------------


 NEB: the previous image is higher in energy: T
 NEB: the next image is higher in energy    : F
 NEB: only prev energy greater

 NEB: Tangent
 ----------------------------------------------
      0.09876      0.07451      0.04369
     -0.09255      0.07103      0.03917
      0.07347      0.05518      0.02905
      0.03874      0.10594      0.25778
     -0.01395     -0.15211     -0.11308
     -0.00829      0.13040     -0.18488
     -0.01345      0.22952     -0.05975
     -0.00431      0.11559     -0.24292
      0.06285     -0.12481     -0.19103
     -0.19443      0.02675      0.19333
      0.10193     -0.04029      0.26512
     -0.00555     -0.06036      0.00546
      0.02908      0.03301      0.01017
      0.02256     -0.10742     -0.12212
     -0.00863     -0.04695     -0.03156
     -0.01006      0.11977     -0.13610
     -0.02942     -0.03821      0.12111
     -0.02612     -0.03354      0.11999
      0.01257     -0.02446      0.03315
      0.00169     -0.06729     -0.00724
      0.04999     -0.28677     -0.36645
     -0.08477      0.02043      0.33698

 NEB: forces: par spring, perp REAL, dneb     0.068509    0.101924    0.000000
 NEB: distance to prev, next image, angle between     1.265019    1.278721  129.518226
 NEB: projections on to tangent (spring, REAL)     0.068509    0.084737

 stress matrix after NEB project (eV)
     -3.80480     -0.07780      0.17049
     -0.07780     -3.77895     -0.25094
      0.17049     -0.25094     -3.57423
  FORCES: max atom, RMS     0.058190    0.026183
  FORCE total and by dimension    0.122809    0.046529
  Stress total and by dimension    6.459739    3.804802
 OPT: skip step - force has converged


--------------------------------------------------------------------------------------------------------


  
 reached required accuracy - stopping structural energy minimisation
     LOOP+:  cpu time 1821.0342: real time 1819.5628
    4ORBIT:  cpu time    0.0000: real time    0.0000

 total amount of memory used by VASP on root node  4333705. kBytes
========================================================================

   base      :      30000. kBytes
   nonlr-proj:       2400. kBytes
   fftplans  :     924480. kBytes
   grid      :    2089440. kBytes
   one-center:         67. kBytes
   wavefun   :    1287318. kBytes
 
  
  
 General timing and accounting informations for this job:
 ========================================================
  
                  Total CPU time used (sec):   226697.797
                            User time (sec):   225250.753
                          System time (sec):     1447.042
                         Elapsed time (sec):   226579.061
  
                   Maximum memory used (kb):     5900316.
                   Average memory used (kb):           0.
  
                          Minor page faults:    319776712
                          Major page faults:            9
                 Voluntary context switches:        13325
