 vasp.5.4.1 24Jun15 (build Jan 13 2020 12:58:22) complex                        
  
 POSCAR found type information on POSCAR  H  C  N  O 
 10/POSCAR found :  4 types and      22 ions
 scaLAPACK will be used
 LDA part: xc-table for Pade appr. of Perdew
 POSCAR found type information on POSCAR  H  C  N  O 
 00/POSCAR found :  4 types and      22 ions
 POSCAR found type information on POSCAR  H  C  N  O 
 16/POSCAR found :  4 types and      22 ions
 Jacobian:    50.2178792621697     
 POSCAR, INCAR and KPOINTS ok, starting setup
 WARNING: small aliasing (wrap around) errors must be expected
 FFT: planning ...
 WAVECAR not read
 entering main loop
       N       E                     dE             d eps       ncg     rms          rms(c)
DAV:   1     0.609131801480E+03    0.60913E+03   -0.79586E+03   392   0.485E+02
DAV:   2     0.272267778785E+03   -0.33686E+03   -0.32582E+03   579   0.915E+01
DAV:   3    -0.469137575862E+02   -0.31918E+03   -0.31062E+03   496   0.111E+02
DAV:   4    -0.136806989923E+03   -0.89893E+02   -0.89766E+02   398   0.815E+01
DAV:   5    -0.141679773678E+03   -0.48728E+01   -0.48622E+01   464   0.222E+01    0.195E+01
DAV:   6    -0.131550132481E+03    0.10130E+02   -0.23690E+01   429   0.200E+01    0.994E+00
DAV:   7    -0.129816748691E+03    0.17334E+01   -0.45497E+00   424   0.831E+00    0.513E+00
DAV:   8    -0.129328975619E+03    0.48777E+00   -0.86465E-01   432   0.404E+00    0.149E+00
DAV:   9    -0.129263052049E+03    0.65924E-01   -0.99769E-02   464   0.154E+00    0.571E-01
DAV:  10    -0.129251247402E+03    0.11805E-01   -0.24496E-02   448   0.812E-01    0.256E-01
DAV:  11    -0.129245723159E+03    0.55242E-02   -0.84032E-03   456   0.457E-01    0.160E-01
DAV:  12    -0.129246437960E+03   -0.71480E-03   -0.56324E-03   408   0.357E-01    0.987E-02
DAV:  13    -0.129252645563E+03   -0.62076E-02   -0.40521E-03   464   0.318E-01    0.584E-02
DAV:  14    -0.129259483862E+03   -0.68383E-02   -0.19876E-03   430   0.218E-01    0.380E-02
DAV:  15    -0.129267386073E+03   -0.79022E-02   -0.88705E-04   430   0.114E-01    0.245E-02
DAV:  16    -0.129273391650E+03   -0.60056E-02   -0.47578E-04   372   0.689E-02    0.133E-02
DAV:  17    -0.129276032684E+03   -0.26410E-02   -0.12689E-04   336   0.372E-02    0.862E-03
DAV:  18    -0.129277899400E+03   -0.18667E-02   -0.13319E-04   288   0.316E-02    0.528E-03
DAV:  19    -0.129278732925E+03   -0.83352E-03   -0.45599E-05   368   0.186E-02    0.301E-03
DAV:  20    -0.129279143864E+03   -0.41094E-03   -0.17364E-05   268   0.134E-02    0.195E-03
DAV:  21    -0.129279341674E+03   -0.19781E-03   -0.78191E-06   368   0.789E-03    0.120E-03
DAV:  22    -0.129279476431E+03   -0.13476E-03   -0.35670E-06   278   0.591E-03    0.861E-04
DAV:  23    -0.129279518384E+03   -0.41953E-04   -0.88910E-07   368   0.319E-03
   1 F= -.12927952E+03 E0= -.12927952E+03  d E =-.129280E+03
damped:  g(F)=  0.000E+00 g(S)=  0.000E+00 dE (1.order)= 0.000E+00
 bond charge predicted
       N       E                     dE             d eps       ncg     rms          rms(c)
DAV:   1    -0.129281051008E+03   -0.15746E-02   -0.48866E-02   349   0.119E+00    0.483E-02
DAV:   2    -0.129281155896E+03   -0.10489E-03   -0.14037E-03   464   0.177E-01    0.324E-02
DAV:   3    -0.129281151820E+03    0.40756E-05   -0.34001E-05   367   0.339E-02    0.206E-02
DAV:   4    -0.129281161984E+03   -0.10163E-04   -0.40346E-05   308   0.367E-02    0.514E-03
DAV:   5    -0.129281164489E+03   -0.25057E-05   -0.10055E-05   272   0.175E-02    0.324E-03
DAV:   6    -0.129281166182E+03   -0.16930E-05   -0.17893E-06   270   0.735E-03
   2 F= -.12928117E+03 E0= -.12928117E+03  d E =-.164780E-02
damped:  g(F)=  0.000E+00 g(S)=  0.000E+00 dE (1.order)= 0.000E+00
 bond charge predicted
       N       E                     dE             d eps       ncg     rms          rms(c)
DAV:   1    -0.129282864652E+03   -0.17002E-02   -0.12379E-01   331   0.184E+00    0.685E-02
DAV:   2    -0.129283093066E+03   -0.22841E-03   -0.29772E-03   460   0.251E-01    0.443E-02
DAV:   3    -0.129283087784E+03    0.52820E-05   -0.52344E-05   368   0.435E-02    0.264E-02
DAV:   4    -0.129283105628E+03   -0.17844E-04   -0.57906E-05   264   0.452E-02    0.569E-03
DAV:   5    -0.129283106654E+03   -0.10260E-05   -0.15372E-05   272   0.216E-02    0.380E-03
DAV:   6    -0.129283106870E+03   -0.21622E-06   -0.25656E-06   322   0.845E-03
   3 F= -.12928311E+03 E0= -.12928311E+03  d E =-.194069E-02
damped:  g(F)=  0.000E+00 g(S)=  0.000E+00 dE (1.order)= 0.000E+00
 bond charge predicted
       N       E                     dE             d eps       ncg     rms          rms(c)
DAV:   1    -0.129285445705E+03   -0.23391E-02   -0.22396E-01   330   0.240E+00    0.910E-02
DAV:   2    -0.129285858506E+03   -0.41280E-03   -0.53200E-03   428   0.318E-01    0.558E-02
DAV:   3    -0.129285863288E+03   -0.47819E-05   -0.69641E-05   320   0.495E-02    0.321E-02
DAV:   4    -0.129285903874E+03   -0.40586E-04   -0.67463E-05   280   0.468E-02    0.586E-03
DAV:   5    -0.129285906346E+03   -0.24725E-05   -0.15966E-05   304   0.210E-02    0.384E-03
DAV:   6    -0.129285907496E+03   -0.11496E-05   -0.19765E-06   222   0.737E-03
   4 F= -.12928591E+03 E0= -.12928591E+03  d E =-.280063E-02
damped:  g(F)=  0.000E+00 g(S)=  0.000E+00 dE (1.order)= 0.000E+00
 bond charge predicted
       N       E                     dE             d eps       ncg     rms          rms(c)
DAV:   1    -0.129288450116E+03   -0.25438E-02   -0.39624E-01   329   0.321E+00    0.122E-01
DAV:   2    -0.129289219138E+03   -0.76902E-03   -0.98309E-03   412   0.434E-01    0.759E-02
DAV:   3    -0.129289219101E+03    0.37329E-07   -0.14077E-04   384   0.679E-02    0.441E-02
DAV:   4    -0.129289294699E+03   -0.75598E-04   -0.11122E-04   280   0.619E-02    0.794E-03
DAV:   5    -0.129289300084E+03   -0.53849E-05   -0.26574E-05   272   0.270E-02    0.563E-03
DAV:   6    -0.129289302685E+03   -0.26016E-05   -0.41801E-06   256   0.105E-02
   5 F= -.12928930E+03 E0= -.12928930E+03  d E =-.339519E-02
damped:  g(F)=  0.000E+00 g(S)=  0.000E+00 dE (1.order)= 0.000E+00
 bond charge predicted
       N       E                     dE             d eps       ncg     rms          rms(c)
DAV:   1    -0.129291623676E+03   -0.23236E-02   -0.60202E-01   328   0.390E+00    0.143E-01
DAV:   2    -0.129292806202E+03   -0.11825E-02   -0.14721E-02   396   0.522E-01    0.930E-02
DAV:   3    -0.129292787591E+03    0.18611E-04   -0.19344E-04   432   0.775E-02    0.555E-02
DAV:   4    -0.129292913569E+03   -0.12598E-03   -0.15178E-04   266   0.734E-02    0.936E-03
DAV:   5    -0.129292923798E+03   -0.10229E-04   -0.39595E-05   304   0.317E-02    0.635E-03
DAV:   6    -0.129292926724E+03   -0.29260E-05   -0.36082E-06   268   0.973E-03
   6 F= -.12929293E+03 E0= -.12929293E+03  d E =-.362404E-02
damped:  g(F)=  0.000E+00 g(S)=  0.000E+00 dE (1.order)= 0.000E+00
 bond charge predicted
       N       E                     dE             d eps       ncg     rms          rms(c)
DAV:   1    -0.129295006636E+03   -0.20828E-02   -0.86959E-01   328   0.462E+00    0.169E-01
DAV:   2    -0.129296730400E+03   -0.17238E-02   -0.21612E-02   412   0.625E-01    0.112E-01
DAV:   3    -0.129296665912E+03    0.64488E-04   -0.28156E-04   423   0.925E-02    0.687E-02
DAV:   4    -0.129296847353E+03   -0.18144E-03   -0.25473E-04   353   0.911E-02    0.130E-02
DAV:   5    -0.129296862824E+03   -0.15471E-04   -0.62731E-05   304   0.397E-02    0.822E-03
DAV:   6    -0.129296866874E+03   -0.40496E-05   -0.58185E-06   264   0.125E-02
   7 F= -.12929687E+03 E0= -.12929687E+03  d E =-.394015E-02
damped:  g(F)=  0.000E+00 g(S)=  0.000E+00 dE (1.order)= 0.000E+00
 bond charge predicted
       N       E                     dE             d eps       ncg     rms          rms(c)
DAV:   1    -0.129298215046E+03   -0.13522E-02   -0.15007E+00   328   0.598E+00    0.215E-01
DAV:   2    -0.129301284815E+03   -0.30698E-02   -0.37303E-02   404   0.806E-01    0.146E-01
DAV:   3    -0.129301142925E+03    0.14189E-03   -0.45379E-04   405   0.118E-01    0.899E-02
DAV:   4    -0.129301415955E+03   -0.27303E-03   -0.44608E-04   395   0.122E-01    0.157E-02
DAV:   5    -0.129301444491E+03   -0.28536E-04   -0.10895E-04   400   0.501E-02    0.110E-02
DAV:   6    -0.129301449260E+03   -0.47690E-05   -0.41368E-06   304   0.113E-02
   8 F= -.12930145E+03 E0= -.12930145E+03  d E =-.458239E-02
damped:  g(F)=  0.000E+00 g(S)=  0.000E+00 dE (1.order)= 0.000E+00
 bond charge predicted
       N       E                     dE             d eps       ncg     rms          rms(c)
DAV:   1    -0.129301486854E+03   -0.42362E-04   -0.25179E+00   328   0.772E+00    0.272E-01
DAV:   2    -0.129306657155E+03   -0.51703E-02   -0.62525E-02   396   0.103E+00    0.189E-01
DAV:   3    -0.129306407328E+03    0.24983E-03   -0.78530E-04   438   0.151E-01    0.117E-01
DAV:   4    -0.129306862065E+03   -0.45474E-03   -0.65342E-04   396   0.149E-01    0.190E-02
DAV:   5    -0.129306912303E+03   -0.50238E-04   -0.16123E-04   368   0.581E-02    0.143E-02
DAV:   6    -0.129306921538E+03   -0.92344E-05   -0.57152E-06   300   0.128E-02
   9 F= -.12930692E+03 E0= -.12930692E+03  d E =-.547228E-02
damped:  g(F)=  0.000E+00 g(S)=  0.000E+00 dE (1.order)= 0.000E+00
 bond charge predicted
       N       E                     dE             d eps       ncg     rms          rms(c)
DAV:   1    -0.129304308828E+03    0.26035E-02   -0.40972E+00   328   0.979E+00    0.345E-01
DAV:   2    -0.129312829041E+03   -0.85202E-02   -0.10256E-01   372   0.131E+00    0.239E-01
DAV:   3    -0.129312470435E+03    0.35861E-03   -0.15050E-03   464   0.194E-01    0.152E-01
DAV:   4    -0.129313140798E+03   -0.67036E-03   -0.12268E-03   388   0.202E-01    0.275E-02
DAV:   5    -0.129313195106E+03   -0.54308E-04   -0.32827E-04   400   0.834E-02    0.186E-02
DAV:   6    -0.129313208065E+03   -0.12959E-04   -0.12142E-05   302   0.180E-02
  10 F= -.12931321E+03 E0= -.12931321E+03  d E =-.628653E-02
damped:  g(F)=  0.000E+00 g(S)=  0.000E+00 dE (1.order)= 0.000E+00
 bond charge predicted
       N       E                     dE             d eps       ncg     rms          rms(c)
DAV:   1    -0.129306491964E+03    0.67031E-02   -0.64030E+00   328   0.122E+01    0.440E-01
DAV:   2    -0.129320257394E+03   -0.13765E-01   -0.16450E-01   372   0.166E+00    0.297E-01
DAV:   3    -0.129319723605E+03    0.53379E-03   -0.24549E-03   438   0.244E-01    0.187E-01
DAV:   4    -0.129320618425E+03   -0.89482E-03   -0.18740E-03   396   0.250E-01    0.349E-02
DAV:   5    -0.129320697843E+03   -0.79418E-04   -0.51674E-04   432   0.104E-01    0.248E-02
DAV:   6    -0.129320716597E+03   -0.18755E-04   -0.17257E-05   336   0.218E-02
  11 F= -.12932072E+03 E0= -.12932072E+03  d E =-.750853E-02
damped:  g(F)=  0.000E+00 g(S)=  0.000E+00 dE (1.order)= 0.000E+00
 bond charge predicted
       N       E                     dE             d eps       ncg     rms          rms(c)
DAV:   1    -0.129306541623E+03    0.14156E-01   -0.95908E+00   328   0.150E+01    0.528E-01
DAV:   2    -0.129328162945E+03   -0.21621E-01   -0.25302E-01   364   0.204E+00    0.381E-01
DAV:   3    -0.129327097377E+03    0.10656E-02   -0.41354E-03   464   0.316E-01    0.248E-01
DAV:   4    -0.129328210655E+03   -0.11133E-02   -0.34797E-03   371   0.330E-01    0.482E-02
DAV:   5    -0.129328330319E+03   -0.11966E-03   -0.88234E-04   432   0.136E-01    0.289E-02
DAV:   6    -0.129328357406E+03   -0.27087E-04   -0.34371E-05   320   0.294E-02
  12 F= -.12932836E+03 E0= -.12932836E+03  d E =-.764081E-02
damped:  g(F)=  0.000E+00 g(S)=  0.000E+00 dE (1.order)= 0.000E+00
 bond charge predicted
       N       E                     dE             d eps       ncg     rms          rms(c)
DAV:   1    -0.129290974823E+03    0.37355E-01   -0.14400E+01   328   0.181E+01    0.715E-01
DAV:   2    -0.129326692208E+03   -0.35717E-01   -0.42176E-01   364   0.268E+00    0.480E-01
DAV:   3    -0.129324953889E+03    0.17383E-02   -0.72315E-03   448   0.399E-01    0.309E-01
DAV:   4    -0.129325611103E+03   -0.65721E-03   -0.46674E-03   397   0.390E-01    0.531E-02
DAV:   5    -0.129325854123E+03   -0.24302E-03   -0.12117E-03   464   0.156E-01    0.407E-02
DAV:   6    -0.129325907716E+03   -0.53593E-04   -0.39991E-05   301   0.343E-02
  13 F= -.12932591E+03 E0= -.12932591E+03  d E =0.244969E-02
damped:  g(F)=  0.000E+00 g(S)=  0.000E+00 dE (1.order)= 0.000E+00
 bond charge predicted
       N       E                     dE             d eps       ncg     rms          rms(c)
DAV:   1    -0.129337214665E+03   -0.11361E-01   -0.90434E-01   333   0.459E+00    0.320E-01
DAV:   2    -0.129340144518E+03   -0.29299E-02   -0.39364E-02   394   0.832E-01    0.180E-01
DAV:   3    -0.129339775745E+03    0.36877E-03   -0.11158E-03   423   0.177E-01    0.102E-01
DAV:   4    -0.129339650342E+03    0.12540E-03   -0.64800E-04   337   0.129E-01    0.244E-02
DAV:   5    -0.129339660889E+03   -0.10548E-04   -0.12612E-04   400   0.517E-02    0.125E-02
DAV:   6    -0.129339669185E+03   -0.82955E-05   -0.10187E-05   288   0.163E-02
  14 F= -.12933967E+03 E0= -.12933967E+03  d E =-.137615E-01
damped:  g(F)=  0.000E+00 g(S)=  0.000E+00 dE (1.order)= 0.000E+00
 bond charge predicted
       N       E                     dE             d eps       ncg     rms          rms(c)
DAV:   1    -0.129327625000E+03    0.12036E-01   -0.89012E-01   330   0.467E+00    0.312E-01
DAV:   2    -0.129330395699E+03   -0.27707E-02   -0.38311E-02   404   0.803E-01    0.178E-01
DAV:   3    -0.129329907111E+03    0.48859E-03   -0.11079E-03   432   0.174E-01    0.977E-02
DAV:   4    -0.129329697632E+03    0.20948E-03   -0.59313E-04   392   0.124E-01    0.247E-02
DAV:   5    -0.129329692952E+03    0.46801E-05   -0.11309E-04   432   0.503E-02    0.127E-02
DAV:   6    -0.129329709100E+03   -0.16149E-04   -0.10639E-05   266   0.168E-02
  15 F= -.12932971E+03 E0= -.12932971E+03  d E =0.996008E-02
damped:  g(F)=  0.000E+00 g(S)=  0.000E+00 dE (1.order)= 0.000E+00
 bond charge predicted
       N       E                     dE             d eps       ncg     rms          rms(c)
DAV:   1    -0.129334990334E+03   -0.52974E-02   -0.56803E-02   360   0.113E+00    0.828E-02
DAV:   2    -0.129335192242E+03   -0.20191E-03   -0.24016E-03   428   0.203E-01    0.457E-02
DAV:   3    -0.129335195789E+03   -0.35460E-05   -0.62498E-05   261   0.435E-02    0.244E-02
DAV:   4    -0.129335227446E+03   -0.31657E-04   -0.49639E-05   297   0.349E-02    0.497E-03
DAV:   5    -0.129335243134E+03   -0.15688E-04   -0.10874E-05   368   0.155E-02    0.281E-03
DAV:   6    -0.129335252774E+03   -0.96408E-05   -0.15972E-06   274   0.607E-03
  16 F= -.12933525E+03 E0= -.12933525E+03  d E =-.554367E-02
damped:  g(F)=  0.000E+00 g(S)=  0.000E+00 dE (1.order)= 0.000E+00
 bond charge predicted
       N       E                     dE             d eps       ncg     rms          rms(c)
DAV:   1    -0.129340123150E+03   -0.48800E-02   -0.16826E-01   335   0.196E+00    0.139E-01
DAV:   2    -0.129340611289E+03   -0.48814E-03   -0.71670E-03   392   0.356E-01    0.782E-02
DAV:   3    -0.129340520146E+03    0.91143E-04   -0.20722E-04   374   0.767E-02    0.422E-02
DAV:   4    -0.129340478048E+03    0.42097E-04   -0.12301E-04   296   0.564E-02    0.991E-03
DAV:   5    -0.129340477610E+03    0.43877E-06   -0.24743E-05   368   0.240E-02    0.567E-03
DAV:   6    -0.129340481213E+03   -0.36036E-05   -0.33789E-06   280   0.961E-03
  17 F= -.12934048E+03 E0= -.12934048E+03  d E =-.522844E-02
damped:  g(F)=  0.000E+00 g(S)=  0.000E+00 dE (1.order)= 0.000E+00
 bond charge predicted
       N       E                     dE             d eps       ncg     rms          rms(c)
DAV:   1    -0.129340191910E+03    0.28570E-03   -0.21844E-01   352   0.226E+00    0.153E-01
DAV:   2    -0.129340812411E+03   -0.62050E-03   -0.92873E-03   415   0.404E-01    0.877E-02
DAV:   3    -0.129340684521E+03    0.12789E-03   -0.25653E-04   432   0.852E-02    0.485E-02
DAV:   4    -0.129340626890E+03    0.57631E-04   -0.15872E-04   358   0.646E-02    0.115E-02
DAV:   5    -0.129340630992E+03   -0.41017E-05   -0.33233E-05   336   0.280E-02    0.660E-03
DAV:   6    -0.129340641584E+03   -0.10592E-04   -0.46001E-06   292   0.113E-02
  18 F= -.12934064E+03 E0= -.12934064E+03  d E =-.160371E-03
damped:  g(F)=  0.000E+00 g(S)=  0.000E+00 dE (1.order)= 0.000E+00
 bond charge predicted
       N       E                     dE             d eps       ncg     rms          rms(c)
DAV:   1    -0.129340786868E+03   -0.15588E-03   -0.31319E-04   348   0.865E-02    0.500E-03
DAV:   2    -0.129340796823E+03   -0.99556E-05   -0.12948E-05   336   0.158E-02    0.305E-03
DAV:   3    -0.129340805555E+03   -0.87319E-05   -0.12607E-06   258   0.518E-03    0.183E-03
DAV:   4    -0.129340818231E+03   -0.12676E-04   -0.68017E-07   299   0.323E-03    0.670E-04
DAV:   5    -0.129340826571E+03   -0.83403E-05   -0.32800E-07   278   0.194E-03    0.436E-04
DAV:   6    -0.129340835086E+03   -0.85145E-05   -0.33768E-07   290   0.179E-03
  19 F= -.12934084E+03 E0= -.12934084E+03  d E =-.193502E-03
damped:  g(F)=  0.000E+00 g(S)=  0.000E+00 dE (1.order)= 0.000E+00
 bond charge predicted
       N       E                     dE             d eps       ncg     rms          rms(c)
DAV:   1    -0.129341076046E+03   -0.24947E-03   -0.12338E-03   340   0.173E-01    0.102E-02
DAV:   2    -0.129341081212E+03   -0.51663E-05   -0.48356E-05   400   0.296E-02    0.596E-03
DAV:   3    -0.129341082033E+03   -0.82119E-06   -0.21532E-06   221   0.739E-03    0.352E-03
DAV:   4    -0.129341083855E+03   -0.18222E-05   -0.13024E-06   269   0.571E-03    0.863E-04
DAV:   5    -0.129341084724E+03   -0.86877E-06   -0.29319E-07   272   0.282E-03    0.431E-04
DAV:   6    -0.129341085253E+03   -0.52887E-06   -0.49431E-08   284   0.118E-03
  20 F= -.12934109E+03 E0= -.12934109E+03  d E =-.250167E-03
damped:  g(F)=  0.000E+00 g(S)=  0.000E+00 dE (1.order)= 0.000E+00
 bond charge predicted
       N       E                     dE             d eps       ncg     rms          rms(c)
DAV:   1    -0.129341374852E+03   -0.29013E-03   -0.25569E-03   383   0.249E-01    0.145E-02
DAV:   2    -0.129341381934E+03   -0.70818E-05   -0.95305E-05   250   0.425E-02    0.843E-03
DAV:   3    -0.129341381627E+03    0.30694E-06   -0.65093E-06   264   0.118E-02    0.505E-03
DAV:   4    -0.129341381618E+03    0.87593E-08   -0.38802E-06   264   0.897E-03    0.147E-03
DAV:   5    -0.129341381696E+03   -0.77958E-07   -0.65033E-07   272   0.419E-03    0.741E-04
DAV:   6    -0.129341381834E+03   -0.13762E-06   -0.11667E-07   218   0.190E-03
  21 F= -.12934138E+03 E0= -.12934138E+03  d E =-.296581E-03
damped:  g(F)=  0.000E+00 g(S)=  0.000E+00 dE (1.order)= 0.000E+00
 bond charge predicted
       N       E                     dE             d eps       ncg     rms          rms(c)
DAV:   1    -0.129341672738E+03   -0.29104E-03   -0.40522E-03   392   0.315E-01    0.178E-02
DAV:   2    -0.129341683236E+03   -0.10498E-04   -0.15159E-04   301   0.531E-02    0.107E-02
DAV:   3    -0.129341681910E+03    0.13256E-05   -0.77069E-06   272   0.133E-02    0.641E-03
DAV:   4    -0.129341681098E+03    0.81173E-06   -0.57864E-06   266   0.111E-02    0.179E-03
DAV:   5    -0.129341681050E+03    0.48405E-07   -0.10301E-06   272   0.544E-03    0.922E-04
DAV:   6    -0.129341681147E+03   -0.97065E-07   -0.14725E-07   202   0.218E-03
  22 F= -.12934168E+03 E0= -.12934168E+03  d E =-.299313E-03
damped:  g(F)=  0.000E+00 g(S)=  0.000E+00 dE (1.order)= 0.000E+00
 bond charge predicted
       N       E                     dE             d eps       ncg     rms          rms(c)
DAV:   1    -0.129341927931E+03   -0.24688E-03   -0.54378E-03   398   0.366E-01    0.198E-02
DAV:   2    -0.129341941949E+03   -0.14018E-04   -0.19757E-04   300   0.609E-02    0.121E-02
DAV:   3    -0.129341940332E+03    0.16163E-05   -0.97581E-06   239   0.150E-02    0.731E-03
DAV:   4    -0.129341939387E+03    0.94480E-06   -0.63487E-06   232   0.127E-02    0.171E-03
DAV:   5    -0.129341939486E+03   -0.98447E-07   -0.15882E-06   219   0.623E-03    0.940E-04
DAV:   6    -0.129341939714E+03   -0.22794E-06   -0.35495E-07   230   0.271E-03
  23 F= -.12934194E+03 E0= -.12934194E+03  d E =-.258567E-03
damped:  g(F)=  0.000E+00 g(S)=  0.000E+00 dE (1.order)= 0.000E+00
 bond charge predicted
       N       E                     dE             d eps       ncg     rms          rms(c)
DAV:   1    -0.129342121891E+03   -0.18240E-03   -0.64608E-03   382   0.401E-01    0.201E-02
DAV:   2    -0.129342139154E+03   -0.17263E-04   -0.23111E-04   332   0.648E-02    0.127E-02
DAV:   3    -0.129342137091E+03    0.20627E-05   -0.66026E-06   181   0.142E-02    0.781E-03
DAV:   4    -0.129342136130E+03    0.96179E-06   -0.56725E-06   229   0.129E-02    0.165E-03
DAV:   5    -0.129342136301E+03   -0.17092E-06   -0.13704E-06   200   0.595E-03    0.958E-04
DAV:   6    -0.129342136613E+03   -0.31264E-06   -0.20984E-07   225   0.249E-03
  24 F= -.12934214E+03 E0= -.12934214E+03  d E =-.196899E-03
damped:  g(F)=  0.000E+00 g(S)=  0.000E+00 dE (1.order)= 0.000E+00
 bond charge predicted
       N       E                     dE             d eps       ncg     rms          rms(c)
DAV:   1    -0.129342279710E+03   -0.14341E-03   -0.86204E-03   358   0.463E-01    0.208E-02
DAV:   2    -0.129342301475E+03   -0.21764E-04   -0.27960E-04   316   0.710E-02    0.138E-02
DAV:   3    -0.129342299431E+03    0.20440E-05   -0.71896E-06   181   0.148E-02    0.858E-03
DAV:   4    -0.129342299002E+03    0.42874E-06   -0.64784E-06   217   0.139E-02    0.172E-03
DAV:   5    -0.129342299255E+03   -0.25342E-06   -0.16189E-06   197   0.639E-03    0.103E-03
DAV:   6    -0.129342299593E+03   -0.33777E-06   -0.24896E-07   199   0.261E-03
  25 F= -.12934230E+03 E0= -.12934230E+03  d E =-.162980E-03
damped:  g(F)=  0.000E+00 g(S)=  0.000E+00 dE (1.order)= 0.000E+00
 bond charge predicted
       N       E                     dE             d eps       ncg     rms          rms(c)
DAV:   1    -0.129342450775E+03   -0.15152E-03   -0.11049E-02   334   0.519E-01    0.199E-02
DAV:   2    -0.129342476117E+03   -0.25342E-04   -0.31185E-04   298   0.742E-02    0.139E-02
DAV:   3    -0.129342474478E+03    0.16386E-05   -0.67556E-06   164   0.142E-02    0.898E-03
DAV:   4    -0.129342475155E+03   -0.67670E-06   -0.63225E-06   234   0.142E-02    0.164E-03
DAV:   5    -0.129342475490E+03   -0.33502E-06   -0.17148E-06   164   0.643E-03    0.107E-03
DAV:   6    -0.129342475839E+03   -0.34931E-06   -0.25892E-07   200   0.253E-03
  26 F= -.12934248E+03 E0= -.12934248E+03  d E =-.176246E-03
damped:  g(F)=  0.000E+00 g(S)=  0.000E+00 dE (1.order)= 0.000E+00
 bond charge predicted
       N       E                     dE             d eps       ncg     rms          rms(c)
DAV:   1    -0.129342719709E+03   -0.24422E-03   -0.14577E-02   333   0.588E-01    0.202E-02
DAV:   2    -0.129342749546E+03   -0.29837E-04   -0.35625E-04   306   0.785E-02    0.143E-02
DAV:   3    -0.129342748365E+03    0.11813E-05   -0.66282E-06   199   0.138E-02    0.933E-03
DAV:   4    -0.129342750670E+03   -0.23048E-05   -0.62763E-06   268   0.140E-02    0.160E-03
DAV:   5    -0.129342751046E+03   -0.37638E-06   -0.15263E-06   192   0.610E-03    0.107E-03
DAV:   6    -0.129342751363E+03   -0.31688E-06   -0.14639E-07   217   0.208E-03
  27 F= -.12934275E+03 E0= -.12934275E+03  d E =-.275524E-03
damped:  g(F)=  0.000E+00 g(S)=  0.000E+00 dE (1.order)= 0.000E+00
 bond charge predicted
       N       E                     dE             d eps       ncg     rms          rms(c)
DAV:   1    -0.129343159029E+03   -0.40798E-03   -0.20851E-02   330   0.700E-01    0.240E-02
DAV:   2    -0.129343200257E+03   -0.41228E-04   -0.49379E-04   364   0.920E-02    0.166E-02
DAV:   3    -0.129343198620E+03    0.16364E-05   -0.77835E-06   272   0.154E-02    0.106E-02
DAV:   4    -0.129343202099E+03   -0.34782E-05   -0.78273E-06   232   0.154E-02    0.181E-03
DAV:   5    -0.129343202543E+03   -0.44493E-06   -0.18471E-06   272   0.675E-03    0.116E-03
DAV:   6    -0.129343202759E+03   -0.21584E-06   -0.19184E-07   202   0.225E-03
  28 F= -.12934320E+03 E0= -.12934320E+03  d E =-.451396E-03
damped:  g(F)=  0.000E+00 g(S)=  0.000E+00 dE (1.order)= 0.000E+00
 bond charge predicted
       N       E                     dE             d eps       ncg     rms          rms(c)
DAV:   1    -0.129343761585E+03   -0.55904E-03   -0.31950E-02   333   0.870E-01    0.307E-02
DAV:   2    -0.129343829502E+03   -0.67916E-04   -0.83017E-04   394   0.119E-01    0.224E-02
DAV:   3    -0.129343824596E+03    0.49057E-05   -0.84991E-06   272   0.171E-02    0.147E-02
DAV:   4    -0.129343828658E+03   -0.40618E-05   -0.16433E-05   280   0.216E-02    0.305E-03
DAV:   5    -0.129343829013E+03   -0.35581E-06   -0.36743E-06   272   0.964E-03    0.178E-03
DAV:   6    -0.129343829275E+03   -0.26160E-06   -0.45378E-07   222   0.328E-03
  29 F= -.12934383E+03 E0= -.12934383E+03  d E =-.626516E-03
damped:  g(F)=  0.000E+00 g(S)=  0.000E+00 dE (1.order)= 0.000E+00
 bond charge predicted
       N       E                     dE             d eps       ncg     rms          rms(c)
DAV:   1    -0.129344423036E+03   -0.59402E-03   -0.49416E-02   330   0.109E+00    0.397E-02
DAV:   2    -0.129344532294E+03   -0.10926E-03   -0.13517E-03   388   0.152E-01    0.290E-02
DAV:   3    -0.129344523227E+03    0.90674E-05   -0.15067E-05   272   0.226E-02    0.191E-02
DAV:   4    -0.129344528282E+03   -0.50552E-05   -0.28919E-05   249   0.284E-02    0.412E-03
DAV:   5    -0.129344528942E+03   -0.65964E-06   -0.64737E-06   272   0.130E-02    0.225E-03
DAV:   6    -0.129344529532E+03   -0.59018E-06   -0.83755E-07   204   0.439E-03
  30 F= -.12934453E+03 E0= -.12934453E+03  d E =-.700257E-03
damped:  g(F)=  0.000E+00 g(S)=  0.000E+00 dE (1.order)= 0.000E+00
 bond charge predicted
       N       E                     dE             d eps       ncg     rms          rms(c)
DAV:   1    -0.129345062433E+03   -0.53349E-03   -0.72545E-02   331   0.131E+00    0.469E-02
DAV:   2    -0.129345220577E+03   -0.15814E-03   -0.19365E-03   362   0.181E-01    0.342E-02
DAV:   3    -0.129345208671E+03    0.11906E-04   -0.20589E-05   255   0.262E-02    0.226E-02
DAV:   4    -0.129345217334E+03   -0.86624E-05   -0.38776E-05   267   0.330E-02    0.467E-03
DAV:   5    -0.129345218668E+03   -0.13342E-05   -0.89297E-06   272   0.151E-02    0.263E-03
DAV:   6    -0.129345219745E+03   -0.10776E-05   -0.11257E-06   200   0.502E-03
  31 F= -.12934522E+03 E0= -.12934522E+03  d E =-.690214E-03
damped:  g(F)=  0.000E+00 g(S)=  0.000E+00 dE (1.order)= 0.000E+00
 bond charge predicted
       N       E                     dE             d eps       ncg     rms          rms(c)
DAV:   1    -0.129345826487E+03   -0.60782E-03   -0.99707E-02   331   0.153E+00    0.525E-02
DAV:   2    -0.129346030301E+03   -0.20381E-03   -0.24429E-03   387   0.202E-01    0.371E-02
DAV:   3    -0.129346019418E+03    0.10883E-04   -0.22914E-05   262   0.277E-02    0.240E-02
DAV:   4    -0.129346034724E+03   -0.15306E-04   -0.40245E-05   282   0.340E-02    0.433E-03
DAV:   5    -0.129346036754E+03   -0.20298E-05   -0.91616E-06   247   0.149E-02    0.282E-03
DAV:   6    -0.129346037911E+03   -0.11567E-05   -0.10391E-06   228   0.481E-03
  32 F= -.12934604E+03 E0= -.12934604E+03  d E =-.818165E-03
damped:  g(F)=  0.000E+00 g(S)=  0.000E+00 dE (1.order)= 0.000E+00
 bond charge predicted
       N       E                     dE             d eps       ncg     rms          rms(c)
DAV:   1    -0.129346889932E+03   -0.85318E-03   -0.13892E-01   329   0.180E+00    0.609E-02
DAV:   2    -0.129347167101E+03   -0.27717E-03   -0.33081E-03   388   0.235E-01    0.427E-02
DAV:   3    -0.129347154160E+03    0.12941E-04   -0.33284E-05   304   0.324E-02    0.267E-02
DAV:   4    -0.129347175455E+03   -0.21296E-04   -0.42292E-05   266   0.370E-02    0.390E-03
DAV:   5    -0.129347177920E+03   -0.24652E-05   -0.10657E-05   272   0.157E-02    0.288E-03
DAV:   6    -0.129347178808E+03   -0.88774E-06   -0.10461E-06   272   0.487E-03
  33 F= -.12934718E+03 E0= -.12934718E+03  d E =-.114090E-02
damped:  g(F)=  0.000E+00 g(S)=  0.000E+00 dE (1.order)= 0.000E+00
 bond charge predicted
       N       E                     dE             d eps       ncg     rms          rms(c)
DAV:   1    -0.129348085336E+03   -0.90742E-03   -0.20061E-01   330   0.217E+00    0.747E-02
DAV:   2    -0.129348501372E+03   -0.41604E-03   -0.50236E-03   396   0.289E-01    0.537E-02
DAV:   3    -0.129348476860E+03    0.24512E-04   -0.55430E-05   336   0.411E-02    0.345E-02
DAV:   4    -0.129348504877E+03   -0.28017E-04   -0.66131E-05   288   0.467E-02    0.544E-03
DAV:   5    -0.129348508233E+03   -0.33554E-05   -0.17605E-05   304   0.202E-02    0.387E-03
DAV:   6    -0.129348509170E+03   -0.93770E-06   -0.16769E-06   242   0.630E-03
  34 F= -.12934851E+03 E0= -.12934851E+03  d E =-.133036E-02
damped:  g(F)=  0.000E+00 g(S)=  0.000E+00 dE (1.order)= 0.000E+00
 bond charge predicted
       N       E                     dE             d eps       ncg     rms          rms(c)
DAV:   1    -0.129349300027E+03   -0.79179E-03   -0.27771E-01   334   0.255E+00    0.864E-02
DAV:   2    -0.129349854849E+03   -0.55482E-03   -0.67425E-03   411   0.334E-01    0.615E-02
DAV:   3    -0.129349821165E+03    0.33685E-04   -0.77624E-05   336   0.469E-02    0.393E-02
DAV:   4    -0.129349872701E+03   -0.51536E-04   -0.86646E-05   240   0.542E-02    0.592E-03
DAV:   5    -0.129349877431E+03   -0.47302E-05   -0.23964E-05   272   0.234E-02    0.435E-03
DAV:   6    -0.129349879251E+03   -0.18198E-05   -0.26545E-06   265   0.766E-03
  35 F= -.12934988E+03 E0= -.12934988E+03  d E =-.137008E-02
damped:  g(F)=  0.000E+00 g(S)=  0.000E+00 dE (1.order)= 0.000E+00
 bond charge predicted
       N       E                     dE             d eps       ncg     rms          rms(c)
DAV:   1    -0.129350872554E+03   -0.99512E-03   -0.35748E-01   329   0.289E+00    0.975E-02
DAV:   2    -0.129351559571E+03   -0.68702E-03   -0.84551E-03   380   0.373E-01    0.681E-02
DAV:   3    -0.129351523579E+03    0.35992E-04   -0.10329E-04   352   0.521E-02    0.429E-02
DAV:   4    -0.129351607048E+03   -0.83469E-04   -0.11135E-04   232   0.612E-02    0.667E-03
DAV:   5    -0.129351612181E+03   -0.51326E-05   -0.30033E-05   272   0.262E-02    0.485E-03
DAV:   6    -0.129351614675E+03   -0.24945E-05   -0.32661E-06   264   0.839E-03
  36 F= -.12935161E+03 E0= -.12935161E+03  d E =-.173542E-02
damped:  g(F)=  0.000E+00 g(S)=  0.000E+00 dE (1.order)= 0.000E+00
 bond charge predicted
       N       E                     dE             d eps       ncg     rms          rms(c)
DAV:   1    -0.129352468013E+03   -0.85583E-03   -0.48626E-01   328   0.337E+00    0.116E-01
DAV:   2    -0.129353434066E+03   -0.96605E-03   -0.11997E-02   364   0.444E-01    0.824E-02
DAV:   3    -0.129353390445E+03    0.43621E-04   -0.18596E-04   400   0.651E-02    0.538E-02
DAV:   4    -0.129353493392E+03   -0.10295E-03   -0.16581E-04   296   0.728E-02    0.903E-03
DAV:   5    -0.129353502041E+03   -0.86494E-05   -0.41692E-05   304   0.298E-02    0.635E-03
DAV:   6    -0.129353505879E+03   -0.38376E-05   -0.32670E-06   272   0.865E-03
  37 F= -.12935351E+03 E0= -.12935351E+03  d E =-.189120E-02
damped:  g(F)=  0.000E+00 g(S)=  0.000E+00 dE (1.order)= 0.000E+00
 bond charge predicted
       N       E                     dE             d eps       ncg     rms          rms(c)
DAV:   1    -0.129354342480E+03   -0.84044E-03   -0.63211E-01   328   0.382E+00    0.128E-01
DAV:   2    -0.129355551621E+03   -0.12091E-02   -0.14843E-02   380   0.492E-01    0.890E-02
DAV:   3    -0.129355506879E+03    0.44743E-04   -0.19619E-04   404   0.686E-02    0.554E-02
DAV:   4    -0.129355648866E+03   -0.14199E-03   -0.15511E-04   284   0.734E-02    0.821E-03
DAV:   5    -0.129355660055E+03   -0.11189E-04   -0.46031E-05   272   0.320E-02    0.676E-03
DAV:   6    -0.129355664325E+03   -0.42703E-05   -0.47380E-06   276   0.101E-02
  38 F= -.12935566E+03 E0= -.12935566E+03  d E =-.215845E-02
damped:  g(F)=  0.000E+00 g(S)=  0.000E+00 dE (1.order)= 0.000E+00
 bond charge predicted
       N       E                     dE             d eps       ncg     rms          rms(c)
DAV:   1    -0.129356294797E+03   -0.63474E-03   -0.86171E-01   328   0.448E+00    0.151E-01
DAV:   2    -0.129357987638E+03   -0.16928E-02   -0.20786E-02   364   0.584E-01    0.107E-01
DAV:   3    -0.129357927203E+03    0.60436E-04   -0.33873E-04   432   0.861E-02    0.686E-02
DAV:   4    -0.129358095161E+03   -0.16796E-03   -0.23431E-04   363   0.885E-02    0.108E-02
DAV:   5    -0.129358112901E+03   -0.17740E-04   -0.64381E-05   400   0.355E-02    0.889E-03
DAV:   6    -0.129358117769E+03   -0.48685E-05   -0.29515E-06   250   0.866E-03
  39 F= -.12935812E+03 E0= -.12935812E+03  d E =-.245344E-02
damped:  g(F)=  0.000E+00 g(S)=  0.000E+00 dE (1.order)= 0.000E+00
 bond charge predicted
       N       E                     dE             d eps       ncg     rms          rms(c)
DAV:   1    -0.129358627508E+03   -0.51461E-03   -0.11265E+00   329   0.512E+00    0.172E-01
DAV:   2    -0.129360814168E+03   -0.21867E-02   -0.26593E-02   380   0.658E-01    0.120E-01
DAV:   3    -0.129360743404E+03    0.70763E-04   -0.41482E-04   432   0.943E-02    0.752E-02
DAV:   4    -0.129360994415E+03   -0.25101E-03   -0.30430E-04   386   0.101E-01    0.119E-02
DAV:   5    -0.129361012196E+03   -0.17781E-04   -0.75752E-05   336   0.393E-02    0.991E-03
DAV:   6    -0.129361018449E+03   -0.62527E-05   -0.42845E-06   280   0.101E-02
  40 F= -.12936102E+03 E0= -.12936102E+03  d E =-.290068E-02
damped:  g(F)=  0.000E+00 g(S)=  0.000E+00 dE (1.order)= 0.000E+00
 bond charge predicted
       N       E                     dE             d eps       ncg     rms          rms(c)
DAV:   1    -0.129360819654E+03    0.19254E-03   -0.16150E+00   329   0.611E+00    0.209E-01
DAV:   2    -0.129363997596E+03   -0.31779E-02   -0.39258E-02   372   0.793E-01    0.146E-01
DAV:   3    -0.129363879998E+03    0.11760E-03   -0.62015E-04   464   0.114E-01    0.935E-02
DAV:   4    -0.129364240936E+03   -0.36094E-03   -0.41204E-04   395   0.116E-01    0.154E-02
DAV:   5    -0.129364271086E+03   -0.30150E-04   -0.11254E-04   368   0.469E-02    0.119E-02
DAV:   6    -0.129364278974E+03   -0.78881E-05   -0.43698E-06   286   0.104E-02
  41 F= -.12936428E+03 E0= -.12936428E+03  d E =-.326053E-02
damped:  g(F)=  0.000E+00 g(S)=  0.000E+00 dE (1.order)= 0.000E+00
 bond charge predicted
       N       E                     dE             d eps       ncg     rms          rms(c)
DAV:   1    -0.129363501025E+03    0.77006E-03   -0.22952E+00   328   0.724E+00    0.247E-01
DAV:   2    -0.129368096792E+03   -0.45958E-02   -0.56001E-02   364   0.945E-01    0.174E-01
DAV:   3    -0.129367909828E+03    0.18696E-03   -0.90898E-04   464   0.140E-01    0.111E-01
DAV:   4    -0.129368372764E+03   -0.46294E-03   -0.58607E-04   365   0.141E-01    0.171E-02
DAV:   5    -0.129368416487E+03   -0.43723E-04   -0.17072E-04   432   0.562E-02    0.148E-02
DAV:   6    -0.129368424886E+03   -0.83985E-05   -0.47898E-06   270   0.118E-02
  42 F= -.12936842E+03 E0= -.12936842E+03  d E =-.414591E-02
damped:  g(F)=  0.000E+00 g(S)=  0.000E+00 dE (1.order)= 0.000E+00
 bond charge predicted
       N       E                     dE             d eps       ncg     rms          rms(c)
DAV:   1    -0.129366167199E+03    0.22493E-02   -0.33123E+00   329   0.868E+00    0.300E-01
DAV:   2    -0.129372881633E+03   -0.67144E-02   -0.80971E-02   364   0.113E+00    0.207E-01
DAV:   3    -0.129372651509E+03    0.23012E-03   -0.12386E-03   464   0.162E-01    0.131E-01
DAV:   4    -0.129373258459E+03   -0.60695E-03   -0.82108E-04   395   0.164E-01    0.200E-02
DAV:   5    -0.129373315717E+03   -0.57257E-04   -0.22315E-04   400   0.649E-02    0.173E-02
DAV:   6    -0.129373331412E+03   -0.15695E-04   -0.69551E-06   290   0.140E-02
  43 F= -.12937333E+03 E0= -.12937333E+03  d E =-.490653E-02
damped:  g(F)=  0.000E+00 g(S)=  0.000E+00 dE (1.order)= 0.000E+00
 bond charge predicted
       N       E                     dE             d eps       ncg     rms          rms(c)
DAV:   1    -0.129368316586E+03    0.49991E-02   -0.49512E+00   328   0.106E+01    0.368E-01
DAV:   2    -0.129378676586E+03   -0.10360E-01   -0.12236E-01   356   0.139E+00    0.252E-01
DAV:   3    -0.129378360720E+03    0.31587E-03   -0.18792E-03   454   0.202E-01    0.158E-01
DAV:   4    -0.129379125458E+03   -0.76474E-03   -0.12211E-03   387   0.201E-01    0.232E-02
DAV:   5    -0.129379208313E+03   -0.82855E-04   -0.33696E-04   432   0.792E-02    0.214E-02
DAV:   6    -0.129379227841E+03   -0.19528E-04   -0.89864E-06   290   0.173E-02
  44 F= -.12937923E+03 E0= -.12937923E+03  d E =-.589643E-02
damped:  g(F)=  0.000E+00 g(S)=  0.000E+00 dE (1.order)= 0.000E+00
 bond charge predicted
       N       E                     dE             d eps       ncg     rms          rms(c)
DAV:   1    -0.129370974123E+03    0.82342E-02   -0.60435E+00   328   0.118E+01    0.416E-01
DAV:   2    -0.129383891477E+03   -0.12917E-01   -0.15324E-01   364   0.159E+00    0.286E-01
DAV:   3    -0.129383431650E+03    0.45983E-03   -0.25176E-03   462   0.237E-01    0.178E-01
DAV:   4    -0.129384331549E+03   -0.89990E-03   -0.15926E-03   395   0.233E-01    0.276E-02
DAV:   5    -0.129384420919E+03   -0.89370E-04   -0.42076E-04   432   0.919E-02    0.244E-02
DAV:   6    -0.129384442342E+03   -0.21423E-04   -0.12749E-05   276   0.202E-02
  45 F= -.12938444E+03 E0= -.12938444E+03  d E =-.521450E-02
damped:  g(F)=  0.000E+00 g(S)=  0.000E+00 dE (1.order)= 0.000E+00
 bond charge predicted
       N       E                     dE             d eps       ncg     rms          rms(c)
DAV:   1    -0.129385434054E+03   -0.10131E-02   -0.68518E-02   334   0.129E+00    0.890E-02
DAV:   2    -0.129385660846E+03   -0.22679E-03   -0.29856E-03   394   0.231E-01    0.502E-02
DAV:   3    -0.129385641376E+03    0.19470E-04   -0.77015E-05   357   0.467E-02    0.279E-02
DAV:   4    -0.129385648183E+03   -0.68074E-05   -0.62829E-05   234   0.390E-02    0.575E-03
DAV:   5    -0.129385657628E+03   -0.94450E-05   -0.13831E-05   336   0.173E-02    0.354E-03
DAV:   6    -0.129385664942E+03   -0.73137E-05   -0.21951E-06   264   0.704E-03
  46 F= -.12938566E+03 E0= -.12938566E+03  d E =-.122260E-02
damped:  g(F)=  0.000E+00 g(S)=  0.000E+00 dE (1.order)= 0.000E+00
 bond charge predicted
       N       E                     dE             d eps       ncg     rms          rms(c)
DAV:   1    -0.129384598109E+03    0.10595E-02   -0.78872E-02   367   0.140E+00    0.878E-02
DAV:   2    -0.129384839672E+03   -0.24156E-03   -0.34280E-03   395   0.249E-01    0.537E-02
DAV:   3    -0.129384795719E+03    0.43953E-04   -0.87102E-05   368   0.496E-02    0.312E-02
DAV:   4    -0.129384772841E+03    0.22878E-04   -0.74914E-05   264   0.425E-02    0.679E-03
DAV:   5    -0.129384775395E+03   -0.25542E-05   -0.15510E-05   336   0.188E-02    0.391E-03
DAV:   6    -0.129384780517E+03   -0.51223E-05   -0.23999E-06   244   0.774E-03
  47 F= -.12938478E+03 E0= -.12938478E+03  d E =0.884424E-03
damped:  g(F)=  0.000E+00 g(S)=  0.000E+00 dE (1.order)= 0.000E+00
 bond charge predicted
       N       E                     dE             d eps       ncg     rms          rms(c)
DAV:   1    -0.129385106526E+03   -0.33113E-03   -0.29193E-03   374   0.264E-01    0.185E-02
DAV:   2    -0.129385121470E+03   -0.14944E-04   -0.12098E-04   374   0.471E-02    0.973E-03
DAV:   3    -0.129385125872E+03   -0.44020E-05   -0.55388E-06   236   0.116E-02    0.542E-03
DAV:   4    -0.129385132890E+03   -0.70179E-05   -0.32283E-06   250   0.813E-03    0.120E-03
DAV:   5    -0.129385135709E+03   -0.28191E-05   -0.75410E-07   272   0.404E-03    0.645E-04
DAV:   6    -0.129385137202E+03   -0.14926E-05   -0.17653E-07   216   0.175E-03
  48 F= -.12938514E+03 E0= -.12938514E+03  d E =-.356684E-03
damped:  g(F)=  0.000E+00 g(S)=  0.000E+00 dE (1.order)= 0.000E+00
 bond charge predicted
       N       E                     dE             d eps       ncg     rms          rms(c)
DAV:   1    -0.129385488830E+03   -0.35312E-03   -0.93805E-03   340   0.475E-01    0.326E-02
DAV:   2    -0.129385518599E+03   -0.29769E-04   -0.40689E-04   377   0.853E-02    0.181E-02
DAV:   3    -0.129385514963E+03    0.36358E-05   -0.12186E-05   278   0.182E-02    0.102E-02
DAV:   4    -0.129385513671E+03    0.12919E-05   -0.86574E-06   264   0.143E-02    0.209E-03
DAV:   5    -0.129385513877E+03   -0.20556E-06   -0.17401E-06   272   0.648E-03    0.123E-03
DAV:   6    -0.129385514161E+03   -0.28416E-06   -0.29127E-07   204   0.272E-03
  49 F= -.12938551E+03 E0= -.12938551E+03  d E =-.376959E-03
damped:  g(F)=  0.000E+00 g(S)=  0.000E+00 dE (1.order)= 0.000E+00
 bond charge predicted
       N       E                     dE             d eps       ncg     rms          rms(c)
DAV:   1    -0.129385577473E+03   -0.63597E-04   -0.13881E-02   374   0.580E-01    0.390E-02
DAV:   2    -0.129385617946E+03   -0.40473E-04   -0.60903E-04   422   0.104E-01    0.224E-02
DAV:   3    -0.129385608657E+03    0.92894E-05   -0.13934E-05   272   0.201E-02    0.127E-02
DAV:   4    -0.129385603068E+03    0.55889E-05   -0.15998E-05   244   0.190E-02    0.283E-03
DAV:   5    -0.129385602826E+03    0.24208E-06   -0.32955E-06   272   0.943E-03    0.163E-03
DAV:   6    -0.129385603221E+03   -0.39535E-06   -0.55898E-07   220   0.364E-03
  50 F= -.12938560E+03 E0= -.12938560E+03  d E =-.890602E-04
damped:  g(F)=  0.000E+00 g(S)=  0.000E+00 dE (1.order)= 0.000E+00
 bond charge predicted
       N       E                     dE             d eps       ncg     rms          rms(c)
DAV:   1    -0.129385376188E+03    0.22664E-03   -0.10672E-02   358   0.512E-01    0.318E-02
DAV:   2    -0.129385406345E+03   -0.30157E-04   -0.44319E-04   342   0.898E-02    0.190E-02
DAV:   3    -0.129385400878E+03    0.54667E-05   -0.14882E-05   240   0.203E-02    0.111E-02
DAV:   4    -0.129385397497E+03    0.33813E-05   -0.11614E-05   228   0.169E-02    0.228E-03
DAV:   5    -0.129385397867E+03   -0.36979E-06   -0.25708E-06   238   0.784E-03    0.137E-03
DAV:   6    -0.129385398773E+03   -0.90593E-06   -0.48146E-07   200   0.348E-03
  51 F= -.12938540E+03 E0= -.12938540E+03  d E =0.204448E-03
damped:  g(F)=  0.000E+00 g(S)=  0.000E+00 dE (1.order)= 0.000E+00
 bond charge predicted
       N       E                     dE             d eps       ncg     rms          rms(c)
DAV:   1    -0.129385425055E+03   -0.27188E-04   -0.47367E-05   228   0.343E-02    0.203E-03
DAV:   2    -0.129385426393E+03   -0.13383E-05   -0.35053E-06   254   0.949E-03    0.121E-03
DAV:   3    -0.129385427385E+03   -0.99156E-06   -0.47627E-07   209   0.298E-03    0.842E-04
DAV:   4    -0.129385429004E+03   -0.16195E-05   -0.15831E-07   227   0.160E-03    0.271E-04
DAV:   5    -0.129385430012E+03   -0.10075E-05   -0.70249E-08   256   0.878E-04    0.158E-04
DAV:   6    -0.129385430869E+03   -0.85768E-06   -0.31244E-08   209   0.587E-04
  52 F= -.12938543E+03 E0= -.12938543E+03  d E =-.320965E-04
damped:  g(F)=  0.000E+00 g(S)=  0.000E+00 dE (1.order)= 0.000E+00
 bond charge predicted
       N       E                     dE             d eps       ncg     rms          rms(c)
DAV:   1    -0.129385475141E+03   -0.45130E-04   -0.18904E-04   342   0.677E-02    0.404E-03
DAV:   2    -0.129385476131E+03   -0.98998E-06   -0.90677E-06   236   0.146E-02    0.245E-03
DAV:   3    -0.129385476500E+03   -0.36881E-06   -0.86251E-07   254   0.459E-03    0.153E-03
DAV:   4    -0.129385477089E+03   -0.58869E-06   -0.24006E-07   210   0.259E-03    0.414E-04
DAV:   5    -0.129385477345E+03   -0.25624E-06   -0.43045E-08   264   0.122E-03    0.228E-04
DAV:   6    -0.129385477577E+03   -0.23164E-06    0.56833E-09   210   0.632E-04
  53 F= -.12938548E+03 E0= -.12938548E+03  d E =-.467074E-04
damped:  g(F)=  0.000E+00 g(S)=  0.000E+00 dE (1.order)= 0.000E+00
 bond charge predicted
       N       E                     dE             d eps       ncg     rms          rms(c)
DAV:   1    -0.129385532244E+03   -0.54899E-04   -0.38901E-04   376   0.969E-02    0.653E-03
DAV:   2    -0.129385533109E+03   -0.86444E-06   -0.14888E-05   228   0.173E-02    0.359E-03
DAV:   3    -0.129385533056E+03    0.52779E-07   -0.16538E-06   256   0.593E-03    0.184E-03
DAV:   4    -0.129385532996E+03    0.60321E-07   -0.42900E-07   210   0.305E-03    0.558E-04
DAV:   5    -0.129385533017E+03   -0.21732E-07   -0.10292E-07   256   0.165E-03    0.259E-04
DAV:   6    -0.129385533068E+03   -0.50175E-07   -0.13408E-08   202   0.826E-04
  54 F= -.12938553E+03 E0= -.12938553E+03  d E =-.554910E-04
damped:  g(F)=  0.000E+00 g(S)=  0.000E+00 dE (1.order)= 0.000E+00
 bond charge predicted
       N       E                     dE             d eps       ncg     rms          rms(c)
DAV:   1    -0.129385588116E+03   -0.55099E-04   -0.60372E-04   367   0.121E-01    0.810E-03
DAV:   2    -0.129385589230E+03   -0.11141E-05   -0.23319E-05   220   0.216E-02    0.447E-03
DAV:   3    -0.129385588943E+03    0.28705E-06   -0.26099E-06   256   0.742E-03    0.232E-03
DAV:   4    -0.129385588635E+03    0.30759E-06   -0.69141E-07   208   0.382E-03    0.716E-04
DAV:   5    -0.129385588593E+03    0.42778E-07   -0.18166E-07   247   0.209E-03    0.329E-04
DAV:   6    -0.129385588659E+03   -0.66632E-07   -0.38898E-08   184   0.104E-03
  55 F= -.12938559E+03 E0= -.12938559E+03  d E =-.555917E-04
damped:  g(F)=  0.000E+00 g(S)=  0.000E+00 dE (1.order)= 0.000E+00
 bond charge predicted
       N       E                     dE             d eps       ncg     rms          rms(c)
DAV:   1    -0.129385635430E+03   -0.46837E-04   -0.78385E-04   329   0.139E-01    0.916E-03
DAV:   2    -0.129385636970E+03   -0.15399E-05   -0.30423E-05   201   0.248E-02    0.508E-03
DAV:   3    -0.129385636653E+03    0.31708E-06   -0.33943E-06   237   0.848E-03    0.267E-03
DAV:   4    -0.129385636340E+03    0.31244E-06   -0.90440E-07   202   0.436E-03    0.833E-04
DAV:   5    -0.129385636340E+03   -0.21600E-09   -0.24712E-07   167   0.240E-03    0.375E-04
DAV:   6    -0.129385636456E+03   -0.11520E-06   -0.59974E-08   191   0.119E-03
  56 F= -.12938564E+03 E0= -.12938564E+03  d E =-.477962E-04
damped:  g(F)=  0.000E+00 g(S)=  0.000E+00 dE (1.order)= 0.000E+00
 bond charge predicted
       N       E                     dE             d eps       ncg     rms          rms(c)
DAV:   1    -0.129385670941E+03   -0.34600E-04   -0.87538E-04   331   0.148E-01    0.951E-03
DAV:   2    -0.129385672767E+03   -0.18264E-05   -0.33706E-05   203   0.263E-02    0.529E-03
DAV:   3    -0.129385672484E+03    0.28341E-06   -0.37249E-06   182   0.895E-03    0.282E-03
DAV:   4    -0.129385672217E+03    0.26678E-06   -0.99306E-07   208   0.459E-03    0.886E-04
DAV:   5    -0.129385672265E+03   -0.48567E-07   -0.27627E-07   165   0.253E-03    0.390E-04
DAV:   6    -0.129385672418E+03   -0.15310E-06   -0.69632E-08   175   0.126E-03
  57 F= -.12938567E+03 E0= -.12938567E+03  d E =-.359629E-04
damped:  g(F)=  0.000E+00 g(S)=  0.000E+00 dE (1.order)= 0.000E+00
 bond charge predicted
       N       E                     dE             d eps       ncg     rms          rms(c)
DAV:   1    -0.129385699860E+03   -0.27594E-04   -0.10227E-03   329   0.164E-01    0.983E-03
DAV:   2    -0.129385702036E+03   -0.21764E-05   -0.37854E-05   201   0.283E-02    0.549E-03
DAV:   3    -0.129385701806E+03    0.23029E-06   -0.40837E-06   165   0.953E-03    0.298E-03
DAV:   4    -0.129385701590E+03    0.21606E-06   -0.10830E-06   191   0.488E-03    0.929E-04
DAV:   5    -0.129385701667E+03   -0.77290E-07   -0.30535E-07   164   0.267E-03    0.399E-04
DAV:   6    -0.129385701838E+03   -0.17121E-06   -0.79180E-08   175   0.133E-03
  58 F= -.12938570E+03 E0= -.12938570E+03  d E =-.294197E-04
damped:  g(F)=  0.000E+00 g(S)=  0.000E+00 dE (1.order)= 0.000E+00
 bond charge predicted
       N       E                     dE             d eps       ncg     rms          rms(c)
DAV:   1    -0.129385731514E+03   -0.29847E-04   -0.10737E-03   328   0.171E-01    0.910E-03
DAV:   2    -0.129385733743E+03   -0.22287E-05   -0.36079E-05   200   0.282E-02    0.515E-03
DAV:   3    -0.129385733657E+03    0.85782E-07   -0.36764E-06   164   0.931E-03    0.285E-03
DAV:   4    -0.129385733585E+03    0.71602E-07   -0.95901E-07   164   0.475E-03    0.862E-04
DAV:   5    -0.129385733706E+03   -0.12071E-06   -0.27258E-07   164   0.257E-03    0.366E-04
DAV:   6    -0.129385733884E+03   -0.17760E-06   -0.69910E-08   164   0.127E-03
  59 F= -.12938573E+03 E0= -.12938573E+03  d E =-.320456E-04
damped:  g(F)=  0.000E+00 g(S)=  0.000E+00 dE (1.order)= 0.000E+00
 bond charge predicted
       N       E                     dE             d eps       ncg     rms          rms(c)
DAV:   1    -0.129385784107E+03   -0.50401E-04   -0.11700E-03   299   0.178E-01    0.735E-03
DAV:   2    -0.129385786750E+03   -0.26427E-05   -0.36652E-05   200   0.294E-02    0.443E-03
DAV:   3    -0.129385786945E+03   -0.19472E-06   -0.34738E-06   164   0.960E-03    0.270E-03
DAV:   4    -0.129385787116E+03   -0.17131E-06   -0.87922E-07   164   0.503E-03    0.682E-04
DAV:   5    -0.129385787270E+03   -0.15364E-06   -0.23886E-07   164   0.255E-03    0.365E-04
DAV:   6    -0.129385787446E+03   -0.17600E-06   -0.58349E-08   200   0.127E-03
  60 F= -.12938579E+03 E0= -.12938579E+03  d E =-.535621E-04
damped:  g(F)=  0.000E+00 g(S)=  0.000E+00 dE (1.order)= 0.000E+00
 bond charge predicted
       N       E                     dE             d eps       ncg     rms          rms(c)
DAV:   1    -0.129385882060E+03   -0.94791E-04   -0.16164E-03   346   0.197E-01    0.736E-03
DAV:   2    -0.129385885129E+03   -0.30683E-05   -0.39009E-05   233   0.267E-02    0.455E-03
DAV:   3    -0.129385885325E+03   -0.19604E-06   -0.18818E-06   164   0.634E-03    0.275E-03
DAV:   4    -0.129385885790E+03   -0.46507E-06   -0.71022E-07   262   0.429E-03    0.488E-04
DAV:   5    -0.129385885961E+03   -0.17121E-06   -0.21508E-07   200   0.206E-03    0.332E-04
DAV:   6    -0.129385886111E+03   -0.14990E-06   -0.49015E-08   219   0.940E-04
  61 F= -.12938589E+03 E0= -.12938589E+03  d E =-.986651E-04
damped:  g(F)=  0.000E+00 g(S)=  0.000E+00 dE (1.order)= 0.000E+00
 bond charge predicted
       N       E                     dE             d eps       ncg     rms          rms(c)
DAV:   1    -0.129386041924E+03   -0.15596E-03   -0.28591E-03   349   0.257E-01    0.951E-03
DAV:   2    -0.129386047433E+03   -0.55084E-05   -0.68839E-05   260   0.345E-02    0.611E-03
DAV:   3    -0.129386047679E+03   -0.24656E-06   -0.32699E-06   272   0.821E-03    0.377E-03
DAV:   4    -0.129386048327E+03   -0.64810E-06   -0.13491E-06   200   0.591E-03    0.697E-04
DAV:   5    -0.129386048432E+03   -0.10485E-06   -0.41917E-07   264   0.288E-03    0.477E-04
DAV:   6    -0.129386048501E+03   -0.68668E-07   -0.10040E-07   183   0.125E-03
  62 F= -.12938605E+03 E0= -.12938605E+03  d E =-.162390E-03
damped:  g(F)=  0.000E+00 g(S)=  0.000E+00 dE (1.order)= 0.000E+00
 bond charge predicted
       N       E                     dE             d eps       ncg     rms          rms(c)
DAV:   1    -0.129386265398E+03   -0.21697E-03   -0.55144E-03   330   0.363E-01    0.139E-02
DAV:   2    -0.129386276343E+03   -0.10945E-04   -0.14159E-04   267   0.519E-02    0.905E-03
DAV:   3    -0.129386276450E+03   -0.10667E-06   -0.72000E-06   272   0.125E-02    0.564E-03
DAV:   4    -0.129386277120E+03   -0.66952E-06   -0.32700E-06   200   0.941E-03    0.118E-03
DAV:   5    -0.129386277184E+03   -0.64235E-07   -0.96061E-07   256   0.457E-03    0.732E-04
DAV:   6    -0.129386277250E+03   -0.66408E-07   -0.25428E-07   186   0.203E-03
  63 F= -.12938628E+03 E0= -.12938628E+03  d E =-.228749E-03
damped:  g(F)=  0.000E+00 g(S)=  0.000E+00 dE (1.order)= 0.000E+00
 bond charge predicted
       N       E                     dE             d eps       ncg     rms          rms(c)
DAV:   1    -0.129386536170E+03   -0.25899E-03   -0.10180E-02   329   0.497E-01    0.193E-02
DAV:   2    -0.129386558071E+03   -0.21900E-04   -0.27939E-04   299   0.720E-02    0.130E-02
DAV:   3    -0.129386557058E+03    0.10131E-05   -0.63045E-06   256   0.139E-02    0.811E-03
DAV:   4    -0.129386557911E+03   -0.85290E-06   -0.52361E-06   200   0.131E-02    0.150E-03
DAV:   5    -0.129386558033E+03   -0.12232E-06   -0.13895E-06   220   0.585E-03    0.100E-03
DAV:   6    -0.129386558162E+03   -0.12920E-06   -0.24123E-07   174   0.222E-03
  64 F= -.12938656E+03 E0= -.12938656E+03  d E =-.280912E-03
damped:  g(F)=  0.000E+00 g(S)=  0.000E+00 dE (1.order)= 0.000E+00
 bond charge predicted
       N       E                     dE             d eps       ncg     rms          rms(c)
DAV:   1    -0.129386845772E+03   -0.28774E-03   -0.17301E-02   332   0.641E-01    0.242E-02
DAV:   2    -0.129386882950E+03   -0.37179E-04   -0.46361E-04   331   0.908E-02    0.166E-02
DAV:   3    -0.129386881072E+03    0.18783E-05   -0.67021E-06   209   0.146E-02    0.105E-02
DAV:   4    -0.129386883243E+03   -0.21709E-05   -0.83161E-06   235   0.167E-02    0.192E-03
DAV:   5    -0.129386883511E+03   -0.26815E-06   -0.23310E-06   200   0.751E-03    0.131E-03
DAV:   6    -0.129386883748E+03   -0.23740E-06   -0.38752E-07   164   0.265E-03
  65 F= -.12938688E+03 E0= -.12938688E+03  d E =-.325586E-03
damped:  g(F)=  0.000E+00 g(S)=  0.000E+00 dE (1.order)= 0.000E+00
 bond charge predicted
       N       E                     dE             d eps       ncg     rms          rms(c)
DAV:   1    -0.129387230222E+03   -0.34671E-03   -0.27683E-02   332   0.795E-01    0.290E-02
DAV:   2    -0.129387287770E+03   -0.57548E-04   -0.70366E-04   361   0.107E-01    0.197E-02
DAV:   3    -0.129387285500E+03    0.22704E-05   -0.71591E-06   252   0.156E-02    0.123E-02
DAV:   4    -0.129387290210E+03   -0.47110E-05   -0.98275E-06   219   0.178E-02    0.203E-03
DAV:   5    -0.129387290788E+03   -0.57705E-06   -0.28291E-06   224   0.813E-03    0.142E-03
DAV:   6    -0.129387291118E+03   -0.33051E-06   -0.38152E-07   174   0.267E-03
  66 F= -.12938729E+03 E0= -.12938729E+03  d E =-.407370E-03
damped:  g(F)=  0.000E+00 g(S)=  0.000E+00 dE (1.order)= 0.000E+00
 bond charge predicted
       N       E                     dE             d eps       ncg     rms          rms(c)
DAV:   1    -0.129387745034E+03   -0.45425E-03   -0.44204E-02   331   0.100E+00    0.362E-02
DAV:   2    -0.129387834985E+03   -0.89951E-04   -0.10973E-03   345   0.133E-01    0.242E-02
DAV:   3    -0.129387832585E+03    0.23999E-05   -0.12575E-05   254   0.192E-02    0.151E-02
DAV:   4    -0.129387840849E+03   -0.82634E-05   -0.16449E-05   243   0.220E-02    0.254E-03
DAV:   5    -0.129387841518E+03   -0.66987E-06   -0.41529E-06   272   0.957E-03    0.192E-03
DAV:   6    -0.129387841971E+03   -0.45282E-06   -0.40872E-07   216   0.306E-03
  67 F= -.12938784E+03 E0= -.12938784E+03  d E =-.550853E-03
damped:  g(F)=  0.000E+00 g(S)=  0.000E+00 dE (1.order)= 0.000E+00
 bond charge predicted
       N       E                     dE             d eps       ncg     rms          rms(c)
DAV:   1    -0.129388374533E+03   -0.53301E-03   -0.70445E-02   336   0.128E+00    0.466E-02
DAV:   2    -0.129388519994E+03   -0.14546E-03   -0.17858E-03   364   0.174E-01    0.310E-02
DAV:   3    -0.129388515732E+03    0.42620E-05   -0.24333E-05   295   0.254E-02    0.191E-02
DAV:   4    -0.129388526575E+03   -0.10843E-04   -0.22012E-05   232   0.279E-02    0.296E-03
DAV:   5    -0.129388527487E+03   -0.91177E-06   -0.61562E-06   272   0.121E-02    0.232E-03
DAV:   6    -0.129388528002E+03   -0.51443E-06   -0.65491E-07   204   0.412E-03
  68 F= -.12938853E+03 E0= -.12938853E+03  d E =-.686030E-03
damped:  g(F)=  0.000E+00 g(S)=  0.000E+00 dE (1.order)= 0.000E+00
 bond charge predicted
       N       E                     dE             d eps       ncg     rms          rms(c)
DAV:   1    -0.129389081521E+03   -0.55403E-03   -0.10707E-01   334   0.157E+00    0.570E-02
DAV:   2    -0.129389302076E+03   -0.22056E-03   -0.26939E-03   355   0.212E-01    0.381E-02
DAV:   3    -0.129389295838E+03    0.62386E-05   -0.37633E-05   327   0.308E-02    0.236E-02
DAV:   4    -0.129389312364E+03   -0.16526E-04   -0.34459E-05   233   0.345E-02    0.376E-03
DAV:   5    -0.129389313816E+03   -0.14525E-05   -0.93224E-06   272   0.148E-02    0.288E-03
DAV:   6    -0.129389314826E+03   -0.10095E-05   -0.97599E-07   232   0.509E-03
  69 F= -.12938931E+03 E0= -.12938931E+03  d E =-.786824E-03
damped:  g(F)=  0.000E+00 g(S)=  0.000E+00 dE (1.order)= 0.000E+00
 bond charge predicted
       N       E                     dE             d eps       ncg     rms          rms(c)
DAV:   1    -0.129389963418E+03   -0.64960E-03   -0.15127E-01   334   0.185E+00    0.668E-02
DAV:   2    -0.129390271491E+03   -0.30807E-03   -0.37334E-03   338   0.244E-01    0.447E-02
DAV:   3    -0.129390264616E+03    0.68745E-05   -0.51192E-05   327   0.351E-02    0.277E-02
DAV:   4    -0.129390290426E+03   -0.25809E-04   -0.47334E-05   242   0.394E-02    0.451E-03
DAV:   5    -0.129390292318E+03   -0.18923E-05   -0.12901E-05   272   0.171E-02    0.327E-03
DAV:   6    -0.129390293602E+03   -0.12844E-05   -0.13296E-06   234   0.569E-03
  70 F= -.12939029E+03 E0= -.12939029E+03  d E =-.978777E-03
damped:  g(F)=  0.000E+00 g(S)=  0.000E+00 dE (1.order)= 0.000E+00
 bond charge predicted
       N       E                     dE             d eps       ncg     rms          rms(c)
DAV:   1    -0.129390977247E+03   -0.68493E-03   -0.21213E-01   332   0.220E+00    0.804E-02
DAV:   2    -0.129391414358E+03   -0.43711E-03   -0.53402E-03   363   0.296E-01    0.541E-02
DAV:   3    -0.129391405687E+03    0.86703E-05   -0.77698E-05   368   0.440E-02    0.336E-02
DAV:   4    -0.129391438213E+03   -0.32526E-04   -0.72337E-05   242   0.489E-02    0.564E-03
DAV:   5    -0.129391440643E+03   -0.24302E-05   -0.19062E-05   272   0.213E-02    0.404E-03
DAV:   6    -0.129391442110E+03   -0.14665E-05   -0.20564E-06   210   0.704E-03
  71 F= -.12939144E+03 E0= -.12939144E+03  d E =-.114851E-02
damped:  g(F)=  0.000E+00 g(S)=  0.000E+00 dE (1.order)= 0.000E+00
 bond charge predicted
       N       E                     dE             d eps       ncg     rms          rms(c)
DAV:   1    -0.129392129217E+03   -0.68857E-03   -0.27885E-01   331   0.249E+00    0.909E-02
DAV:   2    -0.129392692616E+03   -0.56340E-03   -0.68886E-03   355   0.328E-01    0.606E-02
DAV:   3    -0.129392686387E+03    0.62293E-05   -0.96141E-05   332   0.474E-02    0.374E-02
DAV:   4    -0.129392731788E+03   -0.45402E-04   -0.88060E-05   268   0.528E-02    0.624E-03
DAV:   5    -0.129392735167E+03   -0.33792E-05   -0.23783E-05   238   0.230E-02    0.466E-03
DAV:   6    -0.129392737551E+03   -0.23838E-05   -0.28512E-06   266   0.807E-03
  72 F= -.12939274E+03 E0= -.12939274E+03  d E =-.129544E-02
damped:  g(F)=  0.000E+00 g(S)=  0.000E+00 dE (1.order)= 0.000E+00
 bond charge predicted
       N       E                     dE             d eps       ncg     rms          rms(c)
DAV:   1    -0.129393388532E+03   -0.65337E-03   -0.35247E-01   328   0.282E+00    0.104E-01
DAV:   2    -0.129394112125E+03   -0.72359E-03   -0.88479E-03   364   0.379E-01    0.691E-02
DAV:   3    -0.129394103344E+03    0.87810E-05   -0.13201E-04   375   0.562E-02    0.428E-02
DAV:   4    -0.129394155318E+03   -0.51974E-04   -0.10542E-04   242   0.599E-02    0.693E-03
DAV:   5    -0.129394160440E+03   -0.51222E-05   -0.29882E-05   272   0.262E-02    0.558E-03
DAV:   6    -0.129394163052E+03   -0.26120E-05   -0.35922E-06   260   0.891E-03
  73 F= -.12939416E+03 E0= -.12939416E+03  d E =-.142550E-02
damped:  g(F)=  0.000E+00 g(S)=  0.000E+00 dE (1.order)= 0.000E+00
 bond charge predicted
       N       E                     dE             d eps       ncg     rms          rms(c)
DAV:   1    -0.129394797855E+03   -0.63741E-03   -0.41841E-01   330   0.307E+00    0.112E-01
DAV:   2    -0.129395648023E+03   -0.85017E-03   -0.10352E-02   364   0.404E-01    0.748E-02
DAV:   3    -0.129395639840E+03    0.81838E-05   -0.15597E-04   400   0.593E-02    0.463E-02
DAV:   4    -0.129395705202E+03   -0.65362E-04   -0.13026E-04   330   0.634E-02    0.815E-03
DAV:   5    -0.129395710323E+03   -0.51214E-05   -0.31201E-05   264   0.262E-02    0.591E-03
DAV:   6    -0.129395713578E+03   -0.32552E-05   -0.33930E-06   266   0.862E-03
  74 F= -.12939571E+03 E0= -.12939571E+03  d E =-.155053E-02
damped:  g(F)=  0.000E+00 g(S)=  0.000E+00 dE (1.order)= 0.000E+00
 bond charge predicted
       N       E                     dE             d eps       ncg     rms          rms(c)
DAV:   1    -0.129396182142E+03   -0.47182E-03   -0.51826E-01   328   0.348E+00    0.125E-01
DAV:   2    -0.129397240610E+03   -0.10585E-02   -0.12854E-02   364   0.461E-01    0.839E-02
DAV:   3    -0.129397229104E+03    0.11506E-04   -0.20420E-04   373   0.684E-02    0.518E-02
DAV:   4    -0.129397307406E+03   -0.78302E-04   -0.15935E-04   291   0.725E-02    0.882E-03
DAV:   5    -0.129397313757E+03   -0.63511E-05   -0.41300E-05   296   0.303E-02    0.683E-03
DAV:   6    -0.129397317568E+03   -0.38112E-05   -0.34828E-06   264   0.927E-03
  75 F= -.12939732E+03 E0= -.12939732E+03  d E =-.160399E-02
damped:  g(F)=  0.000E+00 g(S)=  0.000E+00 dE (1.order)= 0.000E+00
 bond charge predicted
       N       E                     dE             d eps       ncg     rms          rms(c)
DAV:   1    -0.129397595753E+03   -0.28200E-03   -0.65676E-01   328   0.400E+00    0.144E-01
DAV:   2    -0.129398948977E+03   -0.13532E-02   -0.16529E-02   364   0.540E-01    0.956E-02
DAV:   3    -0.129398931351E+03    0.17626E-04   -0.26864E-04   384   0.800E-02    0.591E-02
DAV:   4    -0.129399027562E+03   -0.96211E-04   -0.19644E-04   274   0.830E-02    0.976E-03
DAV:   5    -0.129399036531E+03   -0.89689E-05   -0.51423E-05   304   0.346E-02    0.778E-03
DAV:   6    -0.129399041203E+03   -0.46725E-05   -0.45941E-06   276   0.109E-02
  76 F= -.12939904E+03 E0= -.12939904E+03  d E =-.172364E-02
damped:  g(F)=  0.000E+00 g(S)=  0.000E+00 dE (1.order)= 0.000E+00
 bond charge predicted
       N       E                     dE             d eps       ncg     rms          rms(c)
DAV:   1    -0.129399050440E+03   -0.13909E-04   -0.85230E-01   328   0.457E+00    0.162E-01
DAV:   2    -0.129400810262E+03   -0.17598E-02   -0.21347E-02   348   0.614E-01    0.111E-01
DAV:   3    -0.129400773386E+03    0.36875E-04   -0.38665E-04   432   0.933E-02    0.685E-02
DAV:   4    -0.129400899936E+03   -0.12655E-03   -0.24259E-04   306   0.930E-02    0.111E-02
DAV:   5    -0.129400911119E+03   -0.11182E-04   -0.66246E-05   336   0.391E-02    0.923E-03
DAV:   6    -0.129400915784E+03   -0.46651E-05   -0.42083E-06   268   0.100E-02
  77 F= -.12940092E+03 E0= -.12940092E+03  d E =-.187458E-02
damped:  g(F)=  0.000E+00 g(S)=  0.000E+00 dE (1.order)= 0.000E+00
 bond charge predicted
       N       E                     dE             d eps       ncg     rms          rms(c)
DAV:   1    -0.129400318031E+03    0.59309E-03   -0.11784E+00   328   0.540E+00    0.193E-01
DAV:   2    -0.129402762961E+03   -0.24449E-02   -0.29832E-02   363   0.735E-01    0.129E-01
DAV:   3    -0.129402716892E+03    0.46069E-04   -0.53464E-04   448   0.110E-01    0.797E-02
DAV:   4    -0.129402882973E+03   -0.16608E-03   -0.29960E-04   338   0.104E-01    0.129E-02
DAV:   5    -0.129402900149E+03   -0.17176E-04   -0.81731E-05   336   0.439E-02    0.110E-02
DAV:   6    -0.129402906160E+03   -0.60115E-05   -0.56881E-06   276   0.122E-02
  78 F= -.12940291E+03 E0= -.12940291E+03  d E =-.199038E-02
damped:  g(F)=  0.000E+00 g(S)=  0.000E+00 dE (1.order)= 0.000E+00
 bond charge predicted
       N       E                     dE             d eps       ncg     rms          rms(c)
DAV:   1    -0.129400915297E+03    0.19849E-02   -0.15747E+00   328   0.633E+00    0.234E-01
DAV:   2    -0.129404317480E+03   -0.34022E-02   -0.42106E-02   338   0.889E-01    0.161E-01
DAV:   3    -0.129404197632E+03    0.11985E-03   -0.87358E-04   464   0.144E-01    0.100E-01
DAV:   4    -0.129404380070E+03   -0.18244E-03   -0.53980E-04   371   0.134E-01    0.184E-02
DAV:   5    -0.129404400604E+03   -0.20534E-04   -0.12132E-04   400   0.538E-02    0.136E-02
DAV:   6    -0.129404407417E+03   -0.68134E-05   -0.77562E-06   280   0.141E-02
  79 F= -.12940441E+03 E0= -.12940441E+03  d E =-.150126E-02
damped:  g(F)=  0.000E+00 g(S)=  0.000E+00 dE (1.order)= 0.000E+00
 bond charge predicted
       N       E                     dE             d eps       ncg     rms          rms(c)
DAV:   1    -0.129405246666E+03   -0.84606E-03   -0.56786E-02   330   0.122E+00    0.824E-02
DAV:   2    -0.129405435557E+03   -0.18889E-03   -0.25652E-03   370   0.224E-01    0.467E-02
DAV:   3    -0.129405414484E+03    0.21073E-04   -0.70052E-05   343   0.466E-02    0.264E-02
DAV:   4    -0.129405411847E+03    0.26371E-05   -0.56040E-05   234   0.383E-02    0.573E-03
DAV:   5    -0.129405416345E+03   -0.44974E-05   -0.13458E-05   368   0.176E-02    0.329E-03
DAV:   6    -0.129405419700E+03   -0.33551E-05   -0.20092E-06   236   0.696E-03
  80 F= -.12940542E+03 E0= -.12940542E+03  d E =-.101228E-02
damped:  g(F)=  0.000E+00 g(S)=  0.000E+00 dE (1.order)= 0.000E+00
 bond charge predicted
       N       E                     dE             d eps       ncg     rms          rms(c)
DAV:   1    -0.129404685244E+03    0.73110E-03   -0.56798E-02   366   0.123E+00    0.779E-02
DAV:   2    -0.129404854841E+03   -0.16960E-03   -0.25708E-03   386   0.225E-01    0.463E-02
DAV:   3    -0.129404818019E+03    0.36821E-04   -0.68452E-05   360   0.456E-02    0.270E-02
DAV:   4    -0.129404793477E+03    0.24542E-04   -0.59175E-05   264   0.392E-02    0.609E-03
DAV:   5    -0.129404793680E+03   -0.20281E-06   -0.13339E-05   296   0.181E-02    0.352E-03
DAV:   6    -0.129404797176E+03   -0.34958E-05   -0.20521E-06   228   0.738E-03
  81 F= -.12940480E+03 E0= -.12940480E+03  d E =0.622524E-03
damped:  g(F)=  0.000E+00 g(S)=  0.000E+00 dE (1.order)= 0.000E+00
 bond charge predicted
       N       E                     dE             d eps       ncg     rms          rms(c)
DAV:   1    -0.129405117501E+03   -0.32382E-03   -0.26826E-03   365   0.265E-01    0.179E-02
DAV:   2    -0.129405131255E+03   -0.13753E-04   -0.11553E-04   376   0.484E-02    0.965E-03
DAV:   3    -0.129405134956E+03   -0.37009E-05   -0.54925E-06   232   0.121E-02    0.548E-03
DAV:   4    -0.129405140943E+03   -0.59876E-05   -0.31389E-06   244   0.840E-03    0.130E-03
DAV:   5    -0.129405143472E+03   -0.25290E-05   -0.76091E-07   272   0.434E-03    0.654E-04
DAV:   6    -0.129405144784E+03   -0.13113E-05   -0.18136E-07   200   0.189E-03
  82 F= -.12940514E+03 E0= -.12940514E+03  d E =-.347607E-03
damped:  g(F)=  0.000E+00 g(S)=  0.000E+00 dE (1.order)= 0.000E+00
 bond charge predicted
       N       E                     dE             d eps       ncg     rms          rms(c)
DAV:   1    -0.129405508901E+03   -0.36543E-03   -0.86033E-03   341   0.478E-01    0.311E-02
DAV:   2    -0.129405536242E+03   -0.27341E-04   -0.38668E-04   368   0.878E-02    0.180E-02
DAV:   3    -0.129405532566E+03    0.36755E-05   -0.12672E-05   268   0.195E-02    0.103E-02
DAV:   4    -0.129405530491E+03    0.20754E-05   -0.85887E-06   297   0.149E-02    0.233E-03
DAV:   5    -0.129405530390E+03    0.10062E-06   -0.19116E-06   264   0.710E-03    0.125E-03
DAV:   6    -0.129405530598E+03   -0.20744E-06   -0.34616E-07   236   0.305E-03
  83 F= -.12940553E+03 E0= -.12940553E+03  d E =-.385814E-03
damped:  g(F)=  0.000E+00 g(S)=  0.000E+00 dE (1.order)= 0.000E+00
 bond charge predicted
       N       E                     dE             d eps       ncg     rms          rms(c)
DAV:   1    -0.129405662323E+03   -0.13193E-03   -0.12698E-02   360   0.588E-01    0.364E-02
DAV:   2    -0.129405698769E+03   -0.36446E-04   -0.56744E-04   438   0.107E-01    0.219E-02
DAV:   3    -0.129405690281E+03    0.84874E-05   -0.13771E-05   272   0.213E-02    0.128E-02
DAV:   4    -0.129405684494E+03    0.57879E-05   -0.15852E-05   244   0.198E-02    0.302E-03
DAV:   5    -0.129405684122E+03    0.37169E-06   -0.33938E-06   272   0.101E-02    0.163E-03
DAV:   6    -0.129405684561E+03   -0.43916E-06   -0.64976E-07   220   0.407E-03
  84 F= -.12940568E+03 E0= -.12940568E+03  d E =-.153963E-03
damped:  g(F)=  0.000E+00 g(S)=  0.000E+00 dE (1.order)= 0.000E+00
 bond charge predicted
       N       E                     dE             d eps       ncg     rms          rms(c)
DAV:   1    -0.129405598472E+03    0.85650E-04   -0.10390E-02   365   0.539E-01    0.294E-02
DAV:   2    -0.129405626442E+03   -0.27969E-04   -0.42070E-04   325   0.939E-02    0.183E-02
DAV:   3    -0.129405621811E+03    0.46302E-05   -0.14177E-05   240   0.209E-02    0.111E-02
DAV:   4    -0.129405618697E+03    0.31141E-05   -0.11460E-05   216   0.179E-02    0.241E-03
DAV:   5    -0.129405619082E+03   -0.38490E-06   -0.26096E-06   224   0.834E-03    0.139E-03
DAV:   6    -0.129405620039E+03   -0.95717E-06   -0.52676E-07   208   0.375E-03
  85 F= -.12940562E+03 E0= -.12940562E+03  d E =0.645217E-04
damped:  g(F)=  0.000E+00 g(S)=  0.000E+00 dE (1.order)= 0.000E+00
 bond charge predicted
       N       E                     dE             d eps       ncg     rms          rms(c)
DAV:   1    -0.129405652100E+03   -0.33018E-04   -0.56646E-05   220   0.400E-02    0.212E-03
DAV:   2    -0.129405653550E+03   -0.14503E-05   -0.41750E-06   264   0.111E-02    0.129E-03
DAV:   3    -0.129405654549E+03   -0.99901E-06   -0.55506E-07   200   0.339E-03    0.909E-04
DAV:   4    -0.129405656222E+03   -0.16731E-05   -0.18844E-07   236   0.184E-03    0.288E-04
DAV:   5    -0.129405657242E+03   -0.10198E-05   -0.88546E-08   256   0.999E-04    0.168E-04
DAV:   6    -0.129405658143E+03   -0.90093E-06   -0.43707E-08   208   0.663E-04
  86 F= -.12940566E+03 E0= -.12940566E+03  d E =-.381038E-04
damped:  g(F)=  0.000E+00 g(S)=  0.000E+00 dE (1.order)= 0.000E+00
 bond charge predicted
       N       E                     dE             d eps       ncg     rms          rms(c)
DAV:   1    -0.129405712510E+03   -0.55268E-04   -0.22213E-04   311   0.783E-02    0.409E-03
DAV:   2    -0.129405713707E+03   -0.11975E-05   -0.11061E-05   233   0.171E-02    0.256E-03
DAV:   3    -0.129405714087E+03   -0.38013E-06   -0.11364E-06   240   0.549E-03    0.164E-03
DAV:   4    -0.129405714660E+03   -0.57268E-06   -0.32275E-07   208   0.300E-03    0.455E-04
DAV:   5    -0.129405714926E+03   -0.26643E-06   -0.75823E-08   256   0.148E-03    0.243E-04
DAV:   6    -0.129405715151E+03   -0.22475E-06   -0.11313E-08   228   0.772E-04
  87 F= -.12940572E+03 E0= -.12940572E+03  d E =-.570081E-04
damped:  g(F)=  0.000E+00 g(S)=  0.000E+00 dE (1.order)= 0.000E+00
 bond charge predicted
       N       E                     dE             d eps       ncg     rms          rms(c)
DAV:   1    -0.129405782930E+03   -0.68004E-04   -0.45924E-04   366   0.112E-01    0.670E-03
DAV:   2    -0.129405783985E+03   -0.10547E-05   -0.17641E-05   220   0.200E-02    0.378E-03
DAV:   3    -0.129405783908E+03    0.77062E-07   -0.19005E-06   256   0.678E-03    0.206E-03
DAV:   4    -0.129405783810E+03    0.97818E-07   -0.51433E-07   210   0.352E-03    0.648E-04
DAV:   5    -0.129405783814E+03   -0.38631E-08   -0.13933E-07   272   0.195E-03    0.282E-04
DAV:   6    -0.129405783866E+03   -0.51877E-07   -0.27650E-08   204   0.958E-04
  88 F= -.12940578E+03 E0= -.12940578E+03  d E =-.687145E-04
damped:  g(F)=  0.000E+00 g(S)=  0.000E+00 dE (1.order)= 0.000E+00
 bond charge predicted
       N       E                     dE             d eps       ncg     rms          rms(c)
DAV:   1    -0.129405853217E+03   -0.69403E-04   -0.71634E-04   384   0.140E-01    0.824E-03
DAV:   2    -0.129405854632E+03   -0.14156E-05   -0.27303E-05   220   0.248E-02    0.469E-03
DAV:   3    -0.129405854346E+03    0.28674E-06   -0.29302E-06   264   0.841E-03    0.257E-03
DAV:   4    -0.129405854018E+03    0.32723E-06   -0.79503E-07   208   0.437E-03    0.812E-04
DAV:   5    -0.129405853963E+03    0.54872E-07   -0.22099E-07   231   0.243E-03    0.354E-04
DAV:   6    -0.129405854038E+03   -0.74867E-07   -0.49676E-08   184   0.119E-03
  89 F= -.12940585E+03 E0= -.12940585E+03  d E =-.701725E-04
damped:  g(F)=  0.000E+00 g(S)=  0.000E+00 dE (1.order)= 0.000E+00
 bond charge predicted
       N       E                     dE             d eps       ncg     rms          rms(c)
DAV:   1    -0.129405914881E+03   -0.60917E-04   -0.94261E-04   341   0.161E-01    0.922E-03
DAV:   2    -0.129405916831E+03   -0.19502E-05   -0.35316E-05   211   0.283E-02    0.528E-03
DAV:   3    -0.129405916533E+03    0.29804E-06   -0.37530E-06   226   0.953E-03    0.291E-03
DAV:   4    -0.129405916204E+03    0.32874E-06   -0.10202E-06   192   0.496E-03    0.919E-04
DAV:   5    -0.129405916195E+03    0.88212E-08   -0.28964E-07   173   0.275E-03    0.400E-04
DAV:   6    -0.129405916319E+03   -0.12391E-06   -0.70047E-08   191   0.135E-03
  90 F= -.12940592E+03 E0= -.12940592E+03  d E =-.622809E-04
damped:  g(F)=  0.000E+00 g(S)=  0.000E+00 dE (1.order)= 0.000E+00
 bond charge predicted
       N       E                     dE             d eps       ncg     rms          rms(c)
DAV:   1    -0.129405963258E+03   -0.47062E-04   -0.10842E-03   349   0.173E-01    0.945E-03
DAV:   2    -0.129405965564E+03   -0.23066E-05   -0.39219E-05   212   0.298E-02    0.547E-03
DAV:   3    -0.129405965317E+03    0.24737E-06   -0.40812E-06   164   0.998E-03    0.306E-03
DAV:   4    -0.129405965049E+03    0.26769E-06   -0.11064E-06   165   0.520E-03    0.954E-04
DAV:   5    -0.129405965092E+03   -0.43315E-07   -0.31869E-07   164   0.287E-03    0.415E-04
DAV:   6    -0.129405965254E+03   -0.16166E-06   -0.79499E-08   166   0.142E-03
  91 F= -.12940597E+03 E0= -.12940597E+03  d E =-.489349E-04
damped:  g(F)=  0.000E+00 g(S)=  0.000E+00 dE (1.order)= 0.000E+00
 bond charge predicted
       N       E                     dE             d eps       ncg     rms          rms(c)
DAV:   1    -0.129406003092E+03   -0.37999E-04   -0.13427E-03   339   0.192E-01    0.965E-03
DAV:   2    -0.129406005946E+03   -0.28549E-05   -0.45260E-05   211   0.320E-02    0.571E-03
DAV:   3    -0.129406005783E+03    0.16372E-06   -0.45121E-06   164   0.106E-02    0.325E-03
DAV:   4    -0.129406005592E+03    0.19077E-06   -0.12133E-06   164   0.553E-03    0.988E-04
DAV:   5    -0.129406005668E+03   -0.76452E-07   -0.35577E-07   164   0.302E-03    0.428E-04
DAV:   6    -0.129406005846E+03   -0.17731E-06   -0.90832E-08   164   0.149E-03
  92 F= -.12940601E+03 E0= -.12940601E+03  d E =-.405916E-04
damped:  g(F)=  0.000E+00 g(S)=  0.000E+00 dE (1.order)= 0.000E+00
 bond charge predicted
       N       E                     dE             d eps       ncg     rms          rms(c)
DAV:   1    -0.129406043142E+03   -0.37474E-04   -0.14976E-03   338   0.200E-01    0.882E-03
DAV:   2    -0.129406046217E+03   -0.30746E-05   -0.44638E-05   200   0.315E-02    0.538E-03
DAV:   3    -0.129406046226E+03   -0.94351E-08   -0.41101E-06   164   0.101E-02    0.315E-03
DAV:   4    -0.129406046235E+03   -0.90868E-08   -0.10817E-06   164   0.535E-03    0.896E-04
DAV:   5    -0.129406046367E+03   -0.13188E-06   -0.32467E-07   164   0.287E-03    0.400E-04
DAV:   6    -0.129406046547E+03   -0.17963E-06   -0.82596E-08   164   0.140E-03
  93 F= -.12940605E+03 E0= -.12940605E+03  d E =-.407012E-04
damped:  g(F)=  0.000E+00 g(S)=  0.000E+00 dE (1.order)= 0.000E+00
 bond charge predicted
       N       E                     dE             d eps       ncg     rms          rms(c)
DAV:   1    -0.129406099811E+03   -0.53444E-04   -0.16205E-03   339   0.200E-01    0.755E-03
DAV:   2    -0.129406103077E+03   -0.32656E-05   -0.42169E-05   223   0.287E-02    0.486E-03
DAV:   3    -0.129406103160E+03   -0.82904E-07   -0.21805E-06   164   0.696E-03    0.303E-03
DAV:   4    -0.129406103470E+03   -0.30994E-06   -0.89562E-07   164   0.499E-03    0.553E-04
DAV:   5    -0.129406103636E+03   -0.16633E-06   -0.26690E-07   164   0.244E-03    0.377E-04
DAV:   6    -0.129406103791E+03   -0.15529E-06   -0.61338E-08   200   0.110E-03
  94 F= -.12940610E+03 E0= -.12940610E+03  d E =-.572442E-04
damped:  g(F)=  0.000E+00 g(S)=  0.000E+00 dE (1.order)= 0.000E+00
 bond charge predicted
       N       E                     dE             d eps       ncg     rms          rms(c)
DAV:   1    -0.129406186822E+03   -0.83186E-04   -0.18115E-03   356   0.203E-01    0.721E-03
DAV:   2    -0.129406190344E+03   -0.35216E-05   -0.42431E-05   232   0.267E-02    0.468E-03
DAV:   3    -0.129406190567E+03   -0.22348E-06   -0.20226E-06   164   0.623E-03    0.292E-03
DAV:   4    -0.129406191127E+03   -0.56013E-06   -0.78455E-07   237   0.442E-03    0.457E-04
DAV:   5    -0.129406191294E+03   -0.16656E-06   -0.25930E-07   219   0.211E-03    0.357E-04
DAV:   6    -0.129406191410E+03   -0.11652E-06   -0.62248E-08   210   0.920E-04
  95 F= -.12940619E+03 E0= -.12940619E+03  d E =-.876191E-04
damped:  g(F)=  0.000E+00 g(S)=  0.000E+00 dE (1.order)= 0.000E+00
 bond charge predicted
       N       E                     dE             d eps       ncg     rms          rms(c)
DAV:   1    -0.129406301345E+03   -0.11005E-03   -0.21969E-03   355   0.232E-01    0.873E-03
DAV:   2    -0.129406305830E+03   -0.44854E-05   -0.56518E-05   268   0.329E-02    0.575E-03
DAV:   3    -0.129406305965E+03   -0.13521E-06   -0.30218E-06   272   0.804E-03    0.365E-03
DAV:   4    -0.129406306310E+03   -0.34464E-06   -0.14043E-06   218   0.611E-03    0.777E-04
DAV:   5    -0.129406306353E+03   -0.43402E-07   -0.41016E-07   256   0.296E-03    0.486E-04
DAV:   6    -0.129406306396E+03   -0.42490E-07   -0.11243E-07   176   0.139E-03
  96 F= -.12940631E+03 E0= -.12940631E+03  d E =-.114986E-03
damped:  g(F)=  0.000E+00 g(S)=  0.000E+00 dE (1.order)= 0.000E+00
 bond charge predicted
       N       E                     dE             d eps       ncg     rms          rms(c)
DAV:   1    -0.129406415875E+03   -0.10952E-03   -0.27644E-03   373   0.272E-01    0.116E-02
DAV:   2    -0.129406421666E+03   -0.57910E-05   -0.81987E-05   243   0.420E-02    0.743E-03
DAV:   3    -0.129406421490E+03    0.17618E-06   -0.51284E-06   272   0.108E-02    0.465E-03
DAV:   4    -0.129406421354E+03    0.13666E-06   -0.25785E-06   200   0.811E-03    0.111E-03
DAV:   5    -0.129406421347E+03    0.70877E-08   -0.68183E-07   256   0.399E-03    0.626E-04
DAV:   6    -0.129406421404E+03   -0.57074E-07   -0.19371E-07   186   0.192E-03
  97 F= -.12940642E+03 E0= -.12940642E+03  d E =-.115008E-03
damped:  g(F)=  0.000E+00 g(S)=  0.000E+00 dE (1.order)= 0.000E+00
 bond charge predicted
       N       E                     dE             d eps       ncg     rms          rms(c)
DAV:   1    -0.129406492740E+03   -0.71394E-04   -0.32525E-03   355   0.300E-01    0.136E-02
DAV:   2    -0.129406499681E+03   -0.69407E-05   -0.10136E-04   251   0.473E-02    0.856E-03
DAV:   3    -0.129406499327E+03    0.35444E-06   -0.69839E-06   247   0.125E-02    0.529E-03
DAV:   4    -0.129406499016E+03    0.31101E-06   -0.35377E-06   202   0.926E-03    0.130E-03
DAV:   5    -0.129406499030E+03   -0.14390E-07   -0.94066E-07   189   0.462E-03    0.724E-04
DAV:   6    -0.129406499145E+03   -0.11521E-06   -0.28929E-07   202   0.226E-03
  98 F= -.12940650E+03 E0= -.12940650E+03  d E =-.777417E-04
damped:  g(F)=  0.000E+00 g(S)=  0.000E+00 dE (1.order)= 0.000E+00
 bond charge predicted
       N       E                     dE             d eps       ncg     rms          rms(c)
DAV:   1    -0.129406528594E+03   -0.29564E-04   -0.35309E-03   357   0.311E-01    0.131E-02
DAV:   2    -0.129406535540E+03   -0.69463E-05   -0.97678E-05   260   0.460E-02    0.838E-03
DAV:   3    -0.129406535422E+03    0.11868E-06   -0.68664E-06   164   0.121E-02    0.514E-03
DAV:   4    -0.129406535500E+03   -0.78402E-07   -0.33446E-06   203   0.889E-03    0.123E-03
DAV:   5    -0.129406535610E+03   -0.11002E-06   -0.95487E-07   164   0.447E-03    0.722E-04
DAV:   6    -0.129406535798E+03   -0.18736E-06   -0.31362E-07   192   0.220E-03
  99 F= -.12940654E+03 E0= -.12940654E+03  d E =-.366523E-04
damped:  g(F)=  0.000E+00 g(S)=  0.000E+00 dE (1.order)= 0.000E+00
 bond charge predicted
       N       E                     dE             d eps       ncg     rms          rms(c)
DAV:   1    -0.129406561150E+03   -0.25540E-04   -0.41168E-03   349   0.328E-01    0.122E-02
DAV:   2    -0.129406568085E+03   -0.69349E-05   -0.89625E-05   233   0.432E-02    0.789E-03
DAV:   3    -0.129406568519E+03   -0.43400E-06   -0.60277E-06   164   0.110E-02    0.472E-03
DAV:   4    -0.129406569403E+03   -0.88425E-06   -0.24940E-06   209   0.761E-03    0.936E-04
DAV:   5    -0.129406569641E+03   -0.23792E-06   -0.84096E-07   164   0.383E-03    0.639E-04
DAV:   6    -0.129406569854E+03   -0.21287E-06   -0.28062E-07   211   0.176E-03
 100 F= -.12940657E+03 E0= -.12940657E+03  d E =-.340562E-04
damped:  g(F)=  0.000E+00 g(S)=  0.000E+00 dE (1.order)= 0.000E+00
 bond charge predicted
       N       E                     dE             d eps       ncg     rms          rms(c)
DAV:   1    -0.129406614164E+03   -0.44523E-04   -0.65309E-03   331   0.408E-01    0.159E-02
DAV:   2    -0.129406625588E+03   -0.11424E-04   -0.14612E-04   268   0.544E-02    0.102E-02
DAV:   3    -0.129406626224E+03   -0.63592E-06   -0.97718E-06   256   0.140E-02    0.618E-03
DAV:   4    -0.129406627530E+03   -0.13065E-05   -0.40237E-06   202   0.969E-03    0.124E-03
DAV:   5    -0.129406627750E+03   -0.22009E-06   -0.13071E-06   264   0.484E-03    0.799E-04
DAV:   6    -0.129406627881E+03   -0.13053E-06   -0.41932E-07   204   0.220E-03
 101 F= -.12940663E+03 E0= -.12940663E+03  d E =-.580270E-04
damped:  g(F)=  0.000E+00 g(S)=  0.000E+00 dE (1.order)= 0.000E+00
 bond charge predicted
       N       E                     dE             d eps       ncg     rms          rms(c)
DAV:   1    -0.129406643858E+03   -0.16108E-04   -0.11405E-02   335   0.536E-01    0.228E-02
DAV:   2    -0.129406666578E+03   -0.22720E-04   -0.30235E-04   348   0.754E-02    0.148E-02
DAV:   3    -0.129406665251E+03    0.13273E-05   -0.10491E-05   264   0.166E-02    0.901E-03
DAV:   4    -0.129406665479E+03   -0.22838E-06   -0.64500E-06   200   0.132E-02    0.194E-03
DAV:   5    -0.129406665528E+03   -0.48672E-07   -0.16032E-06   272   0.648E-03    0.103E-03
DAV:   6    -0.129406665660E+03   -0.13154E-06   -0.27804E-07   202   0.253E-03
 102 F= -.12940667E+03 E0= -.12940667E+03  d E =-.377788E-04
damped:  g(F)=  0.000E+00 g(S)=  0.000E+00 dE (1.order)= 0.000E+00
 bond charge predicted
       N       E                     dE             d eps       ncg     rms          rms(c)
DAV:   1    -0.129406630577E+03    0.34951E-04   -0.16266E-02   335   0.631E-01    0.255E-02
DAV:   2    -0.129406660093E+03   -0.29516E-04   -0.38625E-04   292   0.844E-02    0.168E-02
DAV:   3    -0.129406659497E+03    0.59608E-06   -0.14815E-05   222   0.192E-02    0.102E-02
DAV:   4    -0.129406660906E+03   -0.14090E-05   -0.79049E-06   233   0.150E-02    0.184E-03
DAV:   5    -0.129406661226E+03   -0.31954E-06   -0.21720E-06   224   0.685E-03    0.127E-03
DAV:   6    -0.129406661543E+03   -0.31686E-06   -0.50249E-07   216   0.293E-03
 103 F= -.12940666E+03 E0= -.12940666E+03  d E =0.411701E-05
damped:  g(F)=  0.000E+00 g(S)=  0.000E+00 dE (1.order)= 0.000E+00
 bond charge predicted
       N       E                     dE             d eps       ncg     rms          rms(c)
DAV:   1    -0.129406673650E+03   -0.12424E-04   -0.21162E-02   333   0.718E-01    0.273E-02
DAV:   2    -0.129406711864E+03   -0.38214E-04   -0.47539E-04   392   0.910E-02    0.187E-02
DAV:   3    -0.129406710605E+03    0.12596E-05   -0.56371E-06   244   0.140E-02    0.112E-02
DAV:   4    -0.129406714043E+03   -0.34383E-05   -0.79264E-06   209   0.152E-02    0.190E-03
DAV:   5    -0.129406714490E+03   -0.44666E-06   -0.20517E-06   272   0.691E-03    0.121E-03
DAV:   6    -0.129406714762E+03   -0.27240E-06   -0.27574E-07   200   0.225E-03
 104 F= -.12940671E+03 E0= -.12940671E+03  d E =-.532196E-04
damped:  g(F)=  0.000E+00 g(S)=  0.000E+00 dE (1.order)= 0.000E+00
 bond charge predicted
       N       E                     dE             d eps       ncg     rms          rms(c)
DAV:   1    -0.129406748348E+03   -0.33858E-04   -0.31090E-02   336   0.891E-01    0.346E-02
DAV:   2    -0.129406809546E+03   -0.61197E-04   -0.78034E-04   425   0.120E-01    0.244E-02
DAV:   3    -0.129406805130E+03    0.44152E-05   -0.10390E-05   264   0.193E-02    0.150E-02
DAV:   4    -0.129406807823E+03   -0.26928E-05   -0.17257E-05   264   0.214E-02    0.326E-03
DAV:   5    -0.129406807954E+03   -0.13130E-06   -0.37326E-06   272   0.103E-02    0.183E-03
DAV:   6    -0.129406808156E+03   -0.20190E-06   -0.49448E-07   224   0.353E-03
 105 F= -.12940681E+03 E0= -.12940681E+03  d E =-.933942E-04
damped:  g(F)=  0.000E+00 g(S)=  0.000E+00 dE (1.order)= 0.000E+00
 bond charge predicted
       N       E                     dE             d eps       ncg     rms          rms(c)
DAV:   1    -0.129406888709E+03   -0.80755E-04   -0.39267E-02   334   0.102E+00    0.367E-02
DAV:   2    -0.129406960426E+03   -0.71716E-04   -0.90065E-04   395   0.131E-01    0.253E-02
DAV:   3    -0.129406957638E+03    0.27879E-05   -0.10670E-05   247   0.198E-02    0.153E-02
DAV:   4    -0.129406963309E+03   -0.56711E-05   -0.15117E-05   208   0.218E-02    0.266E-03
DAV:   5    -0.129406963980E+03   -0.67113E-06   -0.40229E-06   272   0.991E-03    0.177E-03
DAV:   6    -0.129406964407E+03   -0.42748E-06   -0.57421E-07   200   0.323E-03
 106 F= -.12940696E+03 E0= -.12940696E+03  d E =-.156251E-03
damped:  g(F)=  0.000E+00 g(S)=  0.000E+00 dE (1.order)= 0.000E+00
 reached required accuracy - stopping structural energy minimisation
