unknown system                          
           1
    30.000000    0.000000    0.000000
     0.000000   30.000000    0.000000
     0.000000    0.000000   30.000000
   H    C    N    O 
  12   6   2   2
Direct configuration=     1
   0.37485840  0.53562838  0.50052508
   0.37898554  0.47900100  0.48337219
   0.38020227  0.49213299  0.54111290
   0.44825110  0.44850134  0.52922197
   0.52102141  0.44012293  0.53890181
   0.55583841  0.42435248  0.46661247
   0.51410316  0.45577467  0.43791079
   0.49936584  0.40606505  0.46737125
   0.51374715  0.54665823  0.48657344
   0.59058247  0.57735573  0.53657700
   0.60844250  0.56537367  0.48136183
   0.56451899  0.60477235  0.49042469
   0.39078728  0.50361495  0.50791470
   0.44089508  0.50938834  0.50235874
   0.51369969  0.46253566  0.51084154
   0.52099010  0.43572013  0.46778467
   0.55115583  0.49785294  0.51584246
   0.57904871  0.57322305  0.50195954
   0.46620421  0.47469556  0.51731864
   0.54509976  0.53889278  0.49864170
   0.45585745  0.54339986  0.48398950
   0.58634693  0.48493569  0.53337676
Direct configuration=     2
   0.37485377  0.53563022  0.50055349
   0.37895791  0.47900337  0.48337384
   0.38030476  0.49213703  0.54112361
   0.44821858  0.44854860  0.52927966
   0.52101583  0.44012112  0.53891810
   0.55581000  0.42437664  0.46659186
   0.51409080  0.45580222  0.43791706
   0.49936286  0.40609018  0.46733475
   0.51371412  0.54662875  0.48662847
   0.59055321  0.57731878  0.53656952
   0.60842376  0.56535654  0.48139253
   0.56454378  0.60475506  0.49042395
   0.39081440  0.50360596  0.50789178
   0.44086722  0.50935697  0.50225358
   0.51371352  0.46256930  0.51084456
   0.52098357  0.43573520  0.46775928
   0.55113756  0.49781788  0.51586691
   0.57906118  0.57322939  0.50196591
   0.46620910  0.47465937  0.51732630
   0.54512214  0.53890079  0.49865864
   0.45587126  0.54335238  0.48392110
   0.58637296  0.48500199  0.53339875
Direct configuration=     3
   0.37485038  0.53562730  0.50059646
   0.37891349  0.47900473  0.48337579
   0.38045840  0.49214246  0.54113714
   0.44816656  0.44859709  0.52937361
   0.52100756  0.44012405  0.53892899
   0.55577888  0.42440967  0.46655753
   0.51407151  0.45584929  0.43791824
   0.49935517  0.40612573  0.46728111
   0.51368595  0.54658626  0.48671097
   0.59051567  0.57726947  0.53657314
   0.60841125  0.56532904  0.48143218
   0.56457660  0.60473885  0.49042024
   0.39083726  0.50359955  0.50785824
   0.44085950  0.50927597  0.50212964
   0.51371980  0.46257395  0.51085776
   0.52097223  0.43576667  0.46773487
   0.55113819  0.49782350  0.51589775
   0.57906774  0.57322569  0.50197853
   0.46620368  0.47466656  0.51731321
   0.54511700  0.53888530  0.49867874
   0.45589381  0.54329130  0.48380394
   0.58640169  0.48508533  0.53343557
Direct configuration=     4
   0.37485077  0.53562057  0.50065277
   0.37884847  0.47900346  0.48337809
   0.38066021  0.49214823  0.54115225
   0.44810895  0.44865682  0.52949800
   0.52099609  0.44012833  0.53893360
   0.55575250  0.42445025  0.46650714
   0.51404518  0.45592045  0.43791107
   0.49934139  0.40617112  0.46720996
   0.51365981  0.54653430  0.48681214
   0.59047297  0.57721208  0.53659852
   0.60841389  0.56528900  0.48147840
   0.56461403  0.60472803  0.49041263
   0.39085250  0.50359221  0.50781729
   0.44088159  0.50918330  0.50198650
   0.51371560  0.46254650  0.51087559
   0.52095290  0.43581680  0.46771799
   0.55116439  0.49787145  0.51593798
   0.57905569  0.57320120  0.50199735
   0.46618388  0.47469192  0.51728946
   0.54508530  0.53885469  0.49869834
   0.45591815  0.54320051  0.48363714
   0.58642806  0.48517652  0.53349137
Direct configuration=     5
   0.37485577  0.53561506  0.50072032
   0.37875872  0.47899838  0.48338119
   0.38090505  0.49215241  0.54116981
   0.44806172  0.44874702  0.52964392
   0.52098141  0.44012400  0.53893954
   0.55573228  0.42449951  0.46643936
   0.51401241  0.45601817  0.43789845
   0.49932143  0.40622727  0.46712049
   0.51361718  0.54647802  0.48691752
   0.59042443  0.57714900  0.53664899
   0.60843145  0.56523443  0.48153394
   0.56465426  0.60472052  0.49040243
   0.39087001  0.50357704  0.50777178
   0.44091216  0.50912298  0.50182088
   0.51370556  0.46251483  0.51088741
   0.52092635  0.43588180  0.46770459
   0.55119894  0.49792067  0.51599358
   0.57902130  0.57315483  0.50202107
   0.46615960  0.47467991  0.51727699
   0.54505279  0.53883736  0.49871616
   0.45594497  0.54307267  0.48341338
   0.58645453  0.48527184  0.53357178
Direct configuration=     6
   0.37486470  0.53561401  0.50079699
   0.37864336  0.47898933  0.48338634
   0.38118442  0.49215218  0.54119227
   0.44802403  0.44886184  0.52981270
   0.52096463  0.44010240  0.53895153
   0.55571332  0.42456015  0.46635425
   0.51397491  0.45614082  0.43788843
   0.49929612  0.40629588  0.46701340
   0.51354553  0.54642266  0.48701331
   0.59036602  0.57708150  0.53671708
   0.60845417  0.56516542  0.48160641
   0.56469731  0.60470880  0.49039306
   0.39090325  0.50355469  0.50772225
   0.44092240  0.50907820  0.50165157
   0.51369643  0.46250455  0.51089253
   0.52089964  0.43595461  0.46768020
   0.55121536  0.49793359  0.51606523
   0.57898138  0.57310402  0.50205103
   0.46614903  0.47463225  0.51727524
   0.54503540  0.53884289  0.49873426
   0.45598756  0.54292950  0.48311578
   0.58648339  0.48536841  0.53367969
Direct configuration=     7
   0.37488023  0.53561548  0.50089174
   0.37848855  0.47897706  0.48339825
   0.38152486  0.49214383  0.54122383
   0.44798175  0.44898801  0.53003947
   0.52094393  0.44005742  0.53896395
   0.55568747  0.42464386  0.46623951
   0.51392995  0.45630355  0.43788887
   0.49926275  0.40638906  0.46687619
   0.51344141  0.54636604  0.48710007
   0.59028488  0.57700363  0.53680008
   0.60847297  0.56507357  0.48171615
   0.56474909  0.60468340  0.49038749
   0.39095785  0.50353066  0.50766509
   0.44092226  0.50900980  0.50147305
   0.51369456  0.46251134  0.51090562
   0.52088030  0.43603990  0.46762362
   0.55120523  0.49791644  0.51615620
   0.57896208  0.57306737  0.50209788
   0.46615795  0.47460922  0.51726045
   0.54501490  0.53884129  0.49876094
   0.45605440  0.54275571  0.48269599
   0.58650501  0.48547105  0.53382906
Direct configuration=     8
   0.37490838  0.53561358  0.50100785
   0.37829585  0.47896902  0.48342757
   0.38192568  0.49212378  0.54126199
   0.44794780  0.44912672  0.53033639
   0.52091536  0.43999052  0.53895992
   0.55565564  0.42475537  0.46608819
   0.51387759  0.45651630  0.43790332
   0.49922142  0.40651467  0.46670628
   0.51332988  0.54630797  0.48717402
   0.59017728  0.57691988  0.53689462
   0.60848360  0.56495540  0.48187427
   0.56481045  0.60464203  0.49038868
   0.39102326  0.50351029  0.50760813
   0.44096993  0.50893711  0.50124497
   0.51370798  0.46250138  0.51093900
   0.52086925  0.43614130  0.46753260
   0.55118751  0.49791448  0.51626348
   0.57897826  0.57305096  0.50217354
   0.46616271  0.47465283  0.51722999
   0.54495235  0.53878920  0.49880409
   0.45611732  0.54249390  0.48215611
   0.58648494  0.48557093  0.53401840
Direct configuration=     9
   0.37495498  0.53560754  0.50114837
   0.37807548  0.47897993  0.48349110
   0.38238215  0.49208874  0.54130168
   0.44797435  0.44934757  0.53068642
   0.52087400  0.43989490  0.53893426
   0.55563239  0.42489431  0.46589030
   0.51381692  0.45679732  0.43792665
   0.49917291  0.40667940  0.46650018
   0.51323854  0.54624309  0.48722963
   0.59005066  0.57684113  0.53701794
   0.60849815  0.56480175  0.48207955
   0.56488042  0.60459190  0.49039792
   0.39109580  0.50349002  0.50756150
   0.44104373  0.50885612  0.50092736
   0.51373012  0.46245884  0.51096834
   0.52085461  0.43627182  0.46743712
   0.55116097  0.49792933  0.51639143
   0.57896852  0.57300282  0.50228007
   0.46615545  0.47467776  0.51724446
   0.54486029  0.53873977  0.49886559
   0.45617473  0.54214795  0.48146233
   0.58640735  0.48565555  0.53425113
Direct configuration=    10
   0.37501866  0.53560628  0.50131435
   0.37784316  0.47901945  0.48359736
   0.38287773  0.49203500  0.54134529
   0.44804592  0.44963934  0.53111019
   0.52082428  0.43975463  0.53889707
   0.55562431  0.42505908  0.46564116
   0.51374880  0.45715533  0.43796070
   0.49911755  0.40688171  0.46625910
   0.51317332  0.54617171  0.48725067
   0.58991585  0.57677853  0.53718701
   0.60851718  0.56460372  0.48232690
   0.56496029  0.60453320  0.49041998
   0.39119392  0.50347271  0.50752681
   0.44105908  0.50866368  0.50054420
   0.51372332  0.46240648  0.51096304
   0.52083136  0.43644513  0.46735759
   0.55106726  0.49791553  0.51653476
   0.57886762  0.57288723  0.50240103
   0.46622989  0.47470633  0.51729553
   0.54479904  0.53876730  0.49896188
   0.45625980  0.54177895  0.48056367
   0.58630425  0.48571621  0.53453494
Direct configuration=    11
   0.37510820  0.53562066  0.50150854
   0.37760374  0.47908094  0.48373778
   0.38339105  0.49196189  0.54139999
   0.44814311  0.44995356  0.53165056
   0.52076828  0.43958006  0.53882473
   0.55560407  0.42526264  0.46534815
   0.51367832  0.45758330  0.43802589
   0.49905859  0.40712283  0.46598533
   0.51314663  0.54610692  0.48721177
   0.58976060  0.57673515  0.53736654
   0.60849584  0.56436248  0.48263756
   0.56504895  0.60445116  0.49046169
   0.39131335  0.50345756  0.50751421
   0.44119729  0.50857248  0.49996528
   0.51371032  0.46235889  0.51096739
   0.52081508  0.43665039  0.46723159
   0.55098069  0.49790359  0.51670645
   0.57880357  0.57279671  0.50256225
   0.46634381  0.47483560  0.51733538
   0.54467608  0.53870662  0.49913351
   0.45625148  0.54112336  0.47958794
   0.58610362  0.48577066  0.53483054
Direct configuration=    12
   0.37522461  0.53564964  0.50173211
   0.37736705  0.47914960  0.48388643
   0.38391240  0.49187837  0.54146555
   0.44832488  0.45041294  0.53223348
   0.52070765  0.43939242  0.53870752
   0.55556435  0.42550335  0.46502571
   0.51360439  0.45807451  0.43810240
   0.49900071  0.40739771  0.46568598
   0.51317597  0.54604140  0.48710923
   0.58959713  0.57671719  0.53754890
   0.60843146  0.56407543  0.48298209
   0.56513290  0.60435408  0.49051660
   0.39148484  0.50346378  0.50749992
   0.44109335  0.50796532  0.49965733
   0.51372669  0.46233359  0.51098281
   0.52080261  0.43686917  0.46706958
   0.55077328  0.49780948  0.51687660
   0.57876939  0.57271919  0.50277487
   0.46640060  0.47493095  0.51742538
   0.54449964  0.53868645  0.49935428
   0.45643416  0.54078488  0.47817275
   0.58597473  0.48578792  0.53518342
Direct configuration=    13
   0.37524143  0.53565343  0.50173789
   0.37736481  0.47915171  0.48388792
   0.38390971  0.49187949  0.54146430
   0.44832568  0.45040627  0.53226838
   0.52070550  0.43938742  0.53869985
   0.55556493  0.42551109  0.46502041
   0.51360327  0.45808969  0.43809859
   0.49900054  0.40740274  0.46567672
   0.51315366  0.54604304  0.48707982
   0.58959762  0.57672389  0.53756537
   0.60843391  0.56406444  0.48298682
   0.56513130  0.60435212  0.49051878
   0.39146574  0.50345000  0.50751234
   0.44121462  0.50824037  0.49948248
   0.51372417  0.46232861  0.51097465
   0.52079241  0.43687981  0.46706636
   0.55081526  0.49782190  0.51689829
   0.57875273  0.57270957  0.50278023
   0.46641452  0.47490853  0.51743283
   0.54452836  0.53867716  0.49938284
   0.45632312  0.54052608  0.47828272
   0.58593948  0.48578998  0.53517535
Direct configuration=    14
   0.37527433  0.53566577  0.50175784
   0.37735342  0.47915945  0.48389375
   0.38391492  0.49188516  0.54146970
   0.44832467  0.45040761  0.53235572
   0.52070218  0.43936600  0.53867333
   0.55556381  0.42553629  0.46499483
   0.51360097  0.45813562  0.43808367
   0.49899984  0.40742052  0.46563998
   0.51314939  0.54603049  0.48701201
   0.58958358  0.57674032  0.53761236
   0.60844446  0.56404052  0.48301994
   0.56512787  0.60434327  0.49052656
   0.39144730  0.50344081  0.50752809
   0.44132708  0.50848091  0.49931358
   0.51371445  0.46231412  0.51095774
   0.52077888  0.43690840  0.46704807
   0.55085854  0.49783200  0.51693776
   0.57872859  0.57269315  0.50280510
   0.46643780  0.47490581  0.51742945
   0.54454887  0.53867197  0.49942355
   0.45622155  0.54023222  0.47830730
   0.58590029  0.48578696  0.53520258
Direct configuration=    15
   0.37527547  0.53566723  0.50176028
   0.37735254  0.47916027  0.48389403
   0.38391655  0.49188566  0.54147131
   0.44832568  0.45041332  0.53236180
   0.52070242  0.43936334  0.53867031
   0.55556290  0.42553920  0.46499156
   0.51360067  0.45814029  0.43808209
   0.49899964  0.40742275  0.46563584
   0.51315842  0.54602711  0.48700818
   0.58958137  0.57674194  0.53761566
   0.60844429  0.56403853  0.48302460
   0.56512755  0.60434195  0.49052753
   0.39145122  0.50344430  0.50752665
   0.44129659  0.50841080  0.49935551
   0.51371367  0.46231347  0.51095723
   0.52077982  0.43691068  0.46704529
   0.55085032  0.49782875  0.51693753
   0.57873025  0.57269376  0.50280886
   0.46643659  0.47491264  0.51742715
   0.54454066  0.53867531  0.49942305
   0.45624905  0.54028122  0.47825750
   0.58590711  0.48578482  0.53521096
Direct configuration=    16
   0.37527819  0.53567029  0.50176511
   0.37735073  0.47916197  0.48389464
   0.38391957  0.49188665  0.54147441
   0.44832814  0.45042470  0.53237430
   0.52070272  0.43935800  0.53866425
   0.55556115  0.42554509  0.46498508
   0.51360008  0.45814971  0.43807899
   0.49899927  0.40742727  0.46562750
   0.51317477  0.54602062  0.48699981
   0.58957697  0.57674520  0.53762239
   0.60844399  0.56403444  0.48303392
   0.56512693  0.60433933  0.49052948
   0.39145832  0.50345047  0.50752443
   0.44124447  0.50828982  0.49942675
   0.51371245  0.46231242  0.51095597
   0.52078128  0.43691537  0.46703965
   0.55083568  0.49782284  0.51693770
   0.57873317  0.57269475  0.50281633
   0.46643396  0.47492402  0.51742366
   0.54452615  0.53868103  0.49942317
   0.45629599  0.54036237  0.47816860
   0.58591884  0.48578098  0.53522677
Direct configuration=    17
   0.37528388  0.53567559  0.50177280
   0.37734750  0.47916497  0.48389594
   0.38392380  0.49188827  0.54147902
   0.44833339  0.45044272  0.53239570
   0.52070271  0.43934926  0.53865435
   0.55555851  0.42555485  0.46497465
   0.51359913  0.45816530  0.43807411
   0.49899881  0.40743477  0.46561365
   0.51319595  0.54601085  0.48698400
   0.58956980  0.57675053  0.53763375
   0.60844362  0.56402751  0.48304921
   0.56512600  0.60433508  0.49053273
   0.39146725  0.50345787  0.50752286
   0.44118607  0.50815172  0.49950398
   0.51371142  0.46231133  0.51095329
   0.52078246  0.43692349  0.46703015
   0.55081769  0.49781540  0.51693985
   0.57873661  0.57269572  0.50282837
   0.46642943  0.47493505  0.51742173
   0.54450859  0.53868707  0.49942677
   0.45634829  0.54044403  0.47805618
   0.58593187  0.48577597  0.53524981
Direct configuration=    18
   0.37528458  0.53567603  0.50177330
   0.37734720  0.47916525  0.48389612
   0.38392394  0.49188839  0.54147925
   0.44833399  0.45044377  0.53239751
   0.52070259  0.43934862  0.53865364
   0.55555839  0.42555558  0.46497393
   0.51359907  0.45816646  0.43807380
   0.49899881  0.40743534  0.46561259
   0.51319614  0.54601035  0.48698236
   0.58956926  0.57675090  0.53763467
   0.60844366  0.56402697  0.48305035
   0.56512597  0.60433479  0.49053298
   0.39146720  0.50345774  0.50752326
   0.44118804  0.50815563  0.49950043
   0.51371155  0.46231136  0.51095296
   0.52078226  0.43692415  0.46702939
   0.55081790  0.49781541  0.51694049
   0.57873652  0.57269562  0.50282917
   0.46642918  0.47493407  0.51742245
   0.54450884  0.53868669  0.49942781
   0.45634648  0.54043827  0.47805565
   0.58593125  0.48577594  0.53525079
Direct configuration=    19
   0.37528597  0.53567691  0.50177431
   0.37734659  0.47916582  0.48389648
   0.38392424  0.49188864  0.54147971
   0.44833515  0.45044585  0.53240115
   0.52070235  0.43934733  0.53865223
   0.55555813  0.42555704  0.46497248
   0.51359895  0.45816878  0.43807317
   0.49899881  0.40743648  0.46561047
   0.51319655  0.54600934  0.48697908
   0.58956819  0.57675165  0.53763651
   0.60844372  0.56402590  0.48305263
   0.56512589  0.60433419  0.49053347
   0.39146709  0.50345750  0.50752405
   0.44119185  0.50816318  0.49949350
   0.51371178  0.46231141  0.51095231
   0.52078186  0.43692547  0.46702787
   0.55081829  0.49781541  0.51694176
   0.57873633  0.57269543  0.50283079
   0.46642870  0.47493217  0.51742387
   0.54450933  0.53868596  0.49942990
   0.45634297  0.54042697  0.47805442
   0.58593003  0.48577588  0.53525276
Direct configuration=    20
   0.37528806  0.53567822  0.50177582
   0.37734568  0.47916668  0.48389702
   0.38392468  0.49188902  0.54148041
   0.44833686  0.45044895  0.53240664
   0.52070199  0.43934541  0.53865009
   0.55555775  0.42555924  0.46497029
   0.51359876  0.45817227  0.43807222
   0.49899880  0.40743820  0.46560729
   0.51319725  0.54600782  0.48697418
   0.58956659  0.57675277  0.53763926
   0.60844382  0.56402428  0.48305605
   0.56512577  0.60433330  0.49053421
   0.39146696  0.50345716  0.50752520
   0.44119723  0.50817375  0.49948357
   0.51371211  0.46231147  0.51095136
   0.52078127  0.43692745  0.46702559
   0.55081884  0.49781537  0.51694366
   0.57873608  0.57269516  0.50283324
   0.46642803  0.47492948  0.51742592
   0.54450998  0.53868491  0.49943299
   0.45633802  0.54041062  0.47805215
   0.58592825  0.48577577  0.53525574
Direct configuration=    21
   0.37529084  0.53567997  0.50177787
   0.37734448  0.47916784  0.48389773
   0.38392529  0.49188952  0.54148134
   0.44833906  0.45045306  0.53241406
   0.52070154  0.43934283  0.53864722
   0.55555723  0.42556220  0.46496736
   0.51359851  0.45817695  0.43807095
   0.49899878  0.40744051  0.46560304
   0.51319835  0.54600576  0.48696767
   0.58956447  0.57675429  0.53764294
   0.60844392  0.56402210  0.48306061
   0.56512562  0.60433210  0.49053519
   0.39146685  0.50345680  0.50752669
   0.44120378  0.50818642  0.49947123
   0.51371249  0.46231149  0.51095011
   0.52078051  0.43693011  0.46702256
   0.55081948  0.49781524  0.51694619
   0.57873575  0.57269481  0.50283652
   0.46642723  0.47492623  0.51742849
   0.54451069  0.53868362  0.49943709
   0.45633197  0.54038988  0.47804830
   0.58592596  0.48577561  0.53525974
Direct configuration=    22
   0.37529430  0.53568215  0.50178046
   0.37734301  0.47916931  0.48389863
   0.38392608  0.49189013  0.54148255
   0.44834169  0.45045815  0.53242354
   0.52070100  0.43933959  0.53864358
   0.55555657  0.42556593  0.46496365
   0.51359818  0.45818285  0.43806933
   0.49899875  0.40744344  0.46559768
   0.51319999  0.54600311  0.48695954
   0.58956182  0.57675622  0.53764755
   0.60844401  0.56401933  0.48306634
   0.56512541  0.60433059  0.49053644
   0.39146682  0.50345646  0.50752846
   0.44121097  0.50819984  0.49945728
   0.51371286  0.46231145  0.51094860
   0.52077960  0.43693347  0.46701877
   0.55082015  0.49781495  0.51694937
   0.57873536  0.57269439  0.50284067
   0.46642637  0.47492271  0.51743142
   0.54451132  0.53868219  0.49944217
   0.45632533  0.54036570  0.47804206
   0.58592322  0.48577538  0.53526480
Direct configuration=    23
   0.37529844  0.53568477  0.50178362
   0.37734127  0.47917110  0.48389969
   0.38392706  0.49189086  0.54148403
   0.44834466  0.45046419  0.53243519
   0.52070040  0.43933566  0.53863915
   0.55555575  0.42557047  0.46495915
   0.51359777  0.45819003  0.43806736
   0.49899869  0.40744701  0.46559120
   0.51320236  0.54599983  0.48694982
   0.58955867  0.57675859  0.53765312
   0.60844406  0.56401594  0.48307326
   0.56512516  0.60432876  0.49053797
   0.39146695  0.50345626  0.50753046
   0.44121807  0.50821234  0.49944274
   0.51371317  0.46231129  0.51094685
   0.52077855  0.43693754  0.46701423
   0.55082074  0.49781439  0.51695321
   0.57873490  0.57269388  0.50284571
   0.46642555  0.47491932  0.51743453
   0.54451170  0.53868074  0.49944819
   0.45631874  0.54033929  0.47803246
   0.58592012  0.48577506  0.53527096
Direct configuration=    24
   0.37530376  0.53568813  0.50178778
   0.37733909  0.47917347  0.48390106
   0.38392837  0.49189178  0.54148599
   0.44834823  0.45047188  0.53245060
   0.52069969  0.43933057  0.53863334
   0.55555467  0.42557639  0.46495327
   0.51359720  0.45819939  0.43806476
   0.49899859  0.40745169  0.46558279
   0.51320602  0.54599545  0.48693736
   0.58955465  0.57676171  0.53766032
   0.60844403  0.56401150  0.48308222
   0.56512482  0.60432637  0.49053996
   0.39146737  0.50345630  0.50753284
   0.44122489  0.50822295  0.49942741
   0.51371334  0.46231094  0.51094469
   0.52077729  0.43694288  0.46700838
   0.55082117  0.49781336  0.51695816
   0.57873432  0.57269324  0.50285228
   0.46642486  0.47491617  0.51743793
   0.54451163  0.53867929  0.49945585
   0.45631237  0.54030929  0.47801689
   0.58591643  0.48577458  0.53527901
Direct configuration=    25
   0.37531037  0.53569233  0.50179307
   0.37733643  0.47917649  0.48390275
   0.38393008  0.49189291  0.54148850
   0.44835232  0.45048138  0.53247040
   0.52069890  0.43932414  0.53862596
   0.55555328  0.42558388  0.46494582
   0.51359645  0.45821125  0.43806146
   0.49899843  0.40745764  0.46557220
   0.51321141  0.54598978  0.48692188
   0.58954969  0.57676571  0.53766934
   0.60844387  0.56400582  0.48309346
   0.56512439  0.60432337  0.49054249
   0.39146823  0.50345674  0.50753556
   0.44123030  0.50822881  0.49941283
   0.51371327  0.46231028  0.51094211
   0.52077582  0.43694964  0.46700110
   0.55082123  0.49781169  0.51696434
   0.57873361  0.57269244  0.50286059
   0.46642447  0.47491387  0.51744139
   0.54451079  0.53867804  0.49946530
   0.45630724  0.54027722  0.47799313
   0.58591225  0.48577389  0.53528921
Direct configuration=    26
   0.37531839  0.53569744  0.50179963
   0.37733330  0.47918028  0.48390479
   0.38393223  0.49189424  0.54149163
   0.44835690  0.45049283  0.53249518
   0.52069805  0.43931625  0.53861684
   0.55555155  0.42559312  0.46493662
   0.51359547  0.45822586  0.43805736
   0.49899818  0.40746503  0.46555921
   0.51321896  0.54598264  0.48690318
   0.58954376  0.57677071  0.53768035
   0.60844349  0.56399874  0.48310718
   0.56512385  0.60431968  0.49054563
   0.39146966  0.50345774  0.50753855
   0.44123306  0.50822693  0.49940063
   0.51371282  0.46230924  0.51093913
   0.52077415  0.43695800  0.46699229
   0.55082068  0.49780922  0.51697183
   0.57873272  0.57269146  0.50287080
   0.46642461  0.47491301  0.51744467
   0.54450885  0.53867721  0.49947667
   0.45630444  0.54024476  0.47795894
   0.58590771  0.48577292  0.53530177
Direct configuration=    27
   0.37532797  0.53570356  0.50180762
   0.37732968  0.47918496  0.48390722
   0.38393486  0.49189578  0.54149543
   0.44836197  0.45050651  0.53252572
   0.52069715  0.43930670  0.53860576
   0.55554945  0.42560435  0.46492547
   0.51359421  0.45824360  0.43805237
   0.49899782  0.40747408  0.46554356
   0.51322912  0.54597379  0.48688094
   0.58953684  0.57677687  0.53769353
   0.60844277  0.56399006  0.48312364
   0.56512321  0.60431523  0.49054945
   0.39147180  0.50345944  0.50754179
   0.44123214  0.50821467  0.49939207
   0.51371187  0.46230771  0.51093571
   0.52077225  0.43696817  0.46698184
   0.55081925  0.49780583  0.51698070
   0.57873158  0.57269027  0.50288314
   0.46642551  0.47491406  0.51744768
   0.54450552  0.53867698  0.49949027
   0.45630492  0.54021307  0.47791201
   0.58590294  0.48577160  0.53531694
Direct configuration=    28
   0.37533944  0.53571087  0.50181727
   0.37732555  0.47919075  0.48391010
   0.38393800  0.49189752  0.54150000
   0.44836773  0.45052295  0.53256312
   0.52069623  0.43929522  0.53859241
   0.55554690  0.42561793  0.46491205
   0.51359260  0.45826500  0.43804637
   0.49899732  0.40748511  0.46552480
   0.51324235  0.54596292  0.48685460
   0.58952888  0.57678442  0.53770920
   0.60844155  0.56397944  0.48314322
   0.56512244  0.60430993  0.49055410
   0.39147476  0.50346193  0.50754537
   0.44122697  0.50819048  0.49938748
   0.51371032  0.46230560  0.51093175
   0.52077001  0.43698049  0.46696951
   0.55081664  0.49780151  0.51699109
   0.57873005  0.57268877  0.50289797
   0.46642737  0.47491719  0.51745056
   0.54450058  0.53867749  0.49950665
   0.45630913  0.54018199  0.47785017
   0.58589800  0.48576980  0.53533504
Direct configuration=    29
   0.37535333  0.53571966  0.50182893
   0.37732084  0.47919800  0.48391354
   0.38394168  0.49189945  0.54150542
   0.44837467  0.45054312  0.53260911
   0.52069525  0.43928132  0.53857635
   0.55554383  0.42563443  0.46489589
   0.51359051  0.45829093  0.43803919
   0.49899660  0.40749864  0.46550226
   0.51325907  0.54594959  0.48682321
   0.58951983  0.57679375  0.53772783
   0.60843956  0.56396633  0.48316653
   0.56512156  0.60430360  0.49055979
   0.39147853  0.50346516  0.50754953
   0.44121815  0.50815530  0.49938509
   0.51370815  0.46230287  0.51092706
   0.52076724  0.43699550  0.46695497
   0.55081259  0.49779637  0.51700320
   0.57872789  0.57268684  0.50291581
   0.46643034  0.47492190  0.51745402
   0.54449399  0.53867871  0.49952693
   0.45631644  0.54014850  0.47777178
   0.58589277  0.48576734  0.53535642
Direct configuration=    30
   0.37537047  0.53573037  0.50184303
   0.37731541  0.47920720  0.48391770
   0.38394582  0.49190154  0.54151175
   0.44838376  0.45056857  0.53266589
   0.52069413  0.43926440  0.53855700
   0.55554014  0.42565463  0.46487638
   0.51358776  0.45832249  0.43803064
   0.49899560  0.40751539  0.46547504
   0.51327937  0.54593328  0.48678544
   0.58950969  0.57680534  0.53774999
   0.60843636  0.56395001  0.48319433
   0.56512056  0.60429607  0.49056682
   0.39148292  0.50346878  0.50755483
   0.44120877  0.50811529  0.49937927
   0.51370550  0.46229962  0.51092129
   0.52076360  0.43701381  0.46693755
   0.55080712  0.49779082  0.51701739
   0.57872470  0.57268430  0.50293732
   0.46643433  0.47492645  0.51745962
   0.54448610  0.53868029  0.49955284
   0.45632401  0.54010459  0.47767740
   0.58588675  0.48576406  0.53538131
Direct configuration=    31
   0.37539144  0.53574321  0.50185967
   0.37730920  0.47921870  0.48392261
   0.38395022  0.49190368  0.54151890
   0.44839604  0.45060044  0.53273469
   0.52069281  0.43924415  0.53853424
   0.55553576  0.42567894  0.46485335
   0.51358420  0.45836015  0.43802078
   0.49899420  0.40753576  0.46544278
   0.51330253  0.54591384  0.48674058
   0.58949871  0.57681949  0.53777574
   0.60843153  0.56393003  0.48322676
   0.56511947  0.60428731  0.49057533
   0.39148747  0.50347216  0.50756184
   0.44120394  0.50808152  0.49936167
   0.51370280  0.46229611  0.51091421
   0.52075878  0.43703575  0.46691706
   0.55080083  0.49778543  0.51703388
   0.57872015  0.57268106  0.50296279
   0.46643888  0.47492827  0.51746936
   0.54447768  0.53868168  0.49958592
   0.45632721  0.54003971  0.47757159
   0.58587901  0.48575991  0.53540905
Direct configuration=    32
   0.37541659  0.53575826  0.50187883
   0.37730219  0.47923275  0.48392821
   0.38395464  0.49190566  0.54152675
   0.44841224  0.45063946  0.53281660
   0.52069132  0.43922049  0.53850807
   0.55553062  0.42570760  0.46482682
   0.51357966  0.45840408  0.43800982
   0.49899228  0.40756000  0.46540545
   0.51332796  0.54589126  0.48668856
   0.58948745  0.57683642  0.53780479
   0.60842449  0.56390600  0.48326357
   0.56511833  0.60427740  0.49058546
   0.39149190  0.50347485  0.50757094
   0.44120755  0.50806182  0.49932634
   0.51370030  0.46229238  0.51090559
   0.52075270  0.43706165  0.46689338
   0.55079460  0.49778030  0.51705301
   0.57871400  0.57267708  0.50299232
   0.46644365  0.47492591  0.51748469
   0.54446898  0.53868270  0.49962738
   0.45632278  0.53994629  0.47745781
   0.58586865  0.48575489  0.53543844
Direct configuration=    33
   0.37544656  0.53577569  0.50190072
   0.37729435  0.47924989  0.48393429
   0.38395892  0.49190708  0.54153525
   0.44843277  0.45068658  0.53291485
   0.52068994  0.43919308  0.53847818
   0.55552449  0.42574135  0.46479653
   0.51357378  0.45845498  0.43799785
   0.49898949  0.40758885  0.46536266
   0.51335627  0.54586509  0.48662923
   0.58947686  0.57685670  0.53783682
   0.60841405  0.56387701  0.48330458
   0.56511711  0.60426637  0.49059746
   0.39149657  0.50347703  0.50758212
   0.44121953  0.50805386  0.49927295
   0.51369794  0.46228810  0.51089556
   0.52074548  0.43709231  0.46686628
   0.55078900  0.49777464  0.51707555
   0.57870615  0.57267252  0.50302623
   0.46644878  0.47492067  0.51750605
   0.54445877  0.53868418  0.49967898
   0.45631105  0.53982242  0.47733268
   0.58585505  0.48574887  0.53546795
Direct configuration=    34
   0.37548188  0.53579563  0.50192572
   0.37728565  0.47927092  0.48394025
   0.38396303  0.49190720  0.54154447
   0.44845722  0.45074262  0.53303527
   0.52068943  0.43916150  0.53844398
   0.55551698  0.42578130  0.46476199
   0.51356588  0.45851394  0.43798501
   0.49898524  0.40762350  0.46531399
   0.51338991  0.54583448  0.48656326
   0.58946881  0.57688136  0.53787104
   0.60839808  0.56384156  0.48334906
   0.56511579  0.60425443  0.49061173
   0.39150330  0.50348023  0.50759436
   0.44123082  0.50803324  0.49921482
   0.51369504  0.46228263  0.51088525
   0.52073753  0.43712876  0.46683562
   0.55078274  0.49776584  0.51710241
   0.57869669  0.57266802  0.50306496
   0.46645568  0.47491922  0.51753171
   0.54444307  0.53868868  0.49974263
   0.45630058  0.53968107  0.47717963
   0.58583953  0.48574114  0.53549561
Direct configuration=    35
   0.37552157  0.53581746  0.50195327
   0.37727612  0.47929563  0.48394536
   0.38396720  0.49190543  0.54155410
   0.44848431  0.45080649  0.53317803
   0.52069045  0.43912632  0.53840631
   0.55550820  0.42582684  0.46472395
   0.51355578  0.45857986  0.43797166
   0.49897937  0.40766371  0.46526077
   0.51342946  0.54579999  0.48649367
   0.58946504  0.57691027  0.53790589