  22  22   0   0
  0.1227273E+04  0.3000000E-08  0.3000000E-08  0.3000000E-08  0.0000000E+00
  1.000000000000000E-004
  CAR 
 unknown system                          
      2.19790250    -28.29389681  301     -4.50949929      1.00000000
    -28.294  0.0000E+00  0.0000E+00
    -28.192  0.0000E+00  0.0000E+00
    -28.091  0.0000E+00  0.0000E+00
    -27.989  0.0000E+00  0.0000E+00
    -27.887  0.0000E+00  0.0000E+00
    -27.786  0.0000E+00  0.0000E+00
    -27.684  0.0000E+00  0.0000E+00
    -27.582  0.0000E+00  0.0000E+00
    -27.481  0.0000E+00  0.0000E+00
    -27.379  0.5462E-15  0.5551E-16
    -27.278  0.1149E-12  0.1174E-13
    -27.176  0.1456E-10  0.1492E-11
    -27.074  0.1111E-08  0.1144E-09
    -26.973  0.5115E-07  0.5314E-08
    -26.871  0.1422E-05  0.1499E-06
    -26.769  0.2393E-04  0.2582E-05
    -26.668  0.2441E-03  0.2739E-04
    -26.566  0.1512E-02  0.1811E-03
    -26.464  0.5695E-02  0.7599E-03
    -26.363  0.1306E-01  0.2088E-02
    -26.261  0.1827E-01  0.3944E-02
    -26.159  0.1557E-01  0.5527E-02
    -26.058  0.8096E-02  0.6350E-02
    -25.956  0.2605E-02  0.6615E-02
    -25.855  0.8841E-03  0.6705E-02
    -25.753  0.2211E-02  0.6929E-02
    -25.651  0.7229E-02  0.7664E-02
    -25.550  0.1477E-01  0.9165E-02
    -25.448  0.1840E-01  0.1103E-01
    -25.346  0.1397E-01  0.1245E-01
    -25.245  0.6470E-02  0.1311E-01
    -25.143  0.1825E-02  0.1330E-01
    -25.041  0.3130E-03  0.1333E-01
    -24.940  0.3261E-04  0.1333E-01
    -24.838  0.2060E-05  0.1333E-01
    -24.737  0.7876E-07  0.1333E-01
    -24.635  0.1819E-08  0.1333E-01
    -24.533  0.2556E-10  0.1333E-01
    -24.432  0.2422E-10  0.1333E-01
    -24.330  0.1733E-08  0.1333E-01
    -24.228  0.7547E-07  0.1333E-01
    -24.127  0.1986E-05  0.1333E-01
    -24.025  0.3163E-04  0.1334E-01
    -23.923  0.3054E-03  0.1337E-01
    -23.822  0.1791E-02  0.1355E-01
    -23.720  0.6390E-02  0.1420E-01
    -23.618  0.1388E-01  0.1561E-01
    -23.517  0.1839E-01  0.1748E-01
    -23.415  0.1485E-01  0.1899E-01
    -23.314  0.7310E-02  0.1973E-01
    -23.212  0.2192E-02  0.1995E-01
    -23.110  0.4028E-03  0.2000E-01
    -23.009  0.8901E-04  0.2000E-01
    -22.907  0.4056E-03  0.2005E-01
    -22.805  0.2203E-02  0.2027E-01
    -22.704  0.7335E-02  0.2102E-01
    -22.602  0.1487E-01  0.2253E-01
    -22.500  0.1839E-01  0.2440E-01
    -22.399  0.1386E-01  0.2580E-01
    -22.297  0.6367E-02  0.2645E-01
    -22.196  0.1782E-02  0.2663E-01
    -22.094  0.3032E-03  0.2666E-01
    -21.992  0.3134E-04  0.2667E-01
    -21.891  0.1964E-05  0.2667E-01
    -21.789  0.7452E-07  0.2667E-01
    -21.687  0.1708E-08  0.2667E-01
    -21.586  0.2361E-10  0.2667E-01
    -21.484  0.1967E-12  0.2667E-01
    -21.382  0.9904E-15  0.2667E-01
    -21.281  0.0000E+00  0.2667E-01
    -21.179  0.0000E+00  0.2667E-01
    -21.078  0.0000E+00  0.2667E-01
    -20.976  0.0000E+00  0.2667E-01
    -20.874  0.0000E+00  0.2667E-01
    -20.773  0.4369E-15  0.2667E-01
    -20.671  0.9343E-13  0.2667E-01
    -20.569  0.1208E-10  0.2667E-01
    -20.468  0.9413E-09  0.2667E-01
    -20.366  0.4422E-07  0.2667E-01
    -20.264  0.1255E-05  0.2667E-01
    -20.163  0.2155E-04  0.2667E-01
    -20.061  0.2243E-03  0.2669E-01
    -19.959  0.1418E-02  0.2684E-01
    -19.858  0.5449E-02  0.2739E-01
    -19.756  0.1275E-01  0.2869E-01
    -19.655  0.1819E-01  0.3054E-01
    -19.553  0.1583E-01  0.3214E-01
    -19.451  0.8391E-02  0.3300E-01
    -19.350  0.2711E-02  0.3327E-01
    -19.248  0.5329E-03  0.3333E-01
    -19.146  0.6365E-04  0.3333E-01
    -19.045  0.4612E-05  0.3333E-01
    -18.943  0.2200E-06  0.3333E-01
    -18.841  0.5726E-06  0.3333E-01
    -18.740  0.1105E-04  0.3333E-01
    -18.638  0.1304E-03  0.3335E-01
    -18.537  0.9345E-03  0.3344E-01
    -18.435  0.4070E-02  0.3386E-01
    -18.333  0.1079E-01  0.3495E-01
    -18.232  0.1743E-01  0.3672E-01
    -18.130  0.1717E-01  0.3847E-01
    -18.028  0.1031E-01  0.3952E-01
    -17.927  0.3787E-02  0.3990E-01
    -17.825  0.9906E-03  0.4000E-01
    -17.723  0.1154E-02  0.4012E-01
    -17.622  0.4401E-02  0.4057E-01
    -17.520  0.1129E-01  0.4172E-01
    -17.418  0.1767E-01  0.4351E-01
    -17.317  0.1687E-01  0.4523E-01
    -17.215  0.9823E-02  0.4623E-01
    -17.114  0.3484E-02  0.4658E-01
    -17.012  0.7522E-03  0.4666E-01
    -16.910  0.9871E-04  0.4667E-01
    -16.809  0.7860E-05  0.4667E-01
    -16.707  0.3792E-06  0.4667E-01
    -16.605  0.1507E-07  0.4667E-01
    -16.504  0.1572E-06  0.4667E-01
    -16.402  0.3715E-05  0.4667E-01
    -16.300  0.5323E-04  0.4667E-01
    -16.199  0.4626E-03  0.4672E-01
    -16.097  0.2442E-02  0.4697E-01
    -15.996  0.7846E-02  0.4777E-01
    -15.894  0.1535E-01  0.4933E-01
    -15.792  0.1832E-01  0.5119E-01
    -15.691  0.1332E-01  0.5254E-01
    -15.589  0.5909E-02  0.5314E-01
    -15.487  0.1621E-02  0.5331E-01
    -15.386  0.5267E-03  0.5336E-01
    -15.284  0.1634E-02  0.5353E-01
    -15.182  0.5942E-02  0.5413E-01
    -15.081  0.1336E-01  0.5549E-01
    -14.979  0.1832E-01  0.5735E-01
    -14.878  0.1532E-01  0.5891E-01
    -14.776  0.7808E-02  0.5970E-01
    -14.674  0.2424E-02  0.5995E-01
    -14.573  0.4580E-03  0.5999E-01
    -14.471  0.5510E-04  0.6000E-01
    -14.369  0.4251E-04  0.6000E-01
    -14.268  0.3602E-03  0.6004E-01
    -14.166  0.2027E-02  0.6025E-01
    -14.064  0.6941E-02  0.6095E-01
    -13.963  0.1448E-01  0.6242E-01
    -13.861  0.1841E-01  0.6429E-01
    -13.759  0.1427E-01  0.6575E-01
    -13.658  0.6745E-02  0.6643E-01
    -13.556  0.1941E-02  0.6663E-01
    -13.455  0.3414E-03  0.6666E-01
    -13.353  0.6144E-04  0.6667E-01
    -13.251  0.2576E-03  0.6670E-01
    -13.150  0.1566E-02  0.6685E-01
    -13.048  0.5867E-02  0.6745E-01
    -12.946  0.1359E-01  0.6883E-01
    -12.845  0.2035E-01  0.7090E-01
    -12.743  0.2243E-01  0.7318E-01
    -12.641  0.2247E-01  0.7547E-01
    -12.540  0.2090E-01  0.7759E-01
    -12.438  0.1476E-01  0.7909E-01
    -12.337  0.7327E-02  0.7983E-01
    -12.235  0.4816E-02  0.8032E-01
    -12.133  0.9084E-02  0.8125E-01
    -12.032  0.1615E-01  0.8289E-01
    -11.930  0.1809E-01  0.8473E-01
    -11.828  0.1240E-01  0.8599E-01
    -11.727  0.5312E-02  0.8653E-01
    -11.625  0.2337E-02  0.8676E-01
    -11.523  0.4664E-02  0.8724E-01
    -11.422  0.1226E-01  0.8848E-01
    -11.320  0.2217E-01  0.9074E-01
    -11.218  0.2850E-01  0.9363E-01
    -11.117  0.2776E-01  0.9646E-01
    -11.015  0.2048E-01  0.9854E-01
    -10.914  0.1170E-01  0.9973E-01
    -10.812  0.8715E-02  0.1006E+00
    -10.710  0.1328E-01  0.1020E+00
    -10.609  0.1863E-01  0.1039E+00
    -10.507  0.1845E-01  0.1057E+00
    -10.405  0.1771E-01  0.1075E+00
    -10.304  0.2478E-01  0.1101E+00
    -10.202  0.3623E-01  0.1137E+00
    -10.100  0.4175E-01  0.1180E+00
     -9.999  0.3882E-01  0.1219E+00
     -9.897  0.3248E-01  0.1252E+00
     -9.796  0.2756E-01  0.1280E+00
     -9.694  0.2389E-01  0.1305E+00
     -9.592  0.1838E-01  0.1323E+00
     -9.491  0.1454E-01  0.1338E+00
     -9.389  0.1978E-01  0.1358E+00
     -9.287  0.3225E-01  0.1391E+00
     -9.186  0.4140E-01  0.1433E+00
     -9.084  0.4187E-01  0.1476E+00
     -8.982  0.3743E-01  0.1514E+00
     -8.881  0.3244E-01  0.1547E+00
     -8.779  0.2685E-01  0.1574E+00
     -8.678  0.2054E-01  0.1595E+00
     -8.576  0.1785E-01  0.1613E+00
     -8.474  0.1935E-01  0.1632E+00
     -8.373  0.1778E-01  0.1651E+00
     -8.271  0.1077E-01  0.1661E+00
     -8.169  0.4031E-02  0.1666E+00
     -8.068  0.9213E-03  0.1667E+00
     -7.966  0.1281E-03  0.1667E+00
     -7.864  0.1080E-04  0.1667E+00
     -7.763  0.5522E-06  0.1667E+00
     -7.661  0.1707E-07  0.1667E+00
     -7.559  0.3415E-09  0.1667E+00
     -7.458  0.1658E-08  0.1667E+00
     -7.356  0.7247E-07  0.1667E+00
     -7.255  0.1918E-05  0.1667E+00
     -7.153  0.3073E-04  0.1667E+00
     -7.051  0.2984E-03  0.1667E+00
     -6.950  0.1761E-02  0.1669E+00
     -6.848  0.6325E-02  0.1675E+00
     -6.746  0.1392E-01  0.1689E+00
     -6.645  0.1924E-01  0.1709E+00
     -6.543  0.1875E-01  0.1728E+00
     -6.441  0.1779E-01  0.1746E+00
     -6.340  0.1945E-01  0.1766E+00
     -6.238  0.1782E-01  0.1784E+00
     -6.137  0.1099E-01  0.1795E+00
     -6.035  0.5530E-02  0.1801E+00
     -5.933  0.6644E-02  0.1807E+00
     -5.832  0.1357E-01  0.1821E+00
     -5.730  0.2045E-01  0.1842E+00
     -5.628  0.2285E-01  0.1865E+00
     -5.527  0.2292E-01  0.1889E+00
     -5.425  0.2096E-01  0.1910E+00
     -5.323  0.1442E-01  0.1925E+00
     -5.222  0.6488E-02  0.1931E+00
     -5.120  0.1812E-02  0.1933E+00
     -5.018  0.3093E-03  0.1933E+00
     -4.917  0.3212E-04  0.1933E+00
     -4.815  0.2022E-05  0.1933E+00
     -4.714  0.7708E-07  0.1933E+00
     -4.612  0.1775E-08  0.1933E+00
     -4.510  0.2466E-10  0.1933E+00
     -4.409  0.2064E-12  0.1933E+00
     -4.307  0.1041E-14  0.1933E+00
     -4.205  0.0000E+00  0.1933E+00
     -4.104  0.0000E+00  0.1933E+00
     -4.002  0.0000E+00  0.1933E+00
     -3.900  0.0000E+00  0.1933E+00
     -3.799  0.0000E+00  0.1933E+00
     -3.697  0.0000E+00  0.1933E+00
     -3.596  0.0000E+00  0.1933E+00
     -3.494  0.0000E+00  0.1933E+00
     -3.392  0.0000E+00  0.1933E+00
     -3.291  0.0000E+00  0.1933E+00
     -3.189  0.0000E+00  0.1933E+00
     -3.087  0.0000E+00  0.1933E+00
     -2.986  0.0000E+00  0.1933E+00
     -2.884  0.0000E+00  0.1933E+00
     -2.782  0.0000E+00  0.1933E+00
     -2.681  0.0000E+00  0.1933E+00
     -2.579  0.0000E+00  0.1933E+00
     -2.478  0.0000E+00  0.1933E+00
     -2.376  0.0000E+00  0.1933E+00
     -2.274  0.3277E-16  0.1933E+00
     -2.173  0.8759E-14  0.1933E+00
     -2.071  0.1432E-11  0.1933E+00
     -1.969  0.1412E-09  0.1933E+00
     -1.868  0.8419E-08  0.1933E+00
     -1.766  0.3046E-06  0.1933E+00
     -1.664  0.6716E-05  0.1933E+00
     -1.563  0.9072E-04  0.1933E+00
     -1.461  0.7562E-03  0.1934E+00
     -1.359  0.3923E-02  0.1938E+00
     -1.258  0.1279E-01  0.1951E+00
     -1.156  0.2643E-01  0.1978E+00
     -1.055  0.3489E-01  0.2014E+00
     -0.953  0.2953E-01  0.2044E+00
     -0.851  0.1619E-01  0.2060E+00
     -0.750  0.6968E-02  0.2067E+00
     -0.648  0.6871E-02  0.2074E+00
     -0.546  0.1375E-01  0.2088E+00
     -0.445  0.2184E-01  0.2110E+00
     -0.343  0.2894E-01  0.2140E+00
     -0.241  0.4129E-01  0.2182E+00
     -0.140  0.6205E-01  0.2245E+00
     -0.038  0.8661E-01  0.2333E+00
      0.063  0.1097E+00  0.2444E+00
      0.165  0.1174E+00  0.2563E+00
      0.267  0.9365E-01  0.2659E+00
      0.368  0.5086E-01  0.2710E+00
      0.470  0.1795E-01  0.2729E+00
      0.572  0.4023E-02  0.2733E+00
      0.673  0.5657E-03  0.2733E+00
      0.775  0.4946E-04  0.2733E+00
      0.877  0.2670E-05  0.2733E+00
      0.978  0.8856E-07  0.2733E+00
      1.080  0.1795E-08  0.2733E+00
      1.182  0.2216E-10  0.2733E+00
      1.283  0.1660E-12  0.2733E+00
      1.385  0.7519E-15  0.2733E+00
      1.486  0.0000E+00  0.2733E+00
      1.588  0.0000E+00  0.2733E+00
      1.690  0.0000E+00  0.2733E+00
      1.791  0.0000E+00  0.2733E+00
      1.893  0.0000E+00  0.2733E+00
      1.995  0.0000E+00  0.2733E+00
      2.096  0.0000E+00  0.2733E+00
      2.198  0.0000E+00  0.2733E+00
