   22   22  300    1
  0.1227273E+04  0.3000000E-08  0.3000000E-08  0.3000000E-08  0.0000000E+00
  1.000000000000000E-004
  CAR 
 unknown system                          
     58      4     41
 
  0.2500000E+00  0.2500000E+00  0.2500000E+00  0.2500000E+00
    1      -26.293896   1.000000
    2      -25.504479   1.000000
    3      -23.560772   1.000000
    4      -22.558539   1.000000
    5      -19.683213   1.000000
    6      -18.234696   1.000000
    7      -17.427985   1.000000
    8      -15.857644   1.000000
    9      -15.015932   1.000000
   10      -13.913402   1.000000
   11      -12.879679   1.000000
   12      -12.592931   1.000000
   13      -12.007816   1.000000
   14      -11.327846   1.000000
   15      -11.129635   1.000000
   16      -10.634203   1.000000
   17      -10.256360   1.000000
   18      -10.149686   1.000000
   19       -9.977122   1.000000
   20       -9.725262   1.000000
   21       -9.307609   1.000000
   22       -9.200739   1.000000
   23       -9.033425   1.000000
   24       -8.825958   1.000000
   25       -8.471981   1.000000
   26       -6.687478   1.000000
   27       -6.337789   1.000000
   28       -5.762550   1.000000
   29       -5.482150   1.000000
   30       -1.138744   0.000000
   31       -1.046920   0.000000
   32       -0.476185   0.000000
   33       -0.209856   0.000000
   34       -0.129152   0.000000
   35       -0.063438   0.000000
   36        0.033343   0.000000
   37        0.106539   0.000000
   38        0.133263   0.000000
   39        0.138963   0.000000
   40        0.177044   0.000000
   41        0.194566   0.000000
 
 -0.2500000E+00  0.2500000E+00  0.2500000E+00  0.2500000E+00
    1      -26.293897   1.000000
    2      -25.504481   1.000000
    3      -23.560770   1.000000
    4      -22.558538   1.000000
    5      -19.683215   1.000000
    6      -18.234698   1.000000
    7      -17.427987   1.000000
    8      -15.857648   1.000000
    9      -15.015932   1.000000
   10      -13.913412   1.000000
   11      -12.879674   1.000000
   12      -12.592928   1.000000
   13      -12.007821   1.000000
   14      -11.327858   1.000000
   15      -11.129624   1.000000
   16      -10.634202   1.000000
   17      -10.256365   1.000000
   18      -10.149683   1.000000
   19       -9.977115   1.000000
   20       -9.725256   1.000000
   21       -9.307598   1.000000
   22       -9.200760   1.000000
   23       -9.033427   1.000000
   24       -8.825974   1.000000
   25       -8.471975   1.000000
   26       -6.687473   1.000000
   27       -6.337791   1.000000
   28       -5.762543   1.000000
   29       -5.482150   1.000000
   30       -1.138741   0.000000
   31       -1.046916   0.000000
   32       -0.476190   0.000000
   33       -0.209857   0.000000
   34       -0.129296   0.000000
   35       -0.063173   0.000000
   36        0.035756   0.000000
   37        0.098361   0.000000
   38        0.125757   0.000000
   39        0.144129   0.000000
   40        0.186484   0.000000
   41        0.197216   0.000000
 
  0.2500000E+00 -0.2500000E+00  0.2500000E+00  0.2500000E+00
    1      -26.293895   1.000000
    2      -25.504482   1.000000
    3      -23.560769   1.000000
    4      -22.558539   1.000000
    5      -19.683213   1.000000
    6      -18.234700   1.000000
    7      -17.427988   1.000000
    8      -15.857646   1.000000
    9      -15.015933   1.000000
   10      -13.913401   1.000000
   11      -12.879678   1.000000
   12      -12.592932   1.000000
   13      -12.007816   1.000000
   14      -11.327842   1.000000
   15      -11.129635   1.000000
   16      -10.634198   1.000000
   17      -10.256365   1.000000
   18      -10.149689   1.000000
   19       -9.977120   1.000000
   20       -9.725264   1.000000
   21       -9.307589   1.000000
   22       -9.200755   1.000000
   23       -9.033420   1.000000
   24       -8.825956   1.000000
   25       -8.471977   1.000000
   26       -6.687468   1.000000
   27       -6.337794   1.000000
   28       -5.762543   1.000000
   29       -5.482156   1.000000
   30       -1.138745   0.000000
   31       -1.046914   0.000000
   32       -0.476188   0.000000
   33       -0.209835   0.000000
   34       -0.129199   0.000000
   35       -0.063778   0.000000
   36        0.036744   0.000000
   37        0.100061   0.000000
   38        0.125631   0.000000
   39        0.142727   0.000000
   40        0.184497   0.000000
   41        0.197903   0.000000
 
 -0.2500000E+00 -0.2500000E+00  0.2500000E+00  0.2500000E+00
    1      -26.293895   1.000000
    2      -25.504481   1.000000
    3      -23.560771   1.000000
    4      -22.558539   1.000000
    5      -19.683214   1.000000
    6      -18.234698   1.000000
    7      -17.427987   1.000000
    8      -15.857645   1.000000
    9      -15.015931   1.000000
   10      -13.913405   1.000000
   11      -12.879672   1.000000
   12      -12.592934   1.000000
   13      -12.007825   1.000000
   14      -11.327844   1.000000
   15      -11.129638   1.000000
   16      -10.634195   1.000000
   17      -10.256360   1.000000
   18      -10.149679   1.000000
   19       -9.977113   1.000000
   20       -9.725260   1.000000
   21       -9.307597   1.000000
   22       -9.200757   1.000000
   23       -9.033417   1.000000
   24       -8.825971   1.000000
   25       -8.471976   1.000000
   26       -6.687468   1.000000
   27       -6.337800   1.000000
   28       -5.762548   1.000000
   29       -5.482169   1.000000
   30       -1.138738   0.000000
   31       -1.046915   0.000000
   32       -0.476190   0.000000
   33       -0.209838   0.000000
   34       -0.129282   0.000000
   35       -0.063373   0.000000
   36        0.033773   0.000000
   37        0.109030   0.000000
   38        0.132296   0.000000
   39        0.134231   0.000000
   40        0.177131   0.000000
   41        0.194567   0.000000
