 vasp.5.4.1 24Jun15 (build Jan 13 2020 12:58:22) complex                        
  
 executed on           IFC91_ompi date 2020.02.03  09:56:59
 running on   15 total cores
 each image running on    1 cores
 distrk:  each k-point on    1 cores,    1 groups
 distr:  one band on NCORES_PER_BAND=   1 cores,    1 groups


--------------------------------------------------------------------------------------------------------


 INCAR:
 POTCAR:    PAW_PBE H 15Jun2001                   
 POTCAR:    PAW_PBE C 08Apr2002                   
 POTCAR:    PAW_PBE N 08Apr2002                   
 POTCAR:    PAW_PBE O 08Apr2002                   
 POTCAR:    PAW_PBE H 15Jun2001                   
   VRHFIN =H: ultrasoft test                                                    
   LEXCH  = PE                                                                  
   EATOM  =    12.4884 eV,    0.9179 Ry                                         
                                                                                
   TITEL  = PAW_PBE H 15Jun2001                                                 
   LULTRA =        F    use ultrasoft PP ?                                      
   IUNSCR =        0    unscreen: 0-lin 1-nonlin 2-no                           
   RPACOR =    0.000    partial core radius                                     
   POMASS =    1.000; ZVAL   =    1.000    mass and valenz                      
   RCORE  =    1.100    outmost cutoff radius                                   
   RWIGS  =    0.700; RWIGS  =    0.370    wigner-seitz radius (au A)           
   ENMAX  =  250.000; ENMIN  =  200.000 eV                                      
   RCLOC  =    0.701    cutoff for local pot                                    
   LCOR   =        T    correct aug charges                                     
   LPAW   =        T    paw PP                                                  
   EAUG   =  400.000                                                            
   RMAX   =    1.123    core radius for proj-oper                               
   RAUG   =    1.200    factor for augmentation sphere                          
   RDEP   =    1.112    radius for radial grids                                 
   RDEPT  =    0.926    core radius for aug-charge                              
                                                                                
   Atomic configuration                                                         
    2 entries                                                                   
     n  l   j            E        occ.                                          
     1  0  0.50        -6.4927   1.0000                                         
     2  1  0.50        -3.4015   0.0000                                         
   Description                                                                  
     l       E           TYP  RCUT    TYP  RCUT                                 
     0     -6.4927494     23  1.100                                             
     0      6.8029130     23  1.100                                             
     1     -4.0817478     23  1.100                                             
  local pseudopotential read in
  atomic valenz-charges read in
  non local Contribution for L=           0  read in
    real space projection operators read in
  non local Contribution for L=           0  read in
    real space projection operators read in
  non local Contribution for L=           1  read in
    real space projection operators read in
    PAW grid and wavefunctions read in
 
   number of l-projection  operators is LMAX  =           3
   number of lm-projection operators is LMMAX =           5
 
 POTCAR:    PAW_PBE C 08Apr2002                   
   VRHFIN =C: s2p2                                                              
   LEXCH  = PE                                                                  
   EATOM  =   147.1560 eV,   10.8157 Ry                                         
                                                                                
   TITEL  = PAW_PBE C 08Apr2002                                                 
   LULTRA =        F    use ultrasoft PP ?                                      
   IUNSCR =        1    unscreen: 0-lin 1-nonlin 2-no                           
   RPACOR =    1.200    partial core radius                                     
   POMASS =   12.011; ZVAL   =    4.000    mass and valenz                      
   RCORE  =    1.500    outmost cutoff radius                                   
   RWIGS  =    1.630; RWIGS  =    0.863    wigner-seitz radius (au A)           
   ENMAX  =  400.000; ENMIN  =  300.000 eV                                      
   ICORE  =        2    local potential                                         
   LCOR   =        T    correct aug charges                                     
   LPAW   =        T    paw PP                                                  
   EAUG   =  644.873                                                            
   DEXC   =    0.000                                                            
   RMAX   =    1.529    core radius for proj-oper                               
   RAUG   =    1.300    factor for augmentation sphere                          
   RDEP   =    1.501    radius for radial grids                                 
   RDEPT  =    1.300    core radius for aug-charge                              
                                                                                
   Atomic configuration                                                         
    4 entries                                                                   
     n  l   j            E        occ.                                          
     1  0  0.50      -273.3789   2.0000                                         
     2  0  0.50       -13.7508   2.0000                                         
     2  1  0.50        -5.2854   2.0000                                         
     3  2  1.50        -5.4423   0.0000                                         
   Description                                                                  
     l       E           TYP  RCUT    TYP  RCUT                                 
     0    -13.7508458     23  1.200                                             
     0     -8.2022199     23  1.200                                             
     1     -5.2854383     23  1.500                                             
     1     34.0145650     23  1.500                                             
     2     -5.4423304      7  1.500                                             
  local pseudopotential read in
  partial core-charges read in
  partial kinetic energy density read in
  atomic valenz-charges read in
  non local Contribution for L=           0  read in
    real space projection operators read in
  non local Contribution for L=           0  read in
    real space projection operators read in
  non local Contribution for L=           1  read in
    real space projection operators read in
  non local Contribution for L=           1  read in
    real space projection operators read in
    PAW grid and wavefunctions read in
 
   number of l-projection  operators is LMAX  =           4
   number of lm-projection operators is LMMAX =           8
 
 POTCAR:    PAW_PBE N 08Apr2002                   
   VRHFIN =N: s2p3                                                              
   LEXCH  = PE                                                                  
   EATOM  =   264.5486 eV,   19.4438 Ry                                         
                                                                                
   TITEL  = PAW_PBE N 08Apr2002                                                 
   LULTRA =        F    use ultrasoft PP ?                                      
   IUNSCR =        1    unscreen: 0-lin 1-nonlin 2-no                           
   RPACOR =    1.200    partial core radius                                     
   POMASS =   14.001; ZVAL   =    5.000    mass and valenz                      
   RCORE  =    1.500    outmost cutoff radius                                   
   RWIGS  =    1.400; RWIGS  =    0.741    wigner-seitz radius (au A)           
   ENMAX  =  400.000; ENMIN  =  300.000 eV                                      
   ICORE  =        2    local potential                                         
   LCOR   =        T    correct aug charges                                     
   LPAW   =        T    paw PP                                                  
   EAUG   =  627.112                                                            
   DEXC   =    0.000                                                            
   RMAX   =    1.529    core radius for proj-oper                               
   RAUG   =    1.300    factor for augmentation sphere                          
   RDEP   =    1.514    radius for radial grids                                 
   RDEPT  =    1.338    core radius for aug-charge                              
                                                                                
   Atomic configuration                                                         
    4 entries                                                                   
     n  l   j            E        occ.                                          
     1  0  0.50      -384.7179   2.0000                                         
     2  0  0.50       -18.5828   2.0000                                         
     2  1  0.50        -7.0898   3.0000                                         
     3  2  1.50        -6.8029   0.0000                                         
   Description                                                                  
     l       E           TYP  RCUT    TYP  RCUT                                 
     0    -18.5828119     23  1.200                                             
     0    -13.5018863     23  1.200                                             
     1     -7.0897853     23  1.500                                             
     1      9.5240782     23  1.500                                             
     2     -6.8029130      7  1.500                                             
  local pseudopotential read in
  partial core-charges read in
  partial kinetic energy density read in
  atomic valenz-charges read in
  non local Contribution for L=           0  read in
    real space projection operators read in
  non local Contribution for L=           0  read in
    real space projection operators read in
  non local Contribution for L=           1  read in
    real space projection operators read in
  non local Contribution for L=           1  read in
    real space projection operators read in
    PAW grid and wavefunctions read in
 
   number of l-projection  operators is LMAX  =           4
   number of lm-projection operators is LMMAX =           8
 
 POTCAR:    PAW_PBE O 08Apr2002                   
   VRHFIN =O: s2p4                                                              
   LEXCH  = PE                                                                  
   EATOM  =   432.3788 eV,   31.7789 Ry                                         
                                                                                
   TITEL  = PAW_PBE O 08Apr2002                                                 
   LULTRA =        F    use ultrasoft PP ?                                      
   IUNSCR =        1    unscreen: 0-lin 1-nonlin 2-no                           
   RPACOR =    1.200    partial core radius                                     
   POMASS =   16.000; ZVAL   =    6.000    mass and valenz                      
   RCORE  =    1.520    outmost cutoff radius                                   
   RWIGS  =    1.550; RWIGS  =    0.820    wigner-seitz radius (au A)           
   ENMAX  =  400.000; ENMIN  =  300.000 eV                                      
   ICORE  =        2    local potential                                         
   LCOR   =        T    correct aug charges                                     
   LPAW   =        T    paw PP                                                  
   EAUG   =  605.392                                                            
   DEXC   =    0.000                                                            
   RMAX   =    1.553    core radius for proj-oper                               
   RAUG   =    1.300    factor for augmentation sphere                          
   RDEP   =    1.550    radius for radial grids                                 
   RDEPT  =    1.329    core radius for aug-charge                              
                                                                                
   Atomic configuration                                                         
    4 entries                                                                   
     n  l   j            E        occ.                                          
     1  0  0.50      -514.6923   2.0000                                         
     2  0  0.50       -23.9615   2.0000                                         
     2  1  0.50        -9.0305   4.0000                                         
     3  2  1.50        -9.5241   0.0000                                         
   Description                                                                  
     l       E           TYP  RCUT    TYP  RCUT                                 
     0    -23.9615318     23  1.200                                             
     0     -9.5240782     23  1.200                                             
     1     -9.0304911     23  1.520                                             
     1      8.1634956     23  1.520                                             
     2     -9.5240782      7  1.500                                             
  local pseudopotential read in
  partial core-charges read in
  partial kinetic energy density read in
  kinetic energy density of atom read in
  atomic valenz-charges read in
  non local Contribution for L=           0  read in
    real space projection operators read in
  non local Contribution for L=           0  read in
    real space projection operators read in
  non local Contribution for L=           1  read in
    real space projection operators read in
  non local Contribution for L=           1  read in
    real space projection operators read in
    PAW grid and wavefunctions read in
 
   number of l-projection  operators is LMAX  =           4
   number of lm-projection operators is LMMAX =           8
 
 Optimization of the real space projectors (new method)

 maximal supplied QI-value         = 34.20
 optimisation between [QCUT,QGAM] = [  9.92, 20.18] = [ 27.55,114.04] Ry 
 Optimized for a Real-space Cutoff    1.26 Angstroem

   l    n(q)    QCUT    max X(q) W(low)/X(q) W(high)/X(q)  e(spline) 
   0      8     9.919    19.460    0.50E-03    0.23E-03    0.29E-06
   0      8     9.919    12.209    0.48E-03    0.23E-03    0.28E-06
   1      7     9.919     4.655    0.17E-03    0.75E-03    0.30E-06
 Optimization of the real space projectors (new method)

 maximal supplied QI-value         = 25.13
 optimisation between [QCUT,QGAM] = [ 10.05, 20.36] = [ 28.30,116.06] Ry 
 Optimized for a Real-space Cutoff    1.30 Angstroem

   l    n(q)    QCUT    max X(q) W(low)/X(q) W(high)/X(q)  e(spline) 
   0      8    10.053   115.676    0.49E-03    0.72E-03    0.18E-06
   0      8    10.053    87.132    0.49E-03    0.71E-03    0.18E-06
   1      7    10.053     4.429    0.32E-03    0.31E-03    0.18E-06
   1      7    10.053     2.733    0.23E-03    0.19E-03    0.20E-06
 Optimization of the real space projectors (new method)

 maximal supplied QI-value         = 25.13
 optimisation between [QCUT,QGAM] = [ 10.05, 20.36] = [ 28.30,116.06] Ry 
 Optimized for a Real-space Cutoff    1.65 Angstroem

   l    n(q)    QCUT    max X(q) W(low)/X(q) W(high)/X(q)  e(spline) 
   0     10    10.053    79.467    0.76E-04    0.72E-04    0.56E-06
   0     10    10.053    66.151    0.76E-04    0.72E-04    0.55E-06
   1     10    10.053     8.350    0.25E-03    0.92E-03    0.41E-05
   1     10    10.053     5.531    0.27E-03    0.10E-02    0.45E-05
 Optimization of the real space projectors (new method)

 maximal supplied QI-value         = 24.76
 optimisation between [QCUT,QGAM] = [ 10.15, 20.30] = [ 28.85,115.39] Ry 
 Optimized for a Real-space Cutoff    1.38 Angstroem

   l    n(q)    QCUT    max X(q) W(low)/X(q) W(high)/X(q)  e(spline) 
   0      8    10.150    20.381    0.22E-03    0.32E-03    0.29E-06
   0      8    10.150    15.268    0.23E-03    0.35E-03    0.30E-06
   1      8    10.150     5.964    0.46E-03    0.53E-03    0.21E-06
   1      8    10.150     5.382    0.38E-03    0.45E-03    0.19E-06
  PAW_PBE H 15Jun2001                   :
 energy of atom  1       EATOM=  -12.4884
 kinetic energy error for atom=    0.0098 (will be added to EATOM!!)
  PAW_PBE C 08Apr2002                   :
 energy of atom  2       EATOM= -147.1560
 kinetic energy error for atom=    0.0288 (will be added to EATOM!!)
  PAW_PBE N 08Apr2002                   :
 energy of atom  3       EATOM= -264.5486
 kinetic energy error for atom=    0.0736 (will be added to EATOM!!)
  PAW_PBE O 08Apr2002                   :
 energy of atom  4       EATOM= -432.3788
 kinetic energy error for atom=    0.1156 (will be added to EATOM!!)
 
 
 POSCAR: H12 C6 N2 O2                            
  positions in direct lattice
  velocities in cartesian coordinates
 exchange correlation table for  LEXCH =        8
   RHO(1)=    0.500       N(1)  =     2000
   RHO(2)=  100.500       N(2)  =     4000

 VTST: version 3.2, (02/03/18)

 CHAIN: initializing optimizer
 
 OPT: Using FIRE optimizer
 OPT: FIRE, Init
 OPT: FIRE, MAXMOVE       0.20000
 OPT: FIRE, TIMESTEP      0.10000
 OPT: FIRE, FTIMEMAX      1.00000
 OPT: FIRE, FTIMEINC      1.10000
 OPT: FIRE, FTIMEDEC      0.50000
 OPT: FIRE, FALPHADEC     0.99000
 OPT: FIRE, FALPHA        0.10000
 OPT: FIRE, FNMIN         5
 
 CHAIN: Read ICHAIN            0
 CHAIN: Running the NEB
 NEB:          SPRING     -5.000000
 NEB:          LCLIMB      T
 NEB:     LTANGENTOLD      F
 NEB:           LDNEB      F
 NEB:        LDNEBORG      F
 NEB:        LNEBCELL      F
 NEB:          EFIRST      0.000000
 NEB:           ELAST      0.000000
 
 POSCAR: H12 C6 N2 O2                            
  positions in direct lattice
  No initial velocities read in
 
 POSCAR: H12 C6 N2 O2                            
  positions in direct lattice
  No initial velocities read in
 


--------------------------------------------------------------------------------------------------------


 ion  position               nearest neighbor table
   1  0.375  0.537  0.499-  13 1.09
   2  0.380  0.482  0.478-  13 1.10
   3  0.379  0.491  0.536-  13 1.10
   4  0.449  0.447  0.514-  19 1.02
   5  0.524  0.456  0.544-  15 1.11
   6  0.558  0.413  0.485-  16 1.09
   7  0.516  0.428  0.446-  16 1.10
   8  0.501  0.395  0.493-  16 1.10
   9  0.512  0.552  0.514-  20 1.03
  10  0.609  0.572  0.519-  18 1.10
  11  0.584  0.580  0.466-  18 1.10
  12  0.562  0.609  0.513-  18 1.09
  13  0.391  0.505  0.504-   1 1.09   3 1.10   2 1.10  14 1.52
  14  0.441  0.513  0.504-  21 1.24  19 1.37  13 1.52
  15  0.515  0.465  0.509-   5 1.11  19 1.48  16 1.53  17 1.56
  16  0.523  0.422  0.481-   6 1.09   7 1.10   8 1.10  15 1.53
  17  0.551  0.500  0.496-  22 1.24  20 1.36  15 1.56
  18  0.577  0.577  0.502-  12 1.09  10 1.10  11 1.10  20 1.46
  19  0.467  0.475  0.509-   4 1.02  14 1.37  15 1.48
  20  0.545  0.542  0.512-   9 1.03  17 1.36  18 1.46
  21  0.456  0.551  0.500-  14 1.24
  22  0.584  0.488  0.476-  17 1.24
 
  LATTYP: Found a simple cubic cell.
 ALAT       =    30.0000000000
  
  Lattice vectors:
  
 A1 = (  30.0000000000,   0.0000000000,   0.0000000000)
 A2 = (   0.0000000000,  30.0000000000,   0.0000000000)
 A3 = (   0.0000000000,   0.0000000000,  30.0000000000)


Analysis of symmetry for initial positions (statically):
=====================================================================
 Subroutine PRICEL returns:
 Original cell was already a primitive cell.
 

 Routine SETGRP: Setting up the symmetry group for a 
 simple cubic supercell.


 Subroutine GETGRP returns: Found  1 space group operations
 (whereof  1 operations were pure point group operations)
 out of a pool of 48 trial point group operations.


The static configuration has the point symmetry C_1 .


Analysis of symmetry for dynamics (positions and initial velocities):
=====================================================================
 Subroutine PRICEL returns:
 Original cell was already a primitive cell.
 

 Routine SETGRP: Setting up the symmetry group for a 
 simple cubic supercell.


 Subroutine GETGRP returns: Found  1 space group operations
 (whereof  1 operations were pure point group operations)
 out of a pool of 48 trial point group operations.


The dynamic configuration has the point symmetry C_1 .
 
 
 KPOINTS: Mo2C                                    

Automatic generation of k-mesh.
Space group operators:
 irot       det(A)        alpha          n_x          n_y          n_z        tau_x        tau_y        tau_z
    1     1.000000     0.000000     1.000000     0.000000     0.000000     0.000000     0.000000     0.000000
 
 Subroutine IBZKPT returns following result:
 ===========================================
 
 Found      4 irreducible k-points:
 
 Following reciprocal coordinates:
            Coordinates               Weight
  0.250000  0.250000  0.250000      2.000000
 -0.250000  0.250000  0.250000      2.000000
  0.250000 -0.250000  0.250000      2.000000
 -0.250000 -0.250000  0.250000      2.000000
 
 Following cartesian coordinates:
            Coordinates               Weight
  0.008333  0.008333  0.008333      2.000000
 -0.008333  0.008333  0.008333      2.000000
  0.008333 -0.008333  0.008333      2.000000
 -0.008333 -0.008333  0.008333      2.000000
 


--------------------------------------------------------------------------------------------------------




 Dimension of arrays:
   k-points           NKPTS =      4   k-points in BZ     NKDIM =      4   number of bands    NBANDS=     41
   number of dos      NEDOS =    301   number of ions     NIONS =     22
   non local maximal  LDIM  =      4   non local SUM 2l+1 LMDIM =      8
   total plane-waves  NPLWV = ******
   max r-space proj   IRMAX =   2395   max aug-charges    IRDMAX=   1821
   dimension x,y,z NGX =   150 NGY =  150 NGZ =  150
   dimension x,y,z NGXF=   300 NGYF=  300 NGZF=  300
   support grid    NGXF=   300 NGYF=  300 NGZF=  300
   ions per type =              12   6   2   2
 NGX,Y,Z   is equivalent  to a cutoff of   8.31,  8.31,  8.31 a.u.
 NGXF,Y,Z  is equivalent  to a cutoff of  16.62, 16.62, 16.62 a.u.


 I would recommend the setting:
   dimension x,y,z NGX =   147 NGY =  147 NGZ =  147
 SYSTEM =  unknown system                          
 POSCAR =  H12 C6 N2 O2                            

 Startparameter for this run:
   NWRITE =      2    write-flag & timer
   PREC   = normal    normal or accurate (medium, high low for compatibility)
   ISTART =      0    job   : 0-new  1-cont  2-samecut
   ICHARG =      2    charge: 1-file 2-atom 10-const
   ISPIN  =      1    spin polarized calculation?
   LNONCOLLINEAR =      F non collinear calculations
   LSORBIT =      F    spin-orbit coupling
   INIWAV =      1    electr: 0-lowe 1-rand  2-diag
   LASPH  =      F    aspherical Exc in radial PAW
   METAGGA=      F    non-selfconsistent MetaGGA calc.

 Electronic Relaxation 1
   ENCUT  =  400.0 eV  29.40 Ry    5.42 a.u.  48.92 48.92 48.92*2*pi/ulx,y,z
   ENINI  =  400.0     initial cutoff
   ENAUG  =  644.9 eV  augmentation charge cutoff
   NELM   =    500;   NELMIN=  6; NELMDL= -5     # of ELM steps 
   EDIFF  = 0.1E-03   stopping-criterion for ELM
   LREAL  =      T    real-space projection
   NLSPLINE    = F    spline interpolate recip. space projectors
   LCOMPAT=      F    compatible to vasp.4.4
   GGA_COMPAT  = T    GGA compatible to vasp.4.4-vasp.4.6
   LMAXPAW     = -100 max onsite density
   LMAXMIX     =    2 max onsite mixed and CHGCAR
   VOSKOWN=      0    Vosko Wilk Nusair interpolation
   ROPT   =   -0.00050  -0.00050  -0.00050  -0.00050
 Ionic relaxation
   EDIFFG = -.1E+00   stopping-criterion for IOM
   NSW    =    300    number of steps for IOM
   NBLOCK =      1;   KBLOCK =    300    inner block; outer block 
   IBRION =      3    ionic relax: 0-MD 1-quasi-New 2-CG
   NFREE  =      0    steps in history (QN), initial steepest desc. (CG)
   ISIF   =      2    stress and relaxation
   IWAVPR =     11    prediction:  0-non 1-charg 2-wave 3-comb
   ISYM   =      2    0-nonsym 1-usesym 2-fastsym
   LCORR  =      T    Harris-Foulkes like correction to forces

   POTIM  = 0.0000    time-step for ionic-motion
   TEIN   =    0.0    initial temperature
   TEBEG  =    0.0;   TEEND  =   0.0 temperature during run
   SMASS  =   2.00    Nose mass-parameter (am)
   estimated Nose-frequenzy (Omega)   =  0.24E+10 period in steps =  0.00 mass=   0.137E-25a.u.
   SCALEE = 1.0000    scale energy and forces
   NPACO  =    256;   APACO  = 16.0  distance and # of slots for P.C.
   PSTRESS=    0.0 pullay stress

  Mass of Ions in am
   POMASS =   1.00 12.01 14.00 16.00
  Ionic Valenz
   ZVAL   =   1.00  4.00  5.00  6.00
  Atomic Wigner-Seitz radii
   RWIGS  =  -1.00 -1.00 -1.00 -1.00
  virtual crystal weights 
   VCA    =   1.00  1.00  1.00  1.00
   NELECT =      58.0000    total number of electrons
   NUPDOWN=      -1.0000    fix difference up-down

 DOS related values:
   EMIN   =  10.00;   EMAX   =-10.00  energy-range for DOS
   EFERMI =   0.00
   ISMEAR =     0;   SIGMA  =   0.20  broadening in eV -4-tet -1-fermi 0-gaus

 Electronic relaxation 2 (details)
   IALGO  =     38    algorithm
   LDIAG  =      T    sub-space diagonalisation (order eigenvalues)
   LSUBROT=      F    optimize rotation matrix (better conditioning)
   TURBO    =      0    0=normal 1=particle mesh
   IRESTART =      0    0=no restart 2=restart with 2 vectors
   NREBOOT  =      0    no. of reboots
   NMIN     =      0    reboot dimension
   EREF     =   0.00    reference energy to select bands
   IMIX   =      4    mixing-type and parameters
     AMIX     =   0.40;   BMIX     =  1.00
     AMIX_MAG =   1.60;   BMIX_MAG =  1.00
     AMIN     =   0.10
     WC   =   100.;   INIMIX=   1;  MIXPRE=   1;  MAXMIX= -45

 Intra band minimization:
   WEIMIN = 0.0010     energy-eigenvalue tresh-hold
   EBREAK =  0.61E-06  absolut break condition
   DEPER  =   0.30     relativ break condition  

   TIME   =   0.40     timestep for ELM

  volume/ion in A,a.u.               =    1227.27      8282.05
  Fermi-wavevector in a.u.,A,eV,Ry     =   0.211234  0.399174  0.607087  0.044620
  Thomas-Fermi vector in A             =   0.980021
 
 Write flags
   LWAVE  =      F    write WAVECAR
   LCHARG =      F    write CHGCAR
   LVTOT  =      F    write LOCPOT, total local potential
   LVHAR  =      F    write LOCPOT, Hartree potential only
   LELF   =      F    write electronic localiz. function (ELF)
   LORBIT =      0    0 simple, 1 ext, 2 COOP (PROOUT)


 Dipole corrections
   LMONO  =      F    monopole corrections only (constant potential shift)
   LDIPOL =      F    correct potential (dipole corrections)
   IDIPOL =      0    1-x, 2-y, 3-z, 4-all directions 
   EPSILON=  1.0000000 bulk dielectric constant

 Exchange correlation treatment:
   GGA     =    PE    GGA type
   LEXCH   =     8    internal setting for exchange type
   VOSKOWN=      0    Vosko Wilk Nusair interpolation
   LHFCALC =     F    Hartree Fock is set to
   LHFONE  =     F    Hartree Fock one center treatment
   AEXX    =    0.0000 exact exchange contribution

 Linear response parameters
   LEPSILON=     F    determine dielectric tensor
   LRPA    =     F    only Hartree local field effects (RPA)
   LNABLA  =     F    use nabla operator in PAW spheres
   LVEL    =     F    velocity operator in full k-point grid
   LINTERFAST=   F  fast interpolation
   KINTER  =     0    interpolate to denser k-point grid
   CSHIFT  =0.1000    complex shift for real part using Kramers Kronig
   OMEGAMAX=  -1.0    maximum frequency
   DEG_THRESHOLD= 0.2000000E-02 threshold for treating states as degnerate
   RTIME   =    0.100 relaxation time in fs

 Orbital magnetization related:
   ORBITALMAG=     F  switch on orbital magnetization
   LCHIMAG   =     F  perturbation theory with respect to B field
   DQ        =  0.001000  dq finite difference perturbation B field



--------------------------------------------------------------------------------------------------------


 quickmin algorithm: (dynamic with friction)
 charge density and potential will be updated during run
 non-spin polarized calculation
 Variant of blocked Davidson
 Davidson routine will perform the subspace rotation
 perform sub-space diagonalisation
    after iterative eigenvector-optimisation
 modified Broyden-mixing scheme, WC =      100.0
 initial mixing is a Kerker type mixing with AMIX =  0.4000 and BMIX =      1.0000
 Hartree-type preconditioning will be used
 using additional bands           12
 real space projection scheme for non local part
 use partial core corrections
 calculate Harris-corrections to forces 
   (improved forces if not selfconsistent)
 use gradient corrections 
 use of overlap-Matrix (Vanderbilt PP)
 Gauss-broadening in eV      SIGMA  =   0.20


--------------------------------------------------------------------------------------------------------


  energy-cutoff  :      400.00
  volume of cell :    27000.00
      direct lattice vectors                 reciprocal lattice vectors
    30.000000000  0.000000000  0.000000000     0.033333333  0.000000000  0.000000000
     0.000000000 30.000000000  0.000000000     0.000000000  0.033333333  0.000000000
     0.000000000  0.000000000 30.000000000     0.000000000  0.000000000  0.033333333

  length of vectors
    30.000000000 30.000000000 30.000000000     0.033333333  0.033333333  0.033333333


 
 k-points in units of 2pi/SCALE and weight: Mo2C                                    
   0.00833333  0.00833333  0.00833333       0.250
  -0.00833333  0.00833333  0.00833333       0.250
   0.00833333 -0.00833333  0.00833333       0.250
  -0.00833333 -0.00833333  0.00833333       0.250
 
 k-points in reciprocal lattice and weights: Mo2C                                    
   0.25000000  0.25000000  0.25000000       0.250
  -0.25000000  0.25000000  0.25000000       0.250
   0.25000000 -0.25000000  0.25000000       0.250
  -0.25000000 -0.25000000  0.25000000       0.250
 
 position of ions in fractional coordinates (direct lattice) 
   0.37523352  0.53701981  0.49922779
   0.38040570  0.48179448  0.47780417
   0.37945566  0.49084638  0.53631431
   0.44912303  0.44674892  0.51369407
   0.52354533  0.45608458  0.54399773
   0.55774415  0.41257688  0.48459823
   0.51631743  0.42793437  0.44573039
   0.50131073  0.39543077  0.49346454
   0.51200818  0.55226202  0.51433621
   0.60879544  0.57229026  0.51893149
   0.58374149  0.57962422  0.46569886
   0.56235454  0.60889714  0.51293233
   0.39113049  0.50464007  0.50447569
   0.44131605  0.51265628  0.50408320
   0.51520371  0.46472708  0.50897311
   0.52280803  0.42245627  0.48129359
   0.55061063  0.50037200  0.49614204
   0.57699638  0.57745799  0.50163300
   0.46686985  0.47521806  0.50870488
   0.54490727  0.54225027  0.51208163
   0.45581633  0.55117310  0.49970063
   0.58430733  0.48753634  0.47618151
 
 position of ions in cartesian coordinates  (Angst):
  11.25700564 16.11059425 14.97683379
  11.41217111 14.45383444 14.33412503
  11.38366984 14.72539126 16.08942936
  13.47369098 13.40246763 15.41082217
  15.70635978 13.68253735 16.31993186
  16.73232459 12.37730643 14.53794691
  15.48952281 12.83803121 13.37191180
  15.03932200 11.86292311 14.80393607
  15.36024535 16.56786065 15.43008638
  18.26386320 17.16870778 15.56794478
  17.51224465 17.38872648 13.97096580
  16.87063613 18.26691421 15.38796978
  11.73391482 15.13920221 15.13427074
  13.23948155 15.37968841 15.12249595
  15.45611125 13.94181231 15.26919320
  15.68424083 12.67368809 14.43880760
  16.51831879 15.01115994 14.88426110
  17.30989139 17.32373973 15.04899003
  14.00609563 14.25654173 15.26114633
  16.34721821 16.26750817 15.36244894
  13.67448980 16.53519313 14.99101892
  17.52921980 14.62609013 14.28544534
 


--------------------------------------------------------------------------------------------------------


 k-point  1 :   0.2500 0.2500 0.2500  plane waves:  490454
 k-point  2 :  -0.2500 0.2500 0.2500  plane waves:  490454
 k-point  3 :   0.2500-0.2500 0.2500  plane waves:  490454
 k-point  4 :  -0.2500-0.2500 0.2500  plane waves:  490454

 maximum and minimum number of plane-waves per node :    490454   490454

 maximum number of plane-waves:    490454
 maximum index in each direction: 
   IXMAX=   49   IYMAX=   49   IZMAX=   48
   IXMIN=  -49   IYMIN=  -49   IZMIN=  -49

 WARNING: aliasing errors must be expected set NGX to 198 to avoid them
 WARNING: aliasing errors must be expected set NGY to 198 to avoid them
 WARNING: aliasing errors must be expected set NGZ to 196 to avoid them
 aliasing errors are usually negligible using standard VASP settings
 and one can safely disregard these warnings

 serial   3D FFT for wavefunctions
 parallel 3D FFT for charge:
    minimum data exchange during FFTs selected (reduces bandwidth)


 total amount of memory used by VASP on root node  4333705. kBytes
========================================================================

   base      :      30000. kBytes
   nonlr-proj:       2400. kBytes
   fftplans  :     924480. kBytes
   grid      :    2089440. kBytes
   one-center:         67. kBytes
   wavefun   :    1287318. kBytes
 
     INWAV:  cpu time    0.0010: real time    0.0003
 Broyden mixing: mesh for mixing (old mesh)
   NGX = 97   NGY = 97   NGZ = 97
  (NGX  =300   NGY  =300   NGZ  =300)
  gives a total of 912673 points

 initial charge density was supplied:
 charge density of overlapping atoms calculated
 number of electron      58.0000000 magnetization 
 keeping initial charge density in first step


--------------------------------------------------------------------------------------------------------


 Maximum index for non-local projection operator         2271
 Maximum index for augmentation-charges         1576 (set IRDMAX)


--------------------------------------------------------------------------------------------------------


 First call to EWALD:  gamma=   0.059
 Maximum number of real-space cells 3x 3x 3
 Maximum number of reciprocal cells 3x 3x 3

 FEWALD executed in parallel
    FEWALD:  cpu time    0.0050: real time    0.0047


----------------------------------------- Iteration    1(   1)  ---------------------------------------


    POTLOK:  cpu time   25.4051: real time   25.3850
    SETDIJ:  cpu time    0.0310: real time    0.0305
     EDDAV:  cpu time  303.2099: real time  302.9624
       DOS:  cpu time    0.0000: real time    0.0009
    --------------------------------------------
      LOOP:  cpu time  328.6490: real time  328.3837

 eigenvalue-minimisations  :   392
 total energy-change (2. order) : 0.6083814E+03  (-0.7970348E+03)
 number of electron      58.0000000 magnetization 
 augmentation part       58.0000000 magnetization 

 Free energy of the ion-electron system (eV)
  ---------------------------------------------------
  alpha Z        PSCENC =         0.51957394
  Ewald energy   TEWEN  =      6038.01982199
  -Hartree energ DENC   =     -7781.50407174
  -exchange      EXHF   =         0.00000000
  -V(xc)+E(xc)   XCENC  =       202.00229080
  PAW double counting   =      1779.70502452    -1789.20730229
  entropy T*S    EENTRO =        -0.78924452
  eigenvalues    EBANDS =      -266.34800868
  atomic energy  EATOM  =      2425.98333211
  Solvation  Ediel_sol  =         0.00000000
  ---------------------------------------------------
  free energy    TOTEN  =       608.38141612 eV

  energy without entropy =      609.17066064  energy(sigma->0) =      608.77603838


--------------------------------------------------------------------------------------------------------




----------------------------------------- Iteration    1(   2)  ---------------------------------------


     EDDAV:  cpu time  421.5489: real time  421.2057
       DOS:  cpu time    0.0000: real time    0.0008
    --------------------------------------------
      LOOP:  cpu time  421.5509: real time  421.2098

 eigenvalue-minimisations  :   579
 total energy-change (2. order) :-0.3387979E+03  (-0.3276121E+03)
 number of electron      58.0000000 magnetization 
 augmentation part       58.0000000 magnetization 

 Free energy of the ion-electron system (eV)
  ---------------------------------------------------
  alpha Z        PSCENC =         0.51957394
  Ewald energy   TEWEN  =      6038.01982199
  -Hartree energ DENC   =     -7781.50407174
  -exchange      EXHF   =         0.00000000
  -V(xc)+E(xc)   XCENC  =       202.00229080
  PAW double counting   =      1779.70502452    -1789.20730229
  entropy T*S    EENTRO =        -0.41132170
  eigenvalues    EBANDS =      -605.52382224
  atomic energy  EATOM  =      2425.98333211
  Solvation  Ediel_sol  =         0.00000000
  ---------------------------------------------------
  free energy    TOTEN  =       269.58352538 eV

  energy without entropy =      269.99484708  energy(sigma->0) =      269.78918623


--------------------------------------------------------------------------------------------------------




----------------------------------------- Iteration    1(   3)  ---------------------------------------


     EDDAV:  cpu time  370.9126: real time  370.6109
       DOS:  cpu time    0.0000: real time    0.0006
    --------------------------------------------
      LOOP:  cpu time  370.9146: real time  370.6148

 eigenvalue-minimisations  :   496
 total energy-change (2. order) :-0.3165219E+03  (-0.3092748E+03)
 number of electron      58.0000000 magnetization 
 augmentation part       58.0000000 magnetization 

 Free energy of the ion-electron system (eV)
  ---------------------------------------------------
  alpha Z        PSCENC =         0.51957394
  Ewald energy   TEWEN  =      6038.01982199
  -Hartree energ DENC   =     -7781.50407174
  -exchange      EXHF   =         0.00000000
  -V(xc)+E(xc)   XCENC  =       202.00229080
  PAW double counting   =      1779.70502452    -1789.20730229
  entropy T*S    EENTRO =        -0.01097839
  eigenvalues    EBANDS =      -922.44608496
  atomic energy  EATOM  =      2425.98333211
  Solvation  Ediel_sol  =         0.00000000
  ---------------------------------------------------
  free energy    TOTEN  =       -46.93839403 eV

  energy without entropy =      -46.92741564  energy(sigma->0) =      -46.93290484


--------------------------------------------------------------------------------------------------------




----------------------------------------- Iteration    1(   4)  ---------------------------------------


     EDDAV:  cpu time  305.2276: real time  304.9788
       DOS:  cpu time    0.0000: real time    0.0005
    --------------------------------------------
      LOOP:  cpu time  305.2296: real time  305.7174

 eigenvalue-minimisations  :   396
 total energy-change (2. order) :-0.8876107E+02  (-0.8839726E+02)
 number of electron      58.0000000 magnetization 
 augmentation part       58.0000000 magnetization 

 Free energy of the ion-electron system (eV)
  ---------------------------------------------------
  alpha Z        PSCENC =         0.51957394
  Ewald energy   TEWEN  =      6038.01982199
  -Hartree energ DENC   =     -7781.50407174
  -exchange      EXHF   =         0.00000000
  -V(xc)+E(xc)   XCENC  =       202.00229080
  PAW double counting   =      1779.70502452    -1789.20730229
  entropy T*S    EENTRO =         0.00000000
  eigenvalues    EBANDS =     -1011.21812868
  atomic energy  EATOM  =      2425.98333211
  Solvation  Ediel_sol  =         0.00000000
  ---------------------------------------------------
  free energy    TOTEN  =      -135.69945936 eV

  energy without entropy =     -135.69945936  energy(sigma->0) =     -135.69945936


--------------------------------------------------------------------------------------------------------




----------------------------------------- Iteration    1(   5)  ---------------------------------------


     EDDAV:  cpu time  348.9360: real time  348.6516
       DOS:  cpu time    0.0000: real time    0.0005
    CHARGE:  cpu time   19.9710: real time   19.9549
    MIXING:  cpu time    0.6789: real time    0.6783
    --------------------------------------------
      LOOP:  cpu time  369.5868: real time  369.2901

 eigenvalue-minimisations  :   464
 total energy-change (2. order) :-0.5839844E+01  (-0.5827904E+01)
 number of electron      57.9999979 magnetization 
 augmentation part        2.9617037 magnetization 

 Broyden mixing:
  rms(total) = 0.19538E+01    rms(broyden)= 0.19514E+01
  rms(prec ) = 0.20290E+01
  weight for this iteration     100.00

 Free energy of the ion-electron system (eV)
  ---------------------------------------------------
  alpha Z        PSCENC =         0.51957394
  Ewald energy   TEWEN  =      6038.01982199
  -Hartree energ DENC   =     -7781.50407174
  -exchange      EXHF   =         0.00000000
  -V(xc)+E(xc)   XCENC  =       202.00229080
  PAW double counting   =      1779.70502452    -1789.20730229
  entropy T*S    EENTRO =         0.00000000
  eigenvalues    EBANDS =     -1017.05797255
  atomic energy  EATOM  =      2425.98333211
  Solvation  Ediel_sol  =         0.00000000
  ---------------------------------------------------
  free energy    TOTEN  =      -141.53930323 eV

  energy without entropy =     -141.53930323  energy(sigma->0) =     -141.53930323


--------------------------------------------------------------------------------------------------------




----------------------------------------- Iteration    1(   6)  ---------------------------------------


    POTLOK:  cpu time   22.8425: real time   22.8239
    SETDIJ:  cpu time    0.0300: real time    0.0300
     EDDAV:  cpu time  301.8341: real time  301.5856
       DOS:  cpu time    0.0000: real time    0.0005
    CHARGE:  cpu time   17.2844: real time   17.2707
    MIXING:  cpu time    0.6699: real time    0.6686
    --------------------------------------------
      LOOP:  cpu time  342.6619: real time  342.3835

 eigenvalue-minimisations  :   429
 total energy-change (2. order) : 0.1015864E+02  (-0.2400347E+01)
 number of electron      57.9999976 magnetization 
 augmentation part        2.6254291 magnetization 

 Broyden mixing:
  rms(total) = 0.99555E+00    rms(broyden)= 0.99507E+00
  rms(prec ) = 0.10237E+01
  weight for this iteration     100.00

 eigenvalues of (default mixing * dielectric matrix)
  average eigenvalue GAMMA=   1.2790
  1.2790

 Free energy of the ion-electron system (eV)
  ---------------------------------------------------
  alpha Z        PSCENC =         0.51957394
  Ewald energy   TEWEN  =      6038.01982199
  -Hartree energ DENC   =     -7895.94376143
  -exchange      EXHF   =         0.00000000
  -V(xc)+E(xc)   XCENC  =       208.05782528
  PAW double counting   =      2769.19838620    -2780.04108901
  entropy T*S    EENTRO =         0.00000000
  eigenvalues    EBANDS =      -897.17474889
  atomic energy  EATOM  =      2425.98333211
  Solvation  Ediel_sol  =         0.00000000
  ---------------------------------------------------
  free energy    TOTEN  =      -131.38065982 eV

  energy without entropy =     -131.38065982  energy(sigma->0) =     -131.38065982


--------------------------------------------------------------------------------------------------------




----------------------------------------- Iteration    1(   7)  ---------------------------------------


    POTLOK:  cpu time   19.3651: real time   19.3499
    SETDIJ:  cpu time    0.0300: real time    0.0290
     EDDAV:  cpu time  323.5048: real time  323.2415
       DOS:  cpu time    0.0000: real time    0.0005
    CHARGE:  cpu time   20.9768: real time   20.9606
    MIXING:  cpu time    0.7709: real time    0.7696
    --------------------------------------------
      LOOP:  cpu time  364.6496: real time  364.3597

 eigenvalue-minimisations  :   432
 total energy-change (2. order) : 0.1736365E+01  (-0.4657027E+00)
 number of electron      57.9999979 magnetization 
 augmentation part        2.6118068 magnetization 

 Broyden mixing:
  rms(total) = 0.51338E+00    rms(broyden)= 0.51326E+00
  rms(prec ) = 0.52598E+00
  weight for this iteration     100.00

 eigenvalues of (default mixing * dielectric matrix)
  average eigenvalue GAMMA=   1.5669
  1.1118  2.0220

 Free energy of the ion-electron system (eV)
  ---------------------------------------------------
  alpha Z        PSCENC =         0.51957394
  Ewald energy   TEWEN  =      6038.01982199
  -Hartree energ DENC   =     -7957.80830968
  -exchange      EXHF   =         0.00000000
  -V(xc)+E(xc)   XCENC  =       211.09590424
  PAW double counting   =      3729.89499937    -3741.00944413
  entropy T*S    EENTRO =         0.00000000
  eigenvalues    EBANDS =      -836.34017222
  atomic energy  EATOM  =      2425.98333211
  Solvation  Ediel_sol  =         0.00000000
  ---------------------------------------------------
  free energy    TOTEN  =      -129.64429439 eV

  energy without entropy =     -129.64429439  energy(sigma->0) =     -129.64429439


--------------------------------------------------------------------------------------------------------




----------------------------------------- Iteration    1(   8)  ---------------------------------------


    POTLOK:  cpu time   22.6746: real time   22.6558
    SETDIJ:  cpu time    0.0290: real time    0.0290
     EDDAV:  cpu time  324.0377: real time  323.7732
       DOS:  cpu time    0.0000: real time    0.0006
    CHARGE:  cpu time   19.7790: real time   19.7623
    MIXING:  cpu time    0.7619: real time    0.7615
    --------------------------------------------
      LOOP:  cpu time  367.2832: real time  366.9861

 eigenvalue-minimisations  :   440
 total energy-change (2. order) : 0.4866117E+00  (-0.8473568E-01)
 number of electron      57.9999979 magnetization 
 augmentation part        2.5860420 magnetization 

 Broyden mixing:
  rms(total) = 0.15194E+00    rms(broyden)= 0.15188E+00
  rms(prec ) = 0.15963E+00
  weight for this iteration     100.00

 eigenvalues of (default mixing * dielectric matrix)
  average eigenvalue GAMMA=   1.5392
  2.3836  0.9545  1.2796

 Free energy of the ion-electron system (eV)
  ---------------------------------------------------
  alpha Z        PSCENC =         0.51957394
  Ewald energy   TEWEN  =      6038.01982199
  -Hartree energ DENC   =     -7998.13221863
  -exchange      EXHF   =         0.00000000
  -V(xc)+E(xc)   XCENC  =       213.19417391
  PAW double counting   =      4539.66923525    -4550.96282250
  entropy T*S    EENTRO =         0.00000000
  eigenvalues    EBANDS =      -797.44877880
  atomic energy  EATOM  =      2425.98333211
  Solvation  Ediel_sol  =         0.00000000
  ---------------------------------------------------
  free energy    TOTEN  =      -129.15768273 eV

  energy without entropy =     -129.15768273  energy(sigma->0) =     -129.15768273


--------------------------------------------------------------------------------------------------------




----------------------------------------- Iteration    1(   9)  ---------------------------------------


    POTLOK:  cpu time   20.6319: real time   20.6149
    SETDIJ:  cpu time    0.0280: real time    0.0283
     EDDAV:  cpu time  333.7943: real time  333.5222
       DOS:  cpu time    0.0000: real time    0.0006
    CHARGE:  cpu time   20.5189: real time   20.5012
    MIXING:  cpu time    0.8499: real time    0.8503
    --------------------------------------------
      LOOP:  cpu time  375.8249: real time  375.5211

 eigenvalue-minimisations  :   464
 total energy-change (2. order) : 0.6890308E-01  (-0.9799693E-02)
 number of electron      57.9999979 magnetization 
 augmentation part        2.5772186 magnetization 

 Broyden mixing:
  rms(total) = 0.56526E-01    rms(broyden)= 0.56498E-01
  rms(prec ) = 0.65098E-01
  weight for this iteration     100.00

 eigenvalues of (default mixing * dielectric matrix)
  average eigenvalue GAMMA=   1.5176
  2.1811  1.0518  1.0518  1.7856

 Free energy of the ion-electron system (eV)
  ---------------------------------------------------
  alpha Z        PSCENC =         0.51957394
  Ewald energy   TEWEN  =      6038.01982199
  -Hartree energ DENC   =     -8011.98418244
  -exchange      EXHF   =         0.00000000
  -V(xc)+E(xc)   XCENC  =       213.76327711
  PAW double counting   =      4772.36798303    -4783.63838302
  entropy T*S    EENTRO =         0.00000000
  eigenvalues    EBANDS =      -784.12020236
  atomic energy  EATOM  =      2425.98333211
  Solvation  Ediel_sol  =         0.00000000
  ---------------------------------------------------
  free energy    TOTEN  =      -129.08877964 eV

  energy without entropy =     -129.08877964  energy(sigma->0) =     -129.08877964


--------------------------------------------------------------------------------------------------------




----------------------------------------- Iteration    1(  10)  ---------------------------------------


    POTLOK:  cpu time   22.6876: real time   22.6701
    SETDIJ:  cpu time    0.0290: real time    0.0288
     EDDAV:  cpu time  314.5862: real time  314.3286
       DOS:  cpu time    0.0000: real time    0.0005
    CHARGE:  cpu time   19.1221: real time   19.1061
    MIXING:  cpu time    0.8139: real time    0.8130
    --------------------------------------------
      LOOP:  cpu time  357.2407: real time  356.9508

 eigenvalue-minimisations  :   431
 total energy-change (2. order) : 0.1236446E-01  (-0.2446213E-02)
 number of electron      57.9999979 magnetization 
 augmentation part        2.5832538 magnetization 

 Broyden mixing:
  rms(total) = 0.25918E-01    rms(broyden)= 0.25895E-01
  rms(prec ) = 0.35889E-01
  weight for this iteration     100.00

 eigenvalues of (default mixing * dielectric matrix)
  average eigenvalue GAMMA=   1.4876
  2.1655  2.1655  0.9770  0.9770  1.1531

 Free energy of the ion-electron system (eV)
  ---------------------------------------------------
  alpha Z        PSCENC =         0.51957394
  Ewald energy   TEWEN  =      6038.01982199
  -Hartree energ DENC   =     -8017.08517745
  -exchange      EXHF   =         0.00000000
  -V(xc)+E(xc)   XCENC  =       213.77939361
  PAW double counting   =      4764.78361920    -4776.00375831
  entropy T*S    EENTRO =         0.00000000
  eigenvalues    EBANDS =      -779.07322027
  atomic energy  EATOM  =      2425.98333211
  Solvation  Ediel_sol  =         0.00000000
  ---------------------------------------------------
  free energy    TOTEN  =      -129.07641518 eV

  energy without entropy =     -129.07641518  energy(sigma->0) =     -129.07641518


--------------------------------------------------------------------------------------------------------




----------------------------------------- Iteration    1(  11)  ---------------------------------------


    POTLOK:  cpu time   21.1698: real time   21.1532
    SETDIJ:  cpu time    0.0280: real time    0.0283
     EDDAV:  cpu time  323.6328: real time  323.3692
       DOS:  cpu time    0.0000: real time    0.0005
    CHARGE:  cpu time   20.6729: real time   20.6554
    MIXING:  cpu time    1.0748: real time    1.0743
    --------------------------------------------
      LOOP:  cpu time  366.5803: real time  366.2846

 eigenvalue-minimisations  :   448
 total energy-change (2. order) : 0.6528887E-02  (-0.8123229E-03)
 number of electron      57.9999979 magnetization 
 augmentation part        2.5789087 magnetization 

 Broyden mixing:
  rms(total) = 0.16107E-01    rms(broyden)= 0.16099E-01
  rms(prec ) = 0.24829E-01
  weight for this iteration     100.00

 eigenvalues of (default mixing * dielectric matrix)
  average eigenvalue GAMMA=   1.5490
  2.4804  2.4804  0.9383  0.9383  1.2285  1.2285

 Free energy of the ion-electron system (eV)
  ---------------------------------------------------
  alpha Z        PSCENC =         0.51957394
  Ewald energy   TEWEN  =      6038.01982199
  -Hartree energ DENC   =     -8023.09622104
  -exchange      EXHF   =         0.00000000
  -V(xc)+E(xc)   XCENC  =       213.89095496
  PAW double counting   =      4769.04295987    -4780.26204313
  entropy T*S    EENTRO =         0.00000000
  eigenvalues    EBANDS =      -773.16826500
  atomic energy  EATOM  =      2425.98333211
  Solvation  Ediel_sol  =         0.00000000
  ---------------------------------------------------
  free energy    TOTEN  =      -129.06988630 eV

  energy without entropy =     -129.06988630  energy(sigma->0) =     -129.06988630


--------------------------------------------------------------------------------------------------------




----------------------------------------- Iteration    1(  12)  ---------------------------------------


    POTLOK:  cpu time   23.6344: real time   23.6161
    SETDIJ:  cpu time    0.0290: real time    0.0290
     EDDAV:  cpu time  308.3901: real time  308.1381
       DOS:  cpu time    0.0000: real time    0.0005
    CHARGE:  cpu time   18.6122: real time   18.5960
    MIXING:  cpu time    0.8959: real time    0.8965
    --------------------------------------------
      LOOP:  cpu time  351.5636: real time  351.2820

 eigenvalue-minimisations  :   419
 total energy-change (2. order) : 0.4755832E-03  (-0.5566234E-03)
 number of electron      57.9999979 magnetization 
 augmentation part        2.5784479 magnetization 

 Broyden mixing:
  rms(total) = 0.98358E-02    rms(broyden)= 0.98314E-02
  rms(prec ) = 0.15960E-01
  weight for this iteration     100.00

 eigenvalues of (default mixing * dielectric matrix)
  average eigenvalue GAMMA=   1.5944
  2.7228  2.7228  1.3221  1.2324  1.2324  0.9642  0.9642

 Free energy of the ion-electron system (eV)
  ---------------------------------------------------
  alpha Z        PSCENC =         0.51957394
  Ewald energy   TEWEN  =      6038.01982199
  -Hartree energ DENC   =     -8029.78198641
  -exchange      EXHF   =         0.00000000
  -V(xc)+E(xc)   XCENC  =       213.97714394
  PAW double counting   =      4764.30275789    -4775.51163179
  entropy T*S    EENTRO =         0.00000000
  eigenvalues    EBANDS =      -766.57842238
  atomic energy  EATOM  =      2425.98333211
  Solvation  Ediel_sol  =         0.00000000
  ---------------------------------------------------
  free energy    TOTEN  =      -129.06941071 eV

  energy without entropy =     -129.06941071  energy(sigma->0) =     -129.06941071


--------------------------------------------------------------------------------------------------------




----------------------------------------- Iteration    1(  13)  ---------------------------------------


    POTLOK:  cpu time   20.5939: real time   20.5781
    SETDIJ:  cpu time    0.0280: real time    0.0284
     EDDAV:  cpu time  309.6079: real time  309.3541
       DOS:  cpu time    0.0010: real time    0.0005
    CHARGE:  cpu time   20.2179: real time   20.2027
    MIXING:  cpu time    1.1508: real time    1.1487
    --------------------------------------------
      LOOP:  cpu time  351.6015: real time  351.3167

 eigenvalue-minimisations  :   432
 total energy-change (2. order) :-0.5866778E-02  (-0.4038337E-03)
 number of electron      57.9999979 magnetization 
 augmentation part        2.5773879 magnetization 

 Broyden mixing:
  rms(total) = 0.58409E-02    rms(broyden)= 0.58354E-02
  rms(prec ) = 0.96250E-02
  weight for this iteration     100.00

 eigenvalues of (default mixing * dielectric matrix)
  average eigenvalue GAMMA=   1.7125
  4.1152  2.4898  1.5437  1.5437  1.0271  1.0271  0.9767  0.9767

 Free energy of the ion-electron system (eV)
  ---------------------------------------------------
  alpha Z        PSCENC =         0.51957394
  Ewald energy   TEWEN  =      6038.01982199
  -Hartree energ DENC   =     -8035.25751409
  -exchange      EXHF   =         0.00000000
  -V(xc)+E(xc)   XCENC  =       214.03940196
  PAW double counting   =      4757.89485258    -4769.10248314
  entropy T*S    EENTRO =         0.00000000
  eigenvalues    EBANDS =      -761.17226284
  atomic energy  EATOM  =      2425.98333211
  Solvation  Ediel_sol  =         0.00000000
  ---------------------------------------------------
  free energy    TOTEN  =      -129.07527749 eV

  energy without entropy =     -129.07527749  energy(sigma->0) =     -129.07527749


--------------------------------------------------------------------------------------------------------




----------------------------------------- Iteration    1(  14)  ---------------------------------------


    POTLOK:  cpu time   21.8497: real time   21.8326
    SETDIJ:  cpu time    0.0300: real time    0.0293
     EDDAV:  cpu time  315.1271: real time  314.8705
       DOS:  cpu time    0.0000: real time    0.0005
    CHARGE:  cpu time   18.4972: real time   18.4821
    MIXING:  cpu time    1.0368: real time    1.0359
    --------------------------------------------
      LOOP:  cpu time  356.5418: real time  356.2553

 eigenvalue-minimisations  :   432
 total energy-change (2. order) :-0.6547529E-02  (-0.1913946E-03)
 number of electron      57.9999979 magnetization 
 augmentation part        2.5765482 magnetization 

 Broyden mixing:
  rms(total) = 0.38247E-02    rms(broyden)= 0.38206E-02
  rms(prec ) = 0.58384E-02
  weight for this iteration     100.00

 eigenvalues of (default mixing * dielectric matrix)
  average eigenvalue GAMMA=   1.8384
  5.0908  2.3690  2.3690  1.2131  1.2131  1.2168  1.1157  0.9791  0.9791

 Free energy of the ion-electron system (eV)
  ---------------------------------------------------
  alpha Z        PSCENC =         0.51957394
  Ewald energy   TEWEN  =      6038.01982199
  -Hartree energ DENC   =     -8039.00103660
  -exchange      EXHF   =         0.00000000
  -V(xc)+E(xc)   XCENC  =       214.06778023
  PAW double counting   =      4752.95109529    -4764.15615840
  entropy T*S    EENTRO =         0.00000000
  eigenvalues    EBANDS =      -757.46623358
  atomic energy  EATOM  =      2425.98333211
  Solvation  Ediel_sol  =         0.00000000
  ---------------------------------------------------
  free energy    TOTEN  =      -129.08182502 eV

  energy without entropy =     -129.08182502  energy(sigma->0) =     -129.08182502


--------------------------------------------------------------------------------------------------------




----------------------------------------- Iteration    1(  15)  ---------------------------------------


    POTLOK:  cpu time   20.3409: real time   20.3243
    SETDIJ:  cpu time    0.0280: real time    0.0286
     EDDAV:  cpu time  293.9943: real time  293.7545
       DOS:  cpu time    0.0000: real time    0.0005
    CHARGE:  cpu time   19.2731: real time   19.2573
    MIXING:  cpu time    1.3798: real time    1.3790
    --------------------------------------------
      LOOP:  cpu time  335.0191: real time  334.7480

 eigenvalue-minimisations  :   412
 total energy-change (2. order) :-0.8197014E-02  (-0.9472963E-04)
 number of electron      57.9999979 magnetization 
 augmentation part        2.5764144 magnetization 

 Broyden mixing:
  rms(total) = 0.23982E-02    rms(broyden)= 0.23960E-02
  rms(prec ) = 0.34684E-02
  weight for this iteration     100.00

 eigenvalues of (default mixing * dielectric matrix)
  average eigenvalue GAMMA=   1.9252
  5.6969  2.8331  2.2555  1.9186  1.4293  0.9955  1.0391  1.0391  1.0223  1.0223

 Free energy of the ion-electron system (eV)
  ---------------------------------------------------
  alpha Z        PSCENC =         0.51957394
  Ewald energy   TEWEN  =      6038.01982199
  -Hartree energ DENC   =     -8040.82015560
  -exchange      EXHF   =         0.00000000
  -V(xc)+E(xc)   XCENC  =       214.06745791
  PAW double counting   =      4752.38100816    -4763.58489403
  entropy T*S    EENTRO =         0.00000000
  eigenvalues    EBANDS =      -755.65616651
  atomic energy  EATOM  =      2425.98333211
  Solvation  Ediel_sol  =         0.00000000
  ---------------------------------------------------
  free energy    TOTEN  =      -129.09002203 eV

  energy without entropy =     -129.09002203  energy(sigma->0) =     -129.09002203


--------------------------------------------------------------------------------------------------------




----------------------------------------- Iteration    1(  16)  ---------------------------------------


    POTLOK:  cpu time   23.2425: real time   23.2249
    SETDIJ:  cpu time    0.0310: real time    0.0304
     EDDAV:  cpu time  287.5733: real time  287.3383
       DOS:  cpu time    0.0000: real time    0.0005
    CHARGE:  cpu time   18.4672: real time   18.4522
    MIXING:  cpu time    1.2948: real time    1.2943
    --------------------------------------------
      LOOP:  cpu time  330.6107: real time  330.3450

 eigenvalue-minimisations  :   380
 total energy-change (2. order) :-0.5841228E-02  (-0.4661926E-04)
 number of electron      57.9999979 magnetization 
 augmentation part        2.5763479 magnetization 

 Broyden mixing:
  rms(total) = 0.13168E-02    rms(broyden)= 0.13162E-02
  rms(prec ) = 0.19451E-02
  weight for this iteration     100.00

 eigenvalues of (default mixing * dielectric matrix)
  average eigenvalue GAMMA=   1.9650
  6.3896  3.1909  2.3558  1.9567  1.3192  1.3192  1.0454  1.0454  1.0148  0.9892
  0.9892

 Free energy of the ion-electron system (eV)
  ---------------------------------------------------
  alpha Z        PSCENC =         0.51957394
  Ewald energy   TEWEN  =      6038.01982199
  -Hartree energ DENC   =     -8041.42410585
  -exchange      EXHF   =         0.00000000
  -V(xc)+E(xc)   XCENC  =       214.05715844
  PAW double counting   =      4752.07744388    -4763.28083613
  entropy T*S    EENTRO =         0.00000000
  eigenvalues    EBANDS =      -755.04825164
  atomic energy  EATOM  =      2425.98333211
  Solvation  Ediel_sol  =         0.00000000
  ---------------------------------------------------
  free energy    TOTEN  =      -129.09586326 eV

  energy without entropy =     -129.09586326  energy(sigma->0) =     -129.09586326


--------------------------------------------------------------------------------------------------------




----------------------------------------- Iteration    1(  17)  ---------------------------------------


    POTLOK:  cpu time   20.7658: real time   20.7500
    SETDIJ:  cpu time    0.0290: real time    0.0286
     EDDAV:  cpu time  265.6656: real time  265.4478
       DOS:  cpu time    0.0010: real time    0.0005
    CHARGE:  cpu time   20.2289: real time   20.2132
    MIXING:  cpu time    1.5308: real time    1.5287
    --------------------------------------------
      LOOP:  cpu time  308.2231: real time  307.9725

 eigenvalue-minimisations  :   358
 total energy-change (2. order) :-0.2366065E-02  (-0.1073126E-04)
 number of electron      57.9999979 magnetization 
 augmentation part        2.5763625 magnetization 

 Broyden mixing:
  rms(total) = 0.85391E-03    rms(broyden)= 0.85353E-03
  rms(prec ) = 0.12670E-02
  weight for this iteration     100.00

 eigenvalues of (default mixing * dielectric matrix)
  average eigenvalue GAMMA=   2.0301
  7.0536  3.6367  2.2598  2.2598  1.5463  1.5463  1.0559  1.0559  0.9809  0.9809
  0.9926  0.9926

 Free energy of the ion-electron system (eV)
  ---------------------------------------------------
  alpha Z        PSCENC =         0.51957394
  Ewald energy   TEWEN  =      6038.01982199
  -Hartree energ DENC   =     -8041.72073873
  -exchange      EXHF   =         0.00000000
  -V(xc)+E(xc)   XCENC  =       214.05381227
  PAW double counting   =      4752.37803400    -4763.58122489
  entropy T*S    EENTRO =         0.00000000
  eigenvalues    EBANDS =      -754.75084002
  atomic energy  EATOM  =      2425.98333211
  Solvation  Ediel_sol  =         0.00000000
  ---------------------------------------------------
  free energy    TOTEN  =      -129.09822933 eV

  energy without entropy =     -129.09822933  energy(sigma->0) =     -129.09822933


--------------------------------------------------------------------------------------------------------




----------------------------------------- Iteration    1(  18)  ---------------------------------------


    POTLOK:  cpu time   22.3236: real time   22.3060
    SETDIJ:  cpu time    0.0290: real time    0.0290
     EDDAV:  cpu time  260.6694: real time  260.4566
       DOS:  cpu time    0.0000: real time    0.0005
    CHARGE:  cpu time   19.7900: real time   19.7745
    MIXING:  cpu time    1.4528: real time    1.4517
    --------------------------------------------
      LOOP:  cpu time  304.2657: real time  304.0223

 eigenvalue-minimisations  :   322
 total energy-change (2. order) :-0.1797738E-02  (-0.1197837E-04)
 number of electron      57.9999979 magnetization 
 augmentation part        2.5763394 magnetization 

 Broyden mixing:
  rms(total) = 0.54286E-03    rms(broyden)= 0.54272E-03
  rms(prec ) = 0.77168E-03
  weight for this iteration     100.00

 eigenvalues of (default mixing * dielectric matrix)
  average eigenvalue GAMMA=   2.0967
  7.5951  4.1966  2.4315  2.4315  1.7351  1.4090  1.4090  1.0731  1.0731  0.9732
  0.9732  0.9781  0.9781

 Free energy of the ion-electron system (eV)
  ---------------------------------------------------
  alpha Z        PSCENC =         0.51957394
  Ewald energy   TEWEN  =      6038.01982199
  -Hartree energ DENC   =     -8041.88376131
  -exchange      EXHF   =         0.00000000
  -V(xc)+E(xc)   XCENC  =       214.05062630
  PAW double counting   =      4752.44444823    -4763.64765358
  entropy T*S    EENTRO =         0.00000000
  eigenvalues    EBANDS =      -754.58641474
  atomic energy  EATOM  =      2425.98333211
  Solvation  Ediel_sol  =         0.00000000
  ---------------------------------------------------
  free energy    TOTEN  =      -129.10002707 eV

  energy without entropy =     -129.10002707  energy(sigma->0) =     -129.10002707


--------------------------------------------------------------------------------------------------------




----------------------------------------- Iteration    1(  19)  ---------------------------------------


    POTLOK:  cpu time   22.2526: real time   22.2354
    SETDIJ:  cpu time    0.0300: real time    0.0303
     EDDAV:  cpu time  270.4149: real time  270.1928
       DOS:  cpu time    0.0000: real time    0.0005
    CHARGE:  cpu time   18.0653: real time   18.0501
    MIXING:  cpu time    1.4098: real time    1.4088
    --------------------------------------------
      LOOP:  cpu time  312.1745: real time  311.9217

 eigenvalue-minimisations  :   368
 total energy-change (2. order) :-0.9735297E-03  (-0.5765160E-05)
 number of electron      57.9999979 magnetization 
 augmentation part        2.5763047 magnetization 

 Broyden mixing:
  rms(total) = 0.30982E-03    rms(broyden)= 0.30960E-03
  rms(prec ) = 0.43809E-03
  weight for this iteration     100.00

 eigenvalues of (default mixing * dielectric matrix)
  average eigenvalue GAMMA=   2.1358
  8.0772  4.7395  2.5957  2.5957  1.6547  1.5883  1.5883  1.0604  1.0604  0.9428
  1.0148  1.0148  0.9841  0.9841

 Free energy of the ion-electron system (eV)
  ---------------------------------------------------
  alpha Z        PSCENC =         0.51957394
  Ewald energy   TEWEN  =      6038.01982199
  -Hartree energ DENC   =     -8041.97517239
  -exchange      EXHF   =         0.00000000
  -V(xc)+E(xc)   XCENC  =       214.05004731
  PAW double counting   =      4752.69422576    -4763.89758435
  entropy T*S    EENTRO =         0.00000000
  eigenvalues    EBANDS =      -754.49524496
  atomic energy  EATOM  =      2425.98333211
  Solvation  Ediel_sol  =         0.00000000
  ---------------------------------------------------
  free energy    TOTEN  =      -129.10100060 eV

  energy without entropy =     -129.10100060  energy(sigma->0) =     -129.10100060


--------------------------------------------------------------------------------------------------------




----------------------------------------- Iteration    1(  20)  ---------------------------------------


    POTLOK:  cpu time   22.4636: real time   22.4455
    SETDIJ:  cpu time    0.0290: real time    0.0291
     EDDAV:  cpu time  271.1888: real time  270.9682
       DOS:  cpu time    0.0000: real time    0.0005
    CHARGE:  cpu time   18.5952: real time   18.5805
    MIXING:  cpu time    1.6767: real time    1.6751
    --------------------------------------------
      LOOP:  cpu time  313.9553: real time  313.7033

 eigenvalue-minimisations  :   350
 total energy-change (2. order) :-0.3847771E-03  (-0.1563765E-05)
 number of electron      57.9999979 magnetization 
 augmentation part        2.5763040 magnetization 

 Broyden mixing:
  rms(total) = 0.19008E-03    rms(broyden)= 0.18999E-03
  rms(prec ) = 0.27102E-03
  weight for this iteration     100.00

 eigenvalues of (default mixing * dielectric matrix)
  average eigenvalue GAMMA=   2.1499
  8.3019  5.1900  2.8534  2.5046  1.8491  1.8491  1.2627  1.2627  1.0439  1.0439
  0.9857  1.0694  1.0694  0.9816  0.9816

 Free energy of the ion-electron system (eV)
  ---------------------------------------------------
  alpha Z        PSCENC =         0.51957394
  Ewald energy   TEWEN  =      6038.01982199
  -Hartree energ DENC   =     -8041.99979149
  -exchange      EXHF   =         0.00000000
  -V(xc)+E(xc)   XCENC  =       214.04902704
  PAW double counting   =      4752.46071529    -4763.66402725
  entropy T*S    EENTRO =         0.00000000
  eigenvalues    EBANDS =      -754.47003700
  atomic energy  EATOM  =      2425.98333211
  Solvation  Ediel_sol  =         0.00000000
  ---------------------------------------------------
  free energy    TOTEN  =      -129.10138537 eV

  energy without entropy =     -129.10138537  energy(sigma->0) =     -129.10138537


--------------------------------------------------------------------------------------------------------




----------------------------------------- Iteration    1(  21)  ---------------------------------------


    POTLOK:  cpu time   21.0158: real time   20.9983
    SETDIJ:  cpu time    0.0280: real time    0.0286
     EDDAV:  cpu time  262.8760: real time  262.6614
       DOS:  cpu time    0.0010: real time    0.0005
    CHARGE:  cpu time   18.0982: real time   18.0835
    MIXING:  cpu time    1.4318: real time    1.4308
    --------------------------------------------
      LOOP:  cpu time  303.4519: real time  303.2070

 eigenvalue-minimisations  :   352
 total energy-change (2. order) :-0.2171952E-03  (-0.7741394E-06)
 number of electron      57.9999979 magnetization 
 augmentation part        2.5762923 magnetization 

 Broyden mixing:
  rms(total) = 0.12368E-03    rms(broyden)= 0.12361E-03
  rms(prec ) = 0.17151E-03
  weight for this iteration     100.00

 eigenvalues of (default mixing * dielectric matrix)
  average eigenvalue GAMMA=   2.2058
  8.4641  5.7025  3.3021  2.6432  2.2768  1.6183  1.6183  1.5441  1.0566  1.0566
  1.0753  1.0753  0.9561  0.9561  0.9741  0.9741

 Free energy of the ion-electron system (eV)
  ---------------------------------------------------
  alpha Z        PSCENC =         0.51957394
  Ewald energy   TEWEN  =      6038.01982199
  -Hartree energ DENC   =     -8042.00905117
  -exchange      EXHF   =         0.00000000
  -V(xc)+E(xc)   XCENC  =       214.04871700
  PAW double counting   =      4752.51169291    -4763.71499336
  entropy T*S    EENTRO =         0.00000000
  eigenvalues    EBANDS =      -754.46069599
  atomic energy  EATOM  =      2425.98333211
  Solvation  Ediel_sol  =         0.00000000
  ---------------------------------------------------
  free energy    TOTEN  =      -129.10160257 eV

  energy without entropy =     -129.10160257  energy(sigma->0) =     -129.10160257


--------------------------------------------------------------------------------------------------------




----------------------------------------- Iteration    1(  22)  ---------------------------------------


    POTLOK:  cpu time   21.3348: real time   21.3179
    SETDIJ:  cpu time    0.0280: real time    0.0286
     EDDAV:  cpu time  244.7748: real time  244.5734
       DOS:  cpu time    0.0000: real time    0.0005
    CHARGE:  cpu time   18.7591: real time   18.7438
    MIXING:  cpu time    1.8587: real time    1.8576
    --------------------------------------------
      LOOP:  cpu time  286.7564: real time  286.5255

 eigenvalue-minimisations  :   341
 total energy-change (2. order) :-0.1367043E-03  (-0.3469524E-06)
 number of electron      57.9999979 magnetization 
 augmentation part        2.5762978 magnetization 

 Broyden mixing:
  rms(total) = 0.80552E-04    rms(broyden)= 0.80487E-04
  rms(prec ) = 0.10314E-03
  weight for this iteration     100.00

 eigenvalues of (default mixing * dielectric matrix)
  average eigenvalue GAMMA=   2.2071
  8.5473  6.1263  3.6016  2.4915  2.4915  1.7457  1.7457  1.2364  1.2364  1.1664
  1.1664  1.0449  1.0449  0.9644  0.9644  0.9735  0.9735

 Free energy of the ion-electron system (eV)
  ---------------------------------------------------
  alpha Z        PSCENC =         0.51957394
  Ewald energy   TEWEN  =      6038.01982199
  -Hartree energ DENC   =     -8042.02289362
  -exchange      EXHF   =         0.00000000
  -V(xc)+E(xc)   XCENC  =       214.04844178
  PAW double counting   =      4752.42863625    -4763.63193274
  entropy T*S    EENTRO =         0.00000000
  eigenvalues    EBANDS =      -754.44671898
  atomic energy  EATOM  =      2425.98333211
  Solvation  Ediel_sol  =         0.00000000
  ---------------------------------------------------
  free energy    TOTEN  =      -129.10173927 eV

  energy without entropy =     -129.10173927  energy(sigma->0) =     -129.10173927


--------------------------------------------------------------------------------------------------------




----------------------------------------- Iteration    1(  23)  ---------------------------------------


    POTLOK:  cpu time   21.1358: real time   21.1190
    SETDIJ:  cpu time    0.0300: real time    0.0301
     EDDAV:  cpu time  276.4660: real time  276.2397
       DOS:  cpu time    0.0000: real time    0.0005
    --------------------------------------------
      LOOP:  cpu time  297.6348: real time  297.3934

 eigenvalue-minimisations  :   368
 total energy-change (2. order) :-0.4187241E-04  (-0.9034338E-07)
 number of electron      57.9999979 magnetization 
 augmentation part        2.5762978 magnetization 

 Free energy of the ion-electron system (eV)
  ---------------------------------------------------
  alpha Z        PSCENC =         0.51957394
  Ewald energy   TEWEN  =      6038.01982199
  -Hartree energ DENC   =     -8042.03255954
  -exchange      EXHF   =         0.00000000
  -V(xc)+E(xc)   XCENC  =       214.04847432
  PAW double counting   =      4752.45370861    -4763.65701850
  entropy T*S    EENTRO =         0.00000000
  eigenvalues    EBANDS =      -754.43711408
  atomic energy  EATOM  =      2425.98333211
  Solvation  Ediel_sol  =         0.00000000
  ---------------------------------------------------
  free energy    TOTEN  =      -129.10178114 eV

  energy without entropy =     -129.10178114  energy(sigma->0) =     -129.10178114


--------------------------------------------------------------------------------------------------------




 average (electrostatic) potential at core
  the test charge radii are     0.5201  0.6991  0.7089  0.7215
  (the norm of the test charge is              1.0000)
       1 -42.2837       2 -42.5237       3 -42.5842       4 -44.7545       5 -42.4033
       6 -41.7357       7 -41.8312       8 -42.0874       9 -43.1173      10 -41.7224
      11 -41.6427      12 -41.9362      13 -59.0736      14 -61.5802      15 -60.1419
      16 -58.5771      17 -60.8686      18 -59.0138      19 -74.8004      20 -73.7126
      21 -80.0402      22 -79.3638
 
 
 
 E-fermi :  -4.6138     XC(G=0):  -0.1521     alpha+bet : -0.0465


 k-point     1 :       0.2500    0.2500    0.2500
  band No.  band energies     occupation 
      1     -26.2409      2.00000
      2     -25.6147      2.00000
      3     -23.4923      2.00000
      4     -22.5625      2.00000
      5     -19.6010      2.00000
      6     -18.2113      2.00000
      7     -17.3968      2.00000
      8     -15.8724      2.00000
      9     -15.0232      2.00000
     10     -13.7629      2.00000
     11     -12.8840      2.00000
     12     -12.4837      2.00000
     13     -11.9158      2.00000
     14     -11.3367      2.00000
     15     -11.0444      2.00000
     16     -10.6415      2.00000
     17     -10.2139      2.00000
     18     -10.1036      2.00000
     19     -10.0104      2.00000
     20      -9.7315      2.00000
     21      -9.2849      2.00000
     22      -9.1666      2.00000
     23      -8.9921      2.00000
     24      -8.7534      2.00000
     25      -8.5930      2.00000
     26      -6.5723      2.00000
     27      -6.3664      2.00000
     28      -5.8065      2.00000
     29      -5.5398      2.00000
     30      -1.1365      0.00000
     31      -1.0837      0.00000
     32      -0.5812      0.00000
     33      -0.2053      0.00000
     34      -0.1805      0.00000
     35      -0.0609      0.00000
     36       0.0139      0.00000
     37       0.0852      0.00000
     38       0.1077      0.00000
     39       0.1196      0.00000
     40       0.1533      0.00000
     41       0.1761      0.00000

 k-point     2 :      -0.2500    0.2500    0.2500
  band No.  band energies     occupation 
      1     -26.2409      2.00000
      2     -25.6147      2.00000
      3     -23.4923      2.00000
      4     -22.5625      2.00000
      5     -19.6010      2.00000
      6     -18.2113      2.00000
      7     -17.3968      2.00000
      8     -15.8724      2.00000
      9     -15.0232      2.00000
     10     -13.7629      2.00000
     11     -12.8840      2.00000
     12     -12.4837      2.00000
     13     -11.9158      2.00000
     14     -11.3367      2.00000
     15     -11.0444      2.00000
     16     -10.6415      2.00000
     17     -10.2139      2.00000
     18     -10.1036      2.00000
     19     -10.0104      2.00000
     20      -9.7315      2.00000
     21      -9.2849      2.00000
     22      -9.1666      2.00000
     23      -8.9921      2.00000
     24      -8.7534      2.00000
     25      -8.5930      2.00000
     26      -6.5723      2.00000
     27      -6.3664      2.00000
     28      -5.8065      2.00000
     29      -5.5397      2.00000
     30      -1.1365      0.00000
     31      -1.0837      0.00000
     32      -0.5812      0.00000
     33      -0.2054      0.00000
     34      -0.1804      0.00000
     35      -0.0615      0.00000
     36       0.0165      0.00000
     37       0.0807      0.00000
     38       0.1023      0.00000
     39       0.1204      0.00000
     40       0.1640      0.00000
     41       0.1730      0.00000

 k-point     3 :       0.2500   -0.2500    0.2500
  band No.  band energies     occupation 
      1     -26.2409      2.00000
      2     -25.6147      2.00000
      3     -23.4923      2.00000
      4     -22.5625      2.00000
      5     -19.6010      2.00000
      6     -18.2113      2.00000
      7     -17.3968      2.00000
      8     -15.8724      2.00000
      9     -15.0232      2.00000
[...]
 augmentation part        2.5801264 magnetization 

 Free energy of the ion-electron system (eV)
  ---------------------------------------------------
  alpha Z        PSCENC =         0.51957394
  Ewald energy   TEWEN  =      6032.84551155
  -Hartree energ DENC   =     -8035.81726980
  -exchange      EXHF   =         0.00000000
  -V(xc)+E(xc)   XCENC  =       214.11360678
  PAW double counting   =      4765.88801786    -4777.10154490
  entropy T*S    EENTRO =         0.00000000
  eigenvalues    EBANDS =      -755.68156178
  atomic energy  EATOM  =      2425.98333211
  Solvation  Ediel_sol  =         0.00000000
  ---------------------------------------------------
  free energy    TOTEN  =      -129.25033424 eV

  energy without entropy =     -129.25033424  energy(sigma->0) =     -129.25033424


--------------------------------------------------------------------------------------------------------




 average (electrostatic) potential at core
  the test charge radii are     0.5201  0.6991  0.7089  0.7215
  (the norm of the test charge is              1.0000)
       1 -42.3546       2 -42.6103       3 -42.5976       4 -44.7552       5 -42.3848
       6 -41.7411       7 -41.9155       8 -42.1190       9 -43.0382      10 -41.6510
      11 -41.6528      12 -41.9349      13 -59.1324      14 -61.6056      15 -60.1406
      16 -58.6473      17 -60.7921      18 -59.0384      19 -74.8182      20 -73.7779
      21 -80.1195      22 -79.2077
 
 
 
 E-fermi :  -4.5095     XC(G=0):  -0.1298     alpha+bet : -0.0465


 k-point     1 :       0.2500    0.2500    0.2500
  band No.  band energies     occupation 
      1     -26.2939      2.00000
      2     -25.5045      2.00000
      3     -23.5608      2.00000
      4     -22.5585      2.00000
      5     -19.6832      2.00000
      6     -18.2347      2.00000
      7     -17.4280      2.00000
      8     -15.8576      2.00000
      9     -15.0159      2.00000
     10     -13.9134      2.00000
     11     -12.8797      2.00000
     12     -12.5929      2.00000
     13     -12.0078      2.00000
     14     -11.3278      2.00000
     15     -11.1296      2.00000
     16     -10.6342      2.00000
     17     -10.2564      2.00000
     18     -10.1497      2.00000
     19      -9.9771      2.00000
     20      -9.7253      2.00000
     21      -9.3076      2.00000
     22      -9.2007      2.00000
     23      -9.0334      2.00000
     24      -8.8260      2.00000
     25      -8.4720      2.00000
     26      -6.6875      2.00000
     27      -6.3378      2.00000
     28      -5.7626      2.00000
     29      -5.4822      2.00000
     30      -1.1387      0.00000
     31      -1.0469      0.00000
     32      -0.4762      0.00000
     33      -0.2099      0.00000
     34      -0.1292      0.00000
     35      -0.0634      0.00000
     36       0.0333      0.00000
     37       0.1065      0.00000
     38       0.1333      0.00000
     39       0.1390      0.00000
     40       0.1770      0.00000
     41       0.1946      0.00000

 k-point     2 :      -0.2500    0.2500    0.2500
  band No.  band energies     occupation 
      1     -26.2939      2.00000
      2     -25.5045      2.00000
      3     -23.5608      2.00000
      4     -22.5585      2.00000
      5     -19.6832      2.00000
      6     -18.2347      2.00000
      7     -17.4280      2.00000
      8     -15.8576      2.00000
      9     -15.0159      2.00000
     10     -13.9134      2.00000
     11     -12.8797      2.00000
     12     -12.5929      2.00000
     13     -12.0078      2.00000
     14     -11.3279      2.00000
     15     -11.1296      2.00000
     16     -10.6342      2.00000
     17     -10.2564      2.00000
     18     -10.1497      2.00000
     19      -9.9771      2.00000
     20      -9.7253      2.00000
     21      -9.3076      2.00000
     22      -9.2008      2.00000
     23      -9.0334      2.00000
     24      -8.8260      2.00000
     25      -8.4720      2.00000
     26      -6.6875      2.00000
     27      -6.3378      2.00000
     28      -5.7625      2.00000
     29      -5.4822      2.00000
     30      -1.1387      0.00000
     31      -1.0469      0.00000
     32      -0.4762      0.00000
     33      -0.2099      0.00000
     34      -0.1293      0.00000
     35      -0.0632      0.00000
     36       0.0358      0.00000
     37       0.0984      0.00000
     38       0.1258      0.00000
     39       0.1441      0.00000
     40       0.1865      0.00000
     41       0.1972      0.00000

 k-point     3 :       0.2500   -0.2500    0.2500
  band No.  band energies     occupation 
      1     -26.2939      2.00000
      2     -25.5045      2.00000
      3     -23.5608      2.00000
      4     -22.5585      2.00000
      5     -19.6832      2.00000
      6     -18.2347      2.00000
      7     -17.4280      2.00000
      8     -15.8576      2.00000
      9     -15.0159      2.00000
     10     -13.9134      2.00000
     11     -12.8797      2.00000
     12     -12.5929      2.00000
     13     -12.0078      2.00000
     14     -11.3278      2.00000
     15     -11.1296      2.00000
     16     -10.6342      2.00000
     17     -10.2564      2.00000
     18     -10.1497      2.00000
     19      -9.9771      2.00000
     20      -9.7253      2.00000
     21      -9.3076      2.00000
     22      -9.2008      2.00000
     23      -9.0334      2.00000
     24      -8.8260      2.00000
     25      -8.4720      2.00000
     26      -6.6875      2.00000
     27      -6.3378      2.00000
     28      -5.7625      2.00000
     29      -5.4822      2.00000
     30      -1.1387      0.00000
     31      -1.0469      0.00000
     32      -0.4762      0.00000
     33      -0.2098      0.00000
     34      -0.1292      0.00000
     35      -0.0638      0.00000
     36       0.0367      0.00000
     37       0.1001      0.00000
     38       0.1256      0.00000
     39       0.1427      0.00000
     40       0.1845      0.00000
     41       0.1979      0.00000

 k-point     4 :      -0.2500   -0.2500    0.2500
  band No.  band energies     occupation 
      1     -26.2939      2.00000
      2     -25.5045      2.00000
      3     -23.5608      2.00000
      4     -22.5585      2.00000
      5     -19.6832      2.00000
      6     -18.2347      2.00000
      7     -17.4280      2.00000
      8     -15.8576      2.00000
      9     -15.0159      2.00000
     10     -13.9134      2.00000
     11     -12.8797      2.00000
     12     -12.5929      2.00000
     13     -12.0078      2.00000
     14     -11.3278      2.00000
     15     -11.1296      2.00000
     16     -10.6342      2.00000
     17     -10.2564      2.00000
     18     -10.1497      2.00000
     19      -9.9771      2.00000
     20      -9.7253      2.00000
     21      -9.3076      2.00000
     22      -9.2008      2.00000
     23      -9.0334      2.00000
     24      -8.8260      2.00000
     25      -8.4720      2.00000
     26      -6.6875      2.00000
     27      -6.3378      2.00000
     28      -5.7625      2.00000
     29      -5.4822      2.00000
     30      -1.1387      0.00000
     31      -1.0469      0.00000
     32      -0.4762      0.00000
     33      -0.2098      0.00000
     34      -0.1293      0.00000
     35      -0.0634      0.00000
     36       0.0338      0.00000
     37       0.1090      0.00000
     38       0.1323      0.00000
     39       0.1342      0.00000
     40       0.1771      0.00000
     41       0.1946      0.00000


--------------------------------------------------------------------------------------------------------


 soft charge-density along one line, spin component           1
         0         1         2         3         4         5         6         7         8         9
 total charge-density along one line
 
 pseudopotential strength for first ion, spin component:           1
 -2.353  -4.056   0.002   0.000  -0.001
 -4.056  -6.907   0.005  -0.001  -0.003
  0.002   0.005  -0.333  -0.001  -0.002
  0.000  -0.001  -0.001  -0.336   0.000
 -0.001  -0.003  -0.002   0.000  -0.335
 total augmentation occupancy for first ion, spin component:           1
  3.530  -0.636  -0.381   0.082   0.211
 -0.636   0.129   0.070  -0.015  -0.038
 -0.381   0.070   0.043  -0.008  -0.020
  0.082  -0.015  -0.008   0.010   0.004
  0.211  -0.038  -0.020   0.004   0.019


------------------------ aborting loop because EDIFF is reached ----------------------------------------


    CHARGE:  cpu time   16.8524: real time   16.8388
    FORLOC:  cpu time    5.7961: real time    5.7913
    FORNL :  cpu time   61.0047: real time   60.9549
    STRESS:  cpu time  183.4091: real time  183.2570
    FORCOR:  cpu time   23.6774: real time   23.6567
    FORHAR:  cpu time   10.4844: real time   10.4762
    MIXING:  cpu time    0.7629: real time    0.7619
    OFIELD:  cpu time    0.0000: real time    0.0000

  FORCE on cell =-STRESS in cart. coord.  units (eV):
  Direction    XX          YY          ZZ          XY          YZ          ZX
  --------------------------------------------------------------------------------------
  Alpha Z     0.51957     0.51957     0.51957
  Ewald    3429.60340  2722.52167  -119.28059   113.96829   391.15996  -357.93600
  Hartree  3830.98484  3140.37812  1064.45228   101.21049   278.58768  -274.72254
  E(xc)    -229.16947  -229.32273  -232.57975    -0.06587     0.48478    -0.38297
  Local   -7851.36735 -6446.99733 -1593.84881  -218.64520  -658.79872   625.44970
  n-local  -133.41551  -133.84644  -132.03235     0.66907    -0.33172     0.59270
  augment    14.36834    14.22752    14.85196     0.02044    -0.30747     0.17736
  Kinetic   934.84932   929.05496   994.02203     2.70311   -10.65735     6.67279
  Fock        0.00000     0.00000     0.00000     0.00000     0.00000     0.00000
  -------------------------------------------------------------------------------------
  Total      -3.62686    -3.46464    -3.89567    -0.13968     0.13716    -0.14896
  in kB      -0.21522    -0.20559    -0.23117    -0.00829     0.00814    -0.00884
  external pressure =       -0.22 kB  Pullay stress =        0.00 kB


 VOLUME and BASIS-vectors are now :
 -----------------------------------------------------------------------------
  energy-cutoff  :      400.00
  volume of cell :    27000.00
      direct lattice vectors                 reciprocal lattice vectors
    30.000000000  0.000000000  0.000000000     0.033333333  0.000000000  0.000000000
     0.000000000 30.000000000  0.000000000     0.000000000  0.033333333  0.000000000
     0.000000000  0.000000000 30.000000000     0.000000000  0.000000000  0.033333333

  length of vectors
    30.000000000 30.000000000 30.000000000     0.033333333  0.033333333  0.033333333


 FORCES acting on ions
    electron-ion (+dipol)            ewald-force                    non-local-force                 convergence-correction
 -----------------------------------------------------------------------------------------------
   0.670E+02 -.526E+02 0.145E+02   -.697E+02 0.575E+02 -.156E+02   0.271E+01 -.488E+01 0.105E+01   0.337E-04 0.122E-03 -.287E-04
   0.525E+02 0.429E+02 0.495E+02   -.537E+02 -.464E+02 -.535E+02   0.128E+01 0.359E+01 0.396E+01   0.195E-04 0.405E-04 -.577E-04
   0.572E+02 0.252E+02 -.586E+02   -.591E+02 -.271E+02 0.633E+02   0.189E+01 0.194E+01 -.476E+01   0.164E-04 0.639E-04 -.109E-04
   0.629E+02 0.919E+02 0.102E+02   -.668E+02 -.981E+02 -.113E+02   0.392E+01 0.622E+01 0.926E+00   0.104E-03 0.117E-03 -.554E-04
   -.158E+02 0.371E+02 -.920E+02   0.167E+02 -.382E+02 0.973E+02   -.953E+00 0.113E+01 -.532E+01   0.560E-05 0.689E-04 -.128E-03
   -.633E+02 0.623E+02 0.476E+01   0.689E+02 -.638E+02 -.434E+01   -.551E+01 0.154E+01 -.400E+00   0.148E-04 0.817E-04 -.597E-04
   0.755E+01 0.276E+02 0.832E+02   -.850E+01 -.267E+02 -.885E+02   0.972E+00 -.888E+00 0.535E+01   0.249E-04 0.835E-04 -.138E-04
   0.294E+02 0.838E+02 -.110E+02   -.325E+02 -.879E+02 0.127E+02   0.309E+01 0.412E+01 -.168E+01   0.199E-04 0.801E-04 -.420E-04
   0.387E+02 -.583E+02 -.195E+02   -.452E+02 0.602E+02 0.209E+02   0.647E+01 -.191E+01 -.138E+01   -.251E-04 0.671E-04 -.746E-04
   -.770E+02 -.179E+02 -.381E+02   0.816E+02 0.165E+02 0.410E+02   -.458E+01 0.138E+01 -.295E+01   0.874E-05 0.775E-07 -.596E-04
   -.400E+02 -.375E+02 0.679E+02   0.417E+02 0.379E+02 -.732E+02   -.163E+01 -.405E+00 0.530E+01   -.402E-04 -.234E-04 -.452E-04
   0.169E+00 -.849E+02 -.191E+02   -.207E+01 0.900E+02 0.208E+02   0.190E+01 -.502E+01 -.173E+01   -.530E-04 0.159E-04 -.360E-04
   0.224E+03 0.168E+02 0.821E+01   -.225E+03 -.160E+02 -.861E+01   0.886E+00 -.841E+00 0.408E+00   0.190E-03 0.321E-03 -.513E-04
   0.165E+03 0.184E+02 -.351E+00   -.170E+03 -.189E+02 0.180E+00   0.495E+01 0.444E+00 0.189E+00   0.218E-03 0.373E-03 -.156E-04
   -.268E+02 0.108E+03 -.805E+02   0.322E+02 -.109E+03 0.806E+02   -.543E+01 0.120E+01 -.748E-01   -.116E-03 0.183E-03 -.372E-03
   -.284E+02 0.219E+03 0.757E+02   0.299E+02 -.220E+03 -.764E+02   -.144E+01 0.677E+00 0.741E+00   0.360E-06 0.507E-03 -.736E-04
   -.143E+02 0.207E+02 -.486E+01   0.116E+02 -.227E+02 0.480E+01   0.269E+01 0.202E+01 0.674E-01   0.152E-03 -.244E-05 -.199E-03
   -.145E+03 -.195E+03 0.114E+02   0.149E+03 0.199E+03 -.121E+02   -.414E+01 -.317E+01 0.722E+00   -.117E-03 0.117E-04 -.359E-03
   0.104E+03 0.148E+03 0.123E+02   -.998E+02 -.147E+03 -.153E+02   -.387E+01 -.110E+01 0.302E+01   0.469E-03 0.105E-03 -.808E-03
   -.159E+02 -.191E+03 -.392E+02   0.123E+02 0.195E+03 0.421E+02   0.357E+01 -.369E+01 -.291E+01   -.107E-03 0.311E-03 -.852E-03
   0.866E+02 -.372E+03 -.863E+02   -.751E+02 0.421E+03 0.952E+02   -.115E+02 -.493E+02 -.879E+01   -.388E-03 -.398E-03 0.968E-03
   -.416E+03 0.136E+03 0.106E+03   0.463E+03 -.155E+03 -.120E+03   -.475E+02 0.184E+02 0.144E+02   0.121E-03 0.179E-03 0.693E-03
 -----------------------------------------------------------------------------------------------
   0.522E+02 0.286E+02 -.609E+01   -.171E-12 0.199E-12 0.426E-13   -.522E+02 -.285E+02 0.612E+01   0.551E-03 0.231E-02 -.168E-02
 
 
 POSITION                                       TOTAL-FORCE (eV/Angst)
 -----------------------------------------------------------------------------------
     11.20429     16.04910     14.95140         0.006454      0.002058     -0.005995
     11.49313     14.37923     14.37008         0.002988     -0.001160      0.005866
     11.36140     14.71088     16.11508        -0.011709      0.011154      0.002036
     13.45755     13.43452     14.99362         0.001047      0.001401     -0.087291
     15.62172     13.74359     16.34411        -0.018738      0.014666      0.003440
     16.72415     12.38123     14.55350         0.007467      0.001444      0.022536
     15.46808     12.87862     13.39899         0.014253     -0.013668      0.007694
     15.02813     11.87807     14.81575         0.006172     -0.001052      0.015247
     15.31183     16.59726     15.33564         0.000139     -0.001846      0.008348
     18.21973     17.04648     15.54773        -0.006267     -0.007098     -0.006800
     17.64286     17.39694     13.90582         0.004071      0.002859     -0.010216
     16.94392     18.28114     15.29777        -0.001569      0.000121     -0.010288
     11.72922     15.11015     15.15714         0.003951      0.005209      0.004194
     13.21850     15.39442     15.26510        -0.011303     -0.038010      0.016618
     15.44081     13.96873     15.27454        -0.007970     -0.001326     -0.003543
     15.67906     12.69378     14.46291         0.007999     -0.005840      0.010148
     16.54853     15.01126     14.92994        -0.015016      0.006825      0.000248
     17.32942     17.31157     14.95831        -0.001712      0.000548     -0.012463
     13.99949     14.28706     15.11708        -0.001633      0.013505     -0.034814
     16.28875     16.31521     15.12893        -0.007443      0.000518     -0.022784
     13.62458     16.54989     15.47628         0.010333      0.015887      0.094326
     17.66488     14.58081     14.60028         0.018487     -0.006194      0.003494
 -----------------------------------------------------------------------------------
    total drift:                                0.020588      0.016198      0.021460


--------------------------------------------------------------------------------------------------------



  FREE ENERGIE OF THE ION-ELECTRON SYSTEM (eV)
  ---------------------------------------------------
  free  energy   TOTEN  =      -129.25033424 eV

  energy  without entropy=     -129.25033424  energy(sigma->0) =     -129.25033424
 
 d Force = 0.2469610E-03[ 0.229E-03, 0.265E-03]  d Energy = 0.2469457E-03 0.152E-07
 d Force =-0.2098569E+00[-0.210E+00,-0.210E+00]  d Ewald  =-0.2098569E+00 0.271E-07


--------------------------------------------------------------------------------------------------------


    POTLOK:  cpu time   20.6969: real time   20.6800


--------------------------------------------------------------------------------------------------------


 NEB: the previous image is higher in energy: F
 NEB: the next image is higher in energy    : T
 NEB: only next energy greater

 NEB: Tangent
 ----------------------------------------------
     -0.00730     -0.02751      0.03540
     -0.03674     -0.02509      0.02819
      0.06455     -0.02760      0.03207
      0.00329      0.01472      0.46927
      0.06079     -0.16009     -0.01772
     -0.04304      0.06738     -0.18342
     -0.07451      0.20921     -0.08264
     -0.04152      0.06091     -0.19692
     -0.01746     -0.00836     -0.20315
     -0.06106      0.06471      0.14021
      0.11316     -0.11559      0.06697
     -0.02890      0.00998     -0.11504
      0.00540     -0.02420      0.01414
      0.00705     -0.02166     -0.12290
      0.00963     -0.01985      0.03755
     -0.04116      0.08789     -0.12141
      0.02103     -0.01080      0.14839
      0.00651     -0.01159      0.02975
      0.00736      0.00111      0.21606
     -0.00188     -0.00474      0.02366
      0.00553     -0.03484     -0.51592
      0.04926     -0.02394      0.31751

 NEB: forces: par spring, perp REAL, dneb     0.056909    0.101564    0.000000
 NEB: distance to prev, next image, angle between     1.299873    1.288491  156.946965
 NEB: projections on to tangent (spring, REAL)    -0.056909   -0.119373

 stress matrix after NEB project (eV)
     -3.62686     -0.13968     -0.14896
     -0.13968     -3.46464      0.13716
     -0.14896      0.13716     -3.89567
  FORCES: max atom, RMS     0.064485    0.024821
  FORCE total and by dimension    0.116421    0.062099
  Stress total and by dimension    6.360430    3.895666
 OPT: skip step - force has converged


--------------------------------------------------------------------------------------------------------


  
 reached required accuracy - stopping structural energy minimisation
     LOOP+:  cpu time 1818.7075: real time 1817.2394
    4ORBIT:  cpu time    0.0000: real time    0.0000

 total amount of memory used by VASP on root node  4333705. kBytes
========================================================================

   base      :      30000. kBytes
   nonlr-proj:       2400. kBytes
   fftplans  :     924480. kBytes
   grid      :    2089440. kBytes
   one-center:         67. kBytes
   wavefun   :    1287318. kBytes
 
  
  
 General timing and accounting informations for this job:
 ========================================================
  
                  Total CPU time used (sec):   226699.203
                            User time (sec):   225262.312
                          System time (sec):     1436.892
                         Elapsed time (sec):   226579.110
  
                   Maximum memory used (kb):     5900192.
                   Average memory used (kb):           0.
  
                          Minor page faults:    320899963
                          Major page faults:            7
                 Voluntary context switches:        13756
