 vasp.5.4.1 24Jun15 (build Jan 13 2020 12:58:22) complex                        
  
 POSCAR found type information on POSCAR  H  C  N  O 
 07/POSCAR found :  4 types and      22 ions
 scaLAPACK will be used
 LDA part: xc-table for Pade appr. of Perdew
 POSCAR found type information on POSCAR  H  C  N  O 
 00/POSCAR found :  4 types and      22 ions
 POSCAR found type information on POSCAR  H  C  N  O 
 16/POSCAR found :  4 types and      22 ions
 Jacobian:    50.2178792621697     
 POSCAR, INCAR and KPOINTS ok, starting setup
 WARNING: small aliasing (wrap around) errors must be expected
 FFT: planning ...
 WAVECAR not read
 entering main loop
       N       E                     dE             d eps       ncg     rms          rms(c)
DAV:   1     0.608381416120E+03    0.60838E+03   -0.79703E+03   392   0.485E+02
DAV:   2     0.269583525376E+03   -0.33880E+03   -0.32761E+03   579   0.917E+01
DAV:   3    -0.469383940318E+02   -0.31652E+03   -0.30927E+03   496   0.111E+02
DAV:   4    -0.135699459360E+03   -0.88761E+02   -0.88397E+02   396   0.801E+01
DAV:   5    -0.141539303228E+03   -0.58398E+01   -0.58279E+01   464   0.227E+01    0.195E+01
DAV:   6    -0.131380659816E+03    0.10159E+02   -0.24003E+01   429   0.199E+01    0.996E+00
DAV:   7    -0.129644294387E+03    0.17364E+01   -0.46570E+00   432   0.840E+00    0.513E+00
DAV:   8    -0.129157682727E+03    0.48661E+00   -0.84736E-01   440   0.403E+00    0.152E+00
DAV:   9    -0.129088779644E+03    0.68903E-01   -0.97997E-02   464   0.152E+00    0.565E-01
DAV:  10    -0.129076415183E+03    0.12364E-01   -0.24462E-02   431   0.811E-01    0.259E-01
DAV:  11    -0.129069886296E+03    0.65289E-02   -0.81232E-03   448   0.452E-01    0.161E-01
DAV:  12    -0.129069410713E+03    0.47558E-03   -0.55662E-03   419   0.357E-01    0.984E-02
DAV:  13    -0.129075277491E+03   -0.58668E-02   -0.40383E-03   432   0.325E-01    0.584E-02
DAV:  14    -0.129081825021E+03   -0.65475E-02   -0.19139E-03   432   0.220E-01    0.382E-02
DAV:  15    -0.129090022035E+03   -0.81970E-02   -0.94730E-04   412   0.116E-01    0.240E-02
DAV:  16    -0.129095863263E+03   -0.58412E-02   -0.46619E-04   380   0.684E-02    0.132E-02
DAV:  17    -0.129098229328E+03   -0.23661E-02   -0.10731E-04   358   0.349E-02    0.854E-03
DAV:  18    -0.129100027066E+03   -0.17977E-02   -0.11978E-04   322   0.302E-02    0.543E-03
DAV:  19    -0.129101000595E+03   -0.97353E-03   -0.57652E-05   368   0.206E-02    0.310E-03
DAV:  20    -0.129101385372E+03   -0.38478E-03   -0.15638E-05   350   0.129E-02    0.190E-03
DAV:  21    -0.129101602568E+03   -0.21720E-03   -0.77414E-06   352   0.804E-03    0.124E-03
DAV:  22    -0.129101739272E+03   -0.13670E-03   -0.34695E-06   341   0.610E-03    0.806E-04
DAV:  23    -0.129101781144E+03   -0.41872E-04   -0.90343E-07   368   0.308E-03
   1 F= -.12910178E+03 E0= -.12910178E+03  d E =-.129102E+03
damped:  g(F)=  0.000E+00 g(S)=  0.000E+00 dE (1.order)= 0.000E+00
 bond charge predicted
       N       E                     dE             d eps       ncg     rms          rms(c)
DAV:   1    -0.129105251763E+03   -0.35125E-02   -0.14022E-01   364   0.198E+00    0.862E-02
DAV:   2    -0.129105562785E+03   -0.31102E-03   -0.42044E-03   464   0.302E-01    0.597E-02
DAV:   3    -0.129105522821E+03    0.39964E-04   -0.85553E-05   368   0.547E-02    0.379E-02
DAV:   4    -0.129105524974E+03   -0.21525E-05   -0.12086E-04   342   0.606E-02    0.786E-03
DAV:   5    -0.129105528548E+03   -0.35744E-05   -0.26218E-05   272   0.278E-02    0.505E-03
DAV:   6    -0.129105530813E+03   -0.22646E-05   -0.37839E-06   334   0.106E-02
   2 F= -.12910553E+03 E0= -.12910553E+03  d E =-.374967E-02
damped:  g(F)=  0.000E+00 g(S)=  0.000E+00 dE (1.order)= 0.000E+00
 bond charge predicted
       N       E                     dE             d eps       ncg     rms          rms(c)
DAV:   1    -0.129107889431E+03   -0.23609E-02   -0.28947E-01   334   0.278E+00    0.113E-01
DAV:   2    -0.129108426785E+03   -0.53735E-03   -0.72118E-03   411   0.387E-01    0.752E-02
DAV:   3    -0.129108370186E+03    0.56599E-04   -0.14666E-04   368   0.704E-02    0.467E-02
DAV:   4    -0.129108397132E+03   -0.26946E-04   -0.18080E-04   234   0.742E-02    0.972E-03
DAV:   5    -0.129108402644E+03   -0.55115E-05   -0.40776E-05   272   0.349E-02    0.637E-03
DAV:   6    -0.129108405662E+03   -0.30180E-05   -0.55599E-06   252   0.132E-02
   3 F= -.12910841E+03 E0= -.12910841E+03  d E =-.287485E-02
damped:  g(F)=  0.000E+00 g(S)=  0.000E+00 dE (1.order)= 0.000E+00
 bond charge predicted
       N       E                     dE             d eps       ncg     rms          rms(c)
DAV:   1    -0.129111502656E+03   -0.31000E-02   -0.37864E-01   332   0.314E+00    0.118E-01
DAV:   2    -0.129112186046E+03   -0.68339E-03   -0.86487E-03   396   0.411E-01    0.749E-02
DAV:   3    -0.129112163250E+03    0.22795E-04   -0.15338E-04   352   0.711E-02    0.442E-02
DAV:   4    -0.129112233259E+03   -0.70009E-04   -0.14262E-04   272   0.675E-02    0.884E-03
DAV:   5    -0.129112240316E+03   -0.70571E-05   -0.30211E-05   336   0.294E-02    0.578E-03
DAV:   6    -0.129112243253E+03   -0.29368E-05   -0.35673E-06   208   0.107E-02
   4 F= -.12911224E+03 E0= -.12911224E+03  d E =-.383759E-02
damped:  g(F)=  0.000E+00 g(S)=  0.000E+00 dE (1.order)= 0.000E+00
 bond charge predicted
       N       E                     dE             d eps       ncg     rms          rms(c)
DAV:   1    -0.129115970331E+03   -0.37300E-02   -0.55759E-01   332   0.382E+00    0.142E-01
DAV:   2    -0.129116986600E+03   -0.10163E-02   -0.12870E-02   394   0.499E-01    0.888E-02
DAV:   3    -0.129116960079E+03    0.26522E-04   -0.21189E-04   400   0.801E-02    0.525E-02
DAV:   4    -0.129117051930E+03   -0.91852E-04   -0.16094E-04   305   0.715E-02    0.850E-03
DAV:   5    -0.129117058571E+03   -0.66405E-05   -0.33967E-05   272   0.302E-02    0.661E-03
DAV:   6    -0.129117061052E+03   -0.24809E-05   -0.48559E-06   288   0.115E-02
   5 F= -.12911706E+03 E0= -.12911706E+03  d E =-.481780E-02
damped:  g(F)=  0.000E+00 g(S)=  0.000E+00 dE (1.order)= 0.000E+00
 bond charge predicted
       N       E                     dE             d eps       ncg     rms          rms(c)
DAV:   1    -0.129119559641E+03   -0.25011E-02   -0.68975E-01   332   0.423E+00    0.161E-01
DAV:   2    -0.129120787843E+03   -0.12282E-02   -0.15995E-02   396   0.558E-01    0.987E-02
DAV:   3    -0.129120748613E+03    0.39231E-04   -0.25883E-04   400   0.910E-02    0.582E-02
DAV:   4    -0.129120857215E+03   -0.10860E-03   -0.22952E-04   325   0.872E-02    0.105E-02
DAV:   5    -0.129120866104E+03   -0.88891E-05   -0.51719E-05   304   0.390E-02    0.790E-03
DAV:   6    -0.129120869794E+03   -0.36902E-05   -0.66652E-06   310   0.145E-02
   6 F= -.12912087E+03 E0= -.12912087E+03  d E =-.380874E-02
damped:  g(F)=  0.000E+00 g(S)=  0.000E+00 dE (1.order)= 0.000E+00
 bond charge predicted
       N       E                     dE             d eps       ncg     rms          rms(c)
DAV:   1    -0.129122366805E+03   -0.15007E-02   -0.71236E-01   330   0.430E+00    0.159E-01
DAV:   2    -0.129123628556E+03   -0.12618E-02   -0.16122E-02   364   0.564E-01    0.994E-02
DAV:   3    -0.129123594375E+03    0.34181E-04   -0.38922E-04   368   0.101E-01    0.590E-02
DAV:   4    -0.129123713911E+03   -0.11954E-03   -0.25784E-04   378   0.929E-02    0.122E-02
DAV:   5    -0.129123723150E+03   -0.92388E-05   -0.51789E-05   272   0.393E-02    0.899E-03
DAV:   6    -0.129123728406E+03   -0.52564E-05   -0.11286E-05   340   0.176E-02
   7 F= -.12912373E+03 E0= -.12912373E+03  d E =-.285861E-02
damped:  g(F)=  0.000E+00 g(S)=  0.000E+00 dE (1.order)= 0.000E+00
 bond charge predicted
       N       E                     dE             d eps       ncg     rms          rms(c)
DAV:   1    -0.129124491612E+03   -0.76846E-03   -0.92002E-01   331   0.497E+00    0.175E-01
DAV:   2    -0.129126227437E+03   -0.17358E-02   -0.21346E-02   388   0.656E-01    0.119E-01
DAV:   3    -0.129126162415E+03    0.65021E-04   -0.52641E-04   429   0.112E-01    0.729E-02
DAV:   4    -0.129126308076E+03   -0.14566E-03   -0.26118E-04   274   0.990E-02    0.120E-02
DAV:   5    -0.129126322073E+03   -0.13997E-04   -0.73451E-05   336   0.445E-02    0.981E-03
DAV:   6    -0.129126325844E+03   -0.37704E-05   -0.70439E-06   236   0.157E-02
   8 F= -.12912633E+03 E0= -.12912633E+03  d E =-.259744E-02
damped:  g(F)=  0.000E+00 g(S)=  0.000E+00 dE (1.order)= 0.000E+00
 bond charge predicted
       N       E                     dE             d eps       ncg     rms          rms(c)
DAV:   1    -0.129126398874E+03   -0.76801E-04   -0.11257E+00   329   0.550E+00    0.189E-01
DAV:   2    -0.129128441954E+03   -0.20431E-02   -0.25361E-02   380   0.716E-01    0.132E-01
DAV:   3    -0.129128359789E+03    0.82165E-04   -0.61464E-04   432   0.122E-01    0.801E-02
DAV:   4    -0.129128544270E+03   -0.18448E-03   -0.41540E-04   371   0.120E-01    0.161E-02
DAV:   5    -0.129128553657E+03   -0.93878E-05   -0.83439E-05   272   0.487E-02    0.121E-02
DAV:   6    -0.129128560810E+03   -0.71525E-05   -0.16815E-05   272   0.206E-02
   9 F= -.12912856E+03 E0= -.12912856E+03  d E =-.223497E-02
damped:  g(F)=  0.000E+00 g(S)=  0.000E+00 dE (1.order)= 0.000E+00
 bond charge predicted
       N       E                     dE             d eps       ncg     rms          rms(c)
DAV:   1    -0.129127650286E+03    0.90337E-03   -0.14969E+00   329   0.638E+00    0.223E-01
DAV:   2    -0.129130468527E+03   -0.28182E-02   -0.35745E-02   380   0.854E-01    0.155E-01
DAV:   3    -0.129130328993E+03    0.13953E-03   -0.85111E-04   464   0.146E-01    0.962E-02
DAV:   4    -0.129130549718E+03   -0.22072E-03   -0.59870E-04   428   0.146E-01    0.210E-02
DAV:   5    -0.129130563148E+03   -0.13430E-04   -0.14011E-04   336   0.624E-02    0.162E-02
DAV:   6    -0.129130569946E+03   -0.67986E-05   -0.13790E-05   256   0.194E-02
  10 F= -.12913057E+03 E0= -.12913057E+03  d E =-.200914E-02
damped:  g(F)=  0.000E+00 g(S)=  0.000E+00 dE (1.order)= 0.000E+00
 bond charge predicted
       N       E                     dE             d eps       ncg     rms          rms(c)
DAV:   1    -0.129130107710E+03    0.45544E-03   -0.18392E+00   328   0.706E+00    0.247E-01
DAV:   2    -0.129133867774E+03   -0.37601E-02   -0.46057E-02   396   0.960E-01    0.176E-01
DAV:   3    -0.129133586540E+03    0.28123E-03   -0.75867E-04   464   0.152E-01    0.111E-01
DAV:   4    -0.129133896177E+03   -0.30964E-03   -0.71228E-04   418   0.156E-01    0.252E-02
DAV:   5    -0.129133915583E+03   -0.19406E-04   -0.15932E-04   368   0.674E-02    0.152E-02
DAV:   6    -0.129133922582E+03   -0.69995E-05   -0.17492E-05   256   0.220E-02
  11 F= -.12913392E+03 E0= -.12913392E+03  d E =-.335264E-02
damped:  g(F)=  0.000E+00 g(S)=  0.000E+00 dE (1.order)= 0.000E+00
 bond charge predicted
       N       E                     dE             d eps       ncg     rms          rms(c)
DAV:   1    -0.129131618501E+03    0.22971E-02   -0.26525E+00   329   0.848E+00    0.299E-01
DAV:   2    -0.129137187706E+03   -0.55692E-02   -0.68318E-02   364   0.117E+00    0.209E-01
DAV:   3    -0.129136887402E+03    0.30030E-03   -0.15003E-03   438   0.191E-01    0.132E-01
DAV:   4    -0.129137212043E+03   -0.32464E-03   -0.94967E-04   394   0.188E-01    0.254E-02
DAV:   5    -0.129137245981E+03   -0.33938E-04   -0.24213E-04   400   0.802E-02    0.195E-02
DAV:   6    -0.129137256595E+03   -0.10614E-04   -0.19742E-05   366   0.238E-02
  12 F= -.12913726E+03 E0= -.12913726E+03  d E =-.333401E-02
damped:  g(F)=  0.000E+00 g(S)=  0.000E+00 dE (1.order)= 0.000E+00
 bond charge predicted
       N       E                     dE             d eps       ncg     rms          rms(c)
DAV:   1    -0.129129300881E+03    0.79451E-02   -0.41964E+00   330   0.108E+01    0.413E-01
DAV:   2    -0.129138681757E+03   -0.93809E-02   -0.12148E-01   354   0.157E+00    0.291E-01
DAV:   3    -0.129137985914E+03    0.69584E-03   -0.30075E-03   464   0.286E-01    0.189E-01
DAV:   4    -0.129138407090E+03   -0.42118E-03   -0.27821E-03   427   0.300E-01    0.537E-02
DAV:   5    -0.129138412168E+03   -0.50775E-05   -0.58903E-04   432   0.126E-01    0.303E-02
DAV:   6    -0.129138425641E+03   -0.13473E-04   -0.74220E-05   360   0.434E-02
  13 F= -.12913843E+03 E0= -.12913843E+03  d E =-.116905E-02
damped:  g(F)=  0.000E+00 g(S)=  0.000E+00 dE (1.order)= 0.000E+00
 bond charge predicted
       N       E                     dE             d eps       ncg     rms          rms(c)
DAV:   1    -0.129143013369E+03   -0.46012E-02   -0.40443E-01   333   0.342E+00    0.206E-01
DAV:   2    -0.129144365491E+03   -0.13521E-02   -0.18647E-02   427   0.630E-01    0.123E-01
DAV:   3    -0.129144180209E+03    0.18528E-03   -0.48996E-04   398   0.126E-01    0.693E-02
DAV:   4    -0.129144128106E+03    0.52103E-04   -0.33459E-04   364   0.100E-01    0.151E-02
DAV:   5    -0.129144140059E+03   -0.11954E-04   -0.66357E-05   368   0.411E-02    0.899E-03
DAV:   6    -0.129144147964E+03   -0.79048E-05   -0.81497E-06   368   0.153E-02
  14 F= -.12914415E+03 E0= -.12914415E+03  d E =-.572232E-02
damped:  g(F)=  0.000E+00 g(S)=  0.000E+00 dE (1.order)= 0.000E+00
 bond charge predicted
       N       E                     dE             d eps       ncg     rms          rms(c)
DAV:   1    -0.129144284261E+03   -0.14420E-03   -0.58710E-04   436   0.131E-01    0.612E-03
DAV:   2    -0.129144291038E+03   -0.67767E-05   -0.14414E-05   368   0.190E-02    0.371E-03
DAV:   3    -0.129144296249E+03   -0.52115E-05   -0.13811E-06   258   0.635E-03    0.217E-03
DAV:   4    -0.129144304867E+03   -0.86183E-05   -0.82786E-07   366   0.432E-03    0.702E-04
DAV:   5    -0.129144309962E+03   -0.50947E-05   -0.27832E-07   286   0.239E-03    0.420E-04
DAV:   6    -0.129144312658E+03   -0.26963E-05   -0.85922E-08   270   0.133E-03
  15 F= -.12914431E+03 E0= -.12914431E+03  d E =-.164694E-03
damped:  g(F)=  0.000E+00 g(S)=  0.000E+00 dE (1.order)= 0.000E+00
 bond charge predicted
       N       E                     dE             d eps       ncg     rms          rms(c)
DAV:   1    -0.129144532444E+03   -0.22248E-03   -0.21161E-03   331   0.249E-01    0.103E-02
DAV:   2    -0.129144538455E+03   -0.60108E-05   -0.59448E-05   368   0.374E-02    0.671E-03
DAV:   3    -0.129144539257E+03   -0.80178E-06   -0.45994E-06   272   0.114E-02    0.412E-03
DAV:   4    -0.129144540821E+03   -0.15649E-05   -0.15619E-06   263   0.698E-03    0.122E-03
DAV:   5    -0.129144541690E+03   -0.86848E-06   -0.38241E-07   256   0.344E-03    0.481E-04
DAV:   6    -0.129144542138E+03   -0.44820E-06   -0.89611E-08   220   0.155E-03
  16 F= -.12914454E+03 E0= -.12914454E+03  d E =-.229480E-03
damped:  g(F)=  0.000E+00 g(S)=  0.000E+00 dE (1.order)= 0.000E+00
 bond charge predicted
       N       E                     dE             d eps       ncg     rms          rms(c)
DAV:   1    -0.129144806267E+03   -0.26458E-03   -0.40323E-03   359   0.341E-01    0.135E-02
DAV:   2    -0.129144815409E+03   -0.91416E-05   -0.10912E-04   365   0.495E-02    0.896E-03
DAV:   3    -0.129144815174E+03    0.23452E-06   -0.46701E-06   264   0.115E-02    0.573E-03
DAV:   4    -0.129144815707E+03   -0.53256E-06   -0.32692E-06   281   0.996E-03    0.155E-03
DAV:   5    -0.129144815844E+03   -0.13754E-06   -0.78049E-07   272   0.488E-03    0.765E-04
DAV:   6    -0.129144815988E+03   -0.14317E-06   -0.15040E-07   222   0.200E-03
  17 F= -.12914482E+03 E0= -.12914482E+03  d E =-.273849E-03
damped:  g(F)=  0.000E+00 g(S)=  0.000E+00 dE (1.order)= 0.000E+00
 bond charge predicted
       N       E                     dE             d eps       ncg     rms          rms(c)
DAV:   1    -0.129145115363E+03   -0.29952E-03   -0.59966E-03   356   0.412E-01    0.155E-02
DAV:   2    -0.129145126808E+03   -0.11446E-04   -0.14203E-04   261   0.570E-02    0.974E-03
DAV:   3    -0.129145127039E+03   -0.23043E-06   -0.90819E-06   272   0.149E-02    0.617E-03
DAV:   4    -0.129145127715E+03   -0.67675E-06   -0.49849E-06   264   0.113E-02    0.168E-03
DAV:   5    -0.129145127755E+03   -0.39721E-07   -0.84518E-07   221   0.499E-03    0.105E-03
DAV:   6    -0.129145127849E+03   -0.93880E-07   -0.22831E-07   215   0.246E-03
  18 F= -.12914513E+03 E0= -.12914513E+03  d E =-.311861E-03
damped:  g(F)=  0.000E+00 g(S)=  0.000E+00 dE (1.order)= 0.000E+00
 bond charge predicted
       N       E                     dE             d eps       ncg     rms          rms(c)
DAV:   1    -0.129145475934E+03   -0.34818E-03   -0.81954E-03   331   0.476E-01    0.174E-02
DAV:   2    -0.129145490599E+03   -0.14665E-04   -0.18221E-04   253   0.636E-02    0.105E-02
DAV:   3    -0.129145491185E+03   -0.58617E-06   -0.11112E-05   200   0.163E-02    0.640E-03
DAV:   4    -0.129145492243E+03   -0.10572E-05   -0.43644E-06   236   0.112E-02    0.135E-03
DAV:   5    -0.129145492447E+03   -0.20455E-06   -0.13576E-06   164   0.556E-03    0.907E-04
DAV:   6    -0.129145492612E+03   -0.16469E-06   -0.39554E-07   200   0.260E-03
  19 F= -.12914549E+03 E0= -.12914549E+03  d E =-.364763E-03
damped:  g(F)=  0.000E+00 g(S)=  0.000E+00 dE (1.order)= 0.000E+00
 bond charge predicted
       N       E                     dE             d eps       ncg     rms          rms(c)
DAV:   1    -0.129145902789E+03   -0.41034E-03   -0.11064E-02   331   0.549E-01    0.201E-02
DAV:   2    -0.129145923352E+03   -0.20564E-04   -0.25590E-04   300   0.729E-02    0.121E-02
DAV:   3    -0.129145923676E+03   -0.32322E-06   -0.10031E-05   236   0.165E-02    0.724E-03
DAV:   4    -0.129145925041E+03   -0.13651E-05   -0.45098E-06   218   0.120E-02    0.138E-03
DAV:   5    -0.129145925317E+03   -0.27597E-06   -0.12712E-06   234   0.565E-03    0.891E-04
DAV:   6    -0.129145925512E+03   -0.19512E-06   -0.27100E-07   173   0.238E-03
  20 F= -.12914593E+03 E0= -.12914593E+03  d E =-.432900E-03
damped:  g(F)=  0.000E+00 g(S)=  0.000E+00 dE (1.order)= 0.000E+00
 bond charge predicted
       N       E                     dE             d eps       ncg     rms          rms(c)
DAV:   1    -0.129146438054E+03   -0.51274E-03   -0.18246E-02   332   0.704E-01    0.258E-02
DAV:   2    -0.129146472478E+03   -0.34424E-04   -0.43108E-04   300   0.942E-02    0.157E-02
DAV:   3    -0.129146472910E+03   -0.43203E-06   -0.16316E-05   269   0.209E-02    0.940E-03
DAV:   4    -0.129146475080E+03   -0.21700E-05   -0.72735E-06   202   0.151E-02    0.169E-03
DAV:   5    -0.129146475516E+03   -0.43590E-06   -0.20502E-06   262   0.699E-03    0.110E-03
DAV:   6    -0.129146475806E+03   -0.28979E-06   -0.44780E-07   201   0.296E-03
  21 F= -.12914648E+03 E0= -.12914648E+03  d E =-.550294E-03
damped:  g(F)=  0.000E+00 g(S)=  0.000E+00 dE (1.order)= 0.000E+00
 bond charge predicted
       N       E                     dE             d eps       ncg     rms          rms(c)
DAV:   1    -0.129147083403E+03   -0.60789E-03   -0.29250E-02   329   0.890E-01    0.325E-02
DAV:   2    -0.129147141497E+03   -0.58093E-04   -0.71642E-04   409   0.119E-01    0.206E-02
DAV:   3    -0.129147139635E+03    0.18623E-05   -0.82740E-06   271   0.175E-02    0.123E-02
DAV:   4    -0.129147143508E+03   -0.38736E-05   -0.94038E-06   200   0.177E-02    0.215E-03
DAV:   5    -0.129147144114E+03   -0.60578E-06   -0.24606E-06   272   0.810E-03    0.135E-03
DAV:   6    -0.129147144436E+03   -0.32233E-06   -0.29783E-07   200   0.274E-03
  22 F= -.12914714E+03 E0= -.12914714E+03  d E =-.668631E-03
damped:  g(F)=  0.000E+00 g(S)=  0.000E+00 dE (1.order)= 0.000E+00
 bond charge predicted
       N       E                     dE             d eps       ncg     rms          rms(c)
DAV:   1    -0.129147847032E+03   -0.70292E-03   -0.45508E-02   333   0.111E+00    0.400E-02
DAV:   2    -0.129147936111E+03   -0.89079E-04   -0.10929E-03   376   0.147E-01    0.255E-02
DAV:   3    -0.129147933603E+03    0.25086E-05   -0.13290E-05   272   0.223E-02    0.152E-02
DAV:   4    -0.129147940748E+03   -0.71449E-05   -0.16340E-05   266   0.223E-02    0.298E-03
DAV:   5    -0.129147941436E+03   -0.68822E-06   -0.33841E-06   272   0.990E-03    0.189E-03
DAV:   6    -0.129147941810E+03   -0.37399E-06   -0.39214E-07   186   0.335E-03
  23 F= -.12914794E+03 E0= -.12914794E+03  d E =-.797374E-03
damped:  g(F)=  0.000E+00 g(S)=  0.000E+00 dE (1.order)= 0.000E+00
 bond charge predicted
       N       E                     dE             d eps       ncg     rms          rms(c)
DAV:   1    -0.129148736963E+03   -0.79553E-03   -0.70914E-02   333   0.138E+00    0.498E-02
DAV:   2    -0.129148875193E+03   -0.13823E-03   -0.17126E-03   329   0.183E-01    0.322E-02
DAV:   3    -0.129148870825E+03    0.43683E-05   -0.29955E-05   336   0.297E-02    0.196E-02
DAV:   4    -0.129148883021E+03   -0.12196E-04   -0.21478E-05   202   0.285E-02    0.335E-03
DAV:   5    -0.129148884026E+03   -0.10051E-05   -0.61021E-06   272   0.128E-02    0.245E-03
DAV:   6    -0.129148884662E+03   -0.63544E-06   -0.76343E-07   204   0.459E-03
  24 F= -.12914888E+03 E0= -.12914888E+03  d E =-.942852E-03
damped:  g(F)=  0.000E+00 g(S)=  0.000E+00 dE (1.order)= 0.000E+00
 bond charge predicted
       N       E                     dE             d eps       ncg     rms          rms(c)
DAV:   1    -0.129149731385E+03   -0.84736E-03   -0.11129E-01   333   0.173E+00    0.621E-02
DAV:   2    -0.129149953044E+03   -0.22166E-03   -0.27243E-03   363   0.231E-01    0.405E-02
DAV:   3    -0.129149945431E+03    0.76132E-05   -0.47642E-05   367   0.370E-02    0.250E-02
DAV:   4    -0.129149965697E+03   -0.20267E-04   -0.35477E-05   201   0.368E-02    0.424E-03
DAV:   5    -0.129149967308E+03   -0.16107E-05   -0.98959E-06   272   0.164E-02    0.310E-03
DAV:   6    -0.129149968347E+03   -0.10391E-05   -0.11761E-06   202   0.569E-03
  25 F= -.12914997E+03 E0= -.12914997E+03  d E =-.108369E-02
damped:  g(F)=  0.000E+00 g(S)=  0.000E+00 dE (1.order)= 0.000E+00
 bond charge predicted
       N       E                     dE             d eps       ncg     rms          rms(c)
DAV:   1    -0.129150850555E+03   -0.88325E-03   -0.17276E-01   329   0.215E+00    0.758E-02
DAV:   2    -0.129151197283E+03   -0.34673E-03   -0.42039E-03   356   0.287E-01    0.495E-02
DAV:   3    -0.129151183971E+03    0.13312E-04   -0.70790E-05   350   0.446E-02    0.302E-02
DAV:   4    -0.129151218709E+03   -0.34738E-04   -0.56833E-05   264   0.458E-02    0.535E-03
DAV:   5    -0.129151221041E+03   -0.23319E-05   -0.14089E-05   272   0.199E-02    0.386E-03
DAV:   6    -0.129151222692E+03   -0.16506E-05   -0.15967E-06   204   0.674E-03
  26 F= -.12915122E+03 E0= -.12915122E+03  d E =-.125434E-02
damped:  g(F)=  0.000E+00 g(S)=  0.000E+00 dE (1.order)= 0.000E+00
 bond charge predicted
       N       E                     dE             d eps       ncg     rms          rms(c)
DAV:   1    -0.129152088232E+03   -0.86719E-03   -0.26638E-01   329   0.266E+00    0.923E-02
DAV:   2    -0.129152632712E+03   -0.54448E-03   -0.65185E-03   348   0.357E-01    0.609E-02
DAV:   3    -0.129152608999E+03    0.23712E-04   -0.10516E-04   344   0.535E-02    0.373E-02
DAV:   4    -0.129152660740E+03   -0.51741E-04   -0.85742E-05   304   0.562E-02    0.634E-03
DAV:   5    -0.129152664718E+03   -0.39783E-05   -0.21181E-05   272   0.240E-02    0.478E-03
DAV:   6    -0.129152667775E+03   -0.30562E-05   -0.24966E-06   278   0.816E-03
  27 F= -.12915267E+03 E0= -.12915267E+03  d E =-.144508E-02
damped:  g(F)=  0.000E+00 g(S)=  0.000E+00 dE (1.order)= 0.000E+00
 bond charge predicted
       N       E                     dE             d eps       ncg     rms          rms(c)
DAV:   1    -0.129153498266E+03   -0.83355E-03   -0.40363E-01   331   0.326E+00    0.112E-01
DAV:   2    -0.129154319570E+03   -0.82130E-03   -0.98717E-03   346   0.438E-01    0.744E-02
DAV:   3    -0.129154283383E+03    0.36186E-04   -0.15793E-04   366   0.650E-02    0.459E-02
DAV:   4    -0.129154363850E+03   -0.80467E-04   -0.12531E-04   283   0.685E-02    0.769E-03
DAV:   5    -0.129154369664E+03   -0.58144E-05   -0.31542E-05   262   0.291E-02    0.578E-03
DAV:   6    -0.129154373923E+03   -0.42583E-05   -0.36513E-06   264   0.970E-03
  28 F= -.12915437E+03 E0= -.12915437E+03  d E =-.170615E-02
damped:  g(F)=  0.000E+00 g(S)=  0.000E+00 dE (1.order)= 0.000E+00
 bond charge predicted
       N       E                     dE             d eps       ncg     rms          rms(c)
DAV:   1    -0.129155032979E+03   -0.66331E-03   -0.62150E-01   330   0.404E+00    0.137E-01
DAV:   2    -0.129156327669E+03   -0.12947E-02   -0.15368E-02   355   0.545E-01    0.931E-02
DAV:   3    -0.129156274492E+03    0.53177E-04   -0.25736E-04   400   0.816E-02    0.584E-02
DAV:   4    -0.129156380933E+03   -0.10644E-03   -0.18565E-04   315   0.844E-02    0.975E-03
DAV:   5    -0.129156392467E+03   -0.11534E-04   -0.50822E-05   272   0.370E-02    0.757E-03
DAV:   6    -0.129156397786E+03   -0.53186E-05   -0.59972E-06   296   0.122E-02
  29 F= -.12915640E+03 E0= -.12915640E+03  d E =-.202386E-02
damped:  g(F)=  0.000E+00 g(S)=  0.000E+00 dE (1.order)= 0.000E+00
 bond charge predicted
       N       E                     dE             d eps       ncg     rms          rms(c)
DAV:   1    -0.129156811242E+03   -0.41877E-03   -0.96779E-01   330   0.503E+00    0.167E-01
DAV:   2    -0.129158831524E+03   -0.20203E-02   -0.24027E-02   364   0.678E-01    0.115E-01
DAV:   3    -0.129158748170E+03    0.83354E-04   -0.40480E-04   430   0.984E-02    0.717E-02
DAV:   4    -0.129158911687E+03   -0.16352E-03   -0.25853E-04   330   0.101E-01    0.111E-02
DAV:   5    -0.129158927698E+03   -0.16011E-04   -0.69311E-05   272   0.420E-02    0.921E-03
DAV:   6    -0.129158936073E+03   -0.83752E-05   -0.71538E-06   304   0.136E-02
  30 F= -.12915894E+03 E0= -.12915894E+03  d E =-.253829E-02
damped:  g(F)=  0.000E+00 g(S)=  0.000E+00 dE (1.order)= 0.000E+00
 bond charge predicted
       N       E                     dE             d eps       ncg     rms          rms(c)
DAV:   1    -0.129158736099E+03    0.19160E-03   -0.15161E+00   330   0.627E+00    0.206E-01
DAV:   2    -0.129161959129E+03   -0.32230E-02   -0.37744E-02   356   0.847E-01    0.143E-01
DAV:   3    -0.129161820437E+03    0.13869E-03   -0.64703E-04   424   0.123E-01    0.902E-02
DAV:   4    -0.129162047008E+03   -0.22657E-03   -0.42241E-04   426   0.128E-01    0.143E-02
DAV:   5    -0.129162070932E+03   -0.23924E-04   -0.10762E-04   336   0.507E-02    0.121E-02
DAV:   6    -0.129162080394E+03   -0.94620E-05   -0.51622E-06   240   0.125E-02
  31 F= -.12916208E+03 E0= -.12916208E+03  d E =-.314432E-02
damped:  g(F)=  0.000E+00 g(S)=  0.000E+00 dE (1.order)= 0.000E+00
 bond charge predicted
       N       E                     dE             d eps       ncg     rms          rms(c)
DAV:   1    -0.129160845035E+03    0.12259E-02   -0.23643E+00   330   0.781E+00    0.253E-01
DAV:   2    -0.129165857691E+03   -0.50127E-02   -0.58994E-02   364   0.105E+00    0.180E-01
DAV:   3    -0.129165596627E+03    0.26106E-03   -0.10603E-03   464   0.155E-01    0.114E-01
DAV:   4    -0.129165940920E+03   -0.34429E-03   -0.62008E-04   428   0.154E-01    0.190E-02
DAV:   5    -0.129165978775E+03   -0.37855E-04   -0.16927E-04   336   0.630E-02    0.152E-02
DAV:   6    -0.129165990921E+03   -0.12146E-04   -0.10033E-05   274   0.164E-02
  32 F= -.12916599E+03 E0= -.12916599E+03  d E =-.391053E-02
damped:  g(F)=  0.000E+00 g(S)=  0.000E+00 dE (1.order)= 0.000E+00
 bond charge predicted
       N       E                     dE             d eps       ncg     rms          rms(c)
DAV:   1    -0.129162598730E+03    0.33800E-02   -0.36695E+00   330   0.971E+00    0.314E-01
DAV:   2    -0.129170400049E+03   -0.78013E-02   -0.91772E-02   364   0.131E+00    0.222E-01
DAV:   3    -0.129170016668E+03    0.38338E-03   -0.16302E-03   464   0.188E-01    0.141E-01
DAV:   4    -0.129170487730E+03   -0.47106E-03   -0.94393E-04   426   0.191E-01    0.217E-02
DAV:   5    -0.129170545431E+03   -0.57701E-04   -0.26318E-04   368   0.774E-02    0.190E-02
DAV:   6    -0.129170567799E+03   -0.22368E-04   -0.13123E-05   296   0.203E-02
  33 F= -.12917057E+03 E0= -.12917057E+03  d E =-.457688E-02
damped:  g(F)=  0.000E+00 g(S)=  0.000E+00 dE (1.order)= 0.000E+00
 bond charge predicted
       N       E                     dE             d eps       ncg     rms          rms(c)
DAV:   1    -0.129162839984E+03    0.77054E-02   -0.54201E+00   330   0.118E+01    0.381E-01
DAV:   2    -0.129174676749E+03   -0.11837E-01   -0.13853E-01   364   0.161E+00    0.283E-01
DAV:   3    -0.129173971893E+03    0.70486E-03   -0.27150E-03   464   0.246E-01    0.185E-01
DAV:   4    -0.129174561168E+03   -0.58928E-03   -0.16209E-03   404   0.244E-01    0.344E-02
DAV:   5    -0.129174659251E+03   -0.98082E-04   -0.44253E-04   432   0.990E-02    0.244E-02
DAV:   6    -0.129174678006E+03   -0.18756E-04   -0.18982E-05   368   0.236E-02
  34 F= -.12917468E+03 E0= -.12917468E+03  d E =-.411021E-02
damped:  g(F)=  0.000E+00 g(S)=  0.000E+00 dE (1.order)= 0.000E+00
 bond charge predicted
       N       E                     dE             d eps       ncg     rms          rms(c)
DAV:   1    -0.129147298051E+03    0.27361E-01   -0.88990E+00   331   0.154E+01    0.583E-01
DAV:   2    -0.129168896824E+03   -0.21599E-01   -0.26649E-01   332   0.229E+00    0.396E-01
DAV:   3    -0.129167480459E+03    0.14164E-02   -0.53923E-03   448   0.358E-01    0.252E-01
DAV:   4    -0.129167704200E+03   -0.22374E-03   -0.37654E-03   395   0.357E-01    0.475E-02
DAV:   5    -0.129167832655E+03   -0.12846E-03   -0.92733E-04   464   0.144E-01    0.389E-02
DAV:   6    -0.129167875335E+03   -0.42680E-04   -0.36057E-05   344   0.322E-02
  35 F= -.12916788E+03 E0= -.12916788E+03  d E =0.680267E-02
damped:  g(F)=  0.000E+00 g(S)=  0.000E+00 dE (1.order)= 0.000E+00
 bond charge predicted
       N       E                     dE             d eps       ncg     rms          rms(c)
DAV:   1    -0.129178866655E+03   -0.11034E-01   -0.11692E+00   329   0.574E+00    0.372E-01
DAV:   2    -0.129182942417E+03   -0.40758E-02   -0.54501E-02   428   0.107E+00    0.212E-01
DAV:   3    -0.129182380683E+03    0.56173E-03   -0.14028E-03   456   0.208E-01    0.121E-01
DAV:   4    -0.129182166350E+03    0.21433E-03   -0.93537E-04   386   0.165E-01    0.268E-02
DAV:   5    -0.129182172464E+03   -0.61135E-05   -0.16600E-04   432   0.618E-02    0.153E-02
DAV:   6    -0.129182178474E+03   -0.60101E-05   -0.11689E-05   350   0.182E-02
  36 F= -.12918218E+03 E0= -.12918218E+03  d E =-.143031E-01
damped:  g(F)=  0.000E+00 g(S)=  0.000E+00 dE (1.order)= 0.000E+00
 bond charge predicted
       N       E                     dE             d eps       ncg     rms          rms(c)
DAV:   1    -0.129182302222E+03   -0.12976E-03   -0.11595E-03   421   0.180E-01    0.104E-02
DAV:   2    -0.129182314479E+03   -0.12257E-04   -0.36811E-05   368   0.296E-02    0.627E-03
DAV:   3    -0.129182323756E+03   -0.92776E-05   -0.33488E-06   329   0.950E-03    0.344E-03
DAV:   4    -0.129182337327E+03   -0.13571E-04   -0.10627E-06   335   0.532E-03    0.103E-03
DAV:   5    -0.129182347146E+03   -0.98192E-05   -0.40687E-07   354   0.286E-03    0.597E-04
DAV:   6    -0.129182354462E+03   -0.73160E-05   -0.19018E-07   326   0.187E-03
  37 F= -.12918235E+03 E0= -.12918235E+03  d E =-.175988E-03
damped:  g(F)=  0.000E+00 g(S)=  0.000E+00 dE (1.order)= 0.000E+00
 bond charge predicted
       N       E                     dE             d eps       ncg     rms          rms(c)
DAV:   1    -0.129182506990E+03   -0.15984E-03   -0.38728E-03   352   0.331E-01    0.166E-02
DAV:   2    -0.129182520555E+03   -0.13565E-04   -0.15325E-04   400   0.577E-02    0.108E-02
DAV:   3    -0.129182521137E+03   -0.58220E-06   -0.66181E-06   252   0.133E-02    0.668E-03
DAV:   4    -0.129182523871E+03   -0.27337E-05   -0.48623E-06   308   0.115E-02    0.174E-03
DAV:   5    -0.129182525061E+03   -0.11898E-05   -0.10979E-06   272   0.556E-03    0.851E-04
DAV:   6    -0.129182525881E+03   -0.82078E-06   -0.19605E-07   334   0.234E-03
  38 F= -.12918253E+03 E0= -.12918253E+03  d E =-.171419E-03
damped:  g(F)=  0.000E+00 g(S)=  0.000E+00 dE (1.order)= 0.000E+00
 bond charge predicted
       N       E                     dE             d eps       ncg     rms          rms(c)
DAV:   1    -0.129182625495E+03   -0.10043E-03   -0.62644E-03   356   0.416E-01    0.188E-02
DAV:   2    -0.129182641997E+03   -0.16502E-04   -0.22263E-04   308   0.688E-02    0.127E-02
DAV:   3    -0.129182640553E+03    0.14439E-05   -0.90607E-06   272   0.156E-02    0.807E-03
DAV:   4    -0.129182640062E+03    0.49122E-06   -0.72759E-06   264   0.141E-02    0.222E-03
DAV:   5    -0.129182640279E+03   -0.21702E-06   -0.15886E-06   272   0.672E-03    0.107E-03
DAV:   6    -0.129182640589E+03   -0.30998E-06   -0.28964E-07   234   0.281E-03
  39 F= -.12918264E+03 E0= -.12918264E+03  d E =-.114708E-03
damped:  g(F)=  0.000E+00 g(S)=  0.000E+00 dE (1.order)= 0.000E+00
 bond charge predicted
       N       E                     dE             d eps       ncg     rms          rms(c)
DAV:   1    -0.129182729553E+03   -0.89273E-04   -0.76202E-03   359   0.443E-01    0.163E-02
DAV:   2    -0.129182746021E+03   -0.16469E-04   -0.21635E-04   335   0.659E-02    0.116E-02
DAV:   3    -0.129182744999E+03    0.10225E-05   -0.82713E-06   270   0.146E-02    0.773E-03
DAV:   4    -0.129182745063E+03   -0.63925E-07   -0.60948E-06   236   0.139E-02    0.182E-03
DAV:   5    -0.129182745304E+03   -0.24146E-06   -0.15466E-06   270   0.618E-03    0.122E-03
DAV:   6    -0.129182745640E+03   -0.33596E-06   -0.34536E-07   210   0.278E-03
  40 F= -.12918275E+03 E0= -.12918275E+03  d E =-.105051E-03
damped:  g(F)=  0.000E+00 g(S)=  0.000E+00 dE (1.order)= 0.000E+00
 bond charge predicted
       N       E                     dE             d eps       ncg     rms          rms(c)
DAV:   1    -0.129182901421E+03   -0.15612E-03   -0.95875E-03   335   0.482E-01    0.158E-02
DAV:   2    -0.129182920433E+03   -0.19012E-04   -0.22935E-04   354   0.647E-02    0.110E-02
DAV:   3    -0.129182919745E+03    0.68858E-06   -0.62962E-06   206   0.125E-02    0.712E-03
DAV:   4    -0.129182921275E+03   -0.15306E-05   -0.41219E-06   234   0.114E-02    0.131E-03
DAV:   5    -0.129182921611E+03   -0.33595E-06   -0.12087E-06   179   0.519E-03    0.982E-04
DAV:   6    -0.129182921905E+03   -0.29409E-06   -0.22000E-07   193   0.201E-03
  41 F= -.12918292E+03 E0= -.12918292E+03  d E =-.176265E-03
damped:  g(F)=  0.000E+00 g(S)=  0.000E+00 dE (1.order)= 0.000E+00
 bond charge predicted
       N       E                     dE             d eps       ncg     rms          rms(c)
DAV:   1    -0.129183154281E+03   -0.23267E-03   -0.13558E-02   334   0.573E-01    0.194E-02
DAV:   2    -0.129183182346E+03   -0.28066E-04   -0.33376E-04   349   0.780E-02    0.134E-02
DAV:   3    -0.129183181168E+03    0.11782E-05   -0.85941E-06   272   0.148E-02    0.858E-03
DAV:   4    -0.129183182991E+03   -0.18224E-05   -0.60423E-06   277   0.132E-02    0.152E-03
DAV:   5    -0.129183183315E+03   -0.32476E-06   -0.12371E-06   272   0.550E-03    0.103E-03
DAV:   6    -0.129183183525E+03   -0.20920E-06   -0.18000E-07   240   0.206E-03
  42 F= -.12918318E+03 E0= -.12918318E+03  d E =-.261619E-03
damped:  g(F)=  0.000E+00 g(S)=  0.000E+00 dE (1.order)= 0.000E+00
 bond charge predicted
       N       E                     dE             d eps       ncg     rms          rms(c)
DAV:   1    -0.129183448696E+03   -0.26538E-03   -0.23745E-02   335   0.767E-01    0.272E-02
DAV:   2    -0.129183501026E+03   -0.52330E-04   -0.63255E-04   364   0.108E-01    0.191E-02
DAV:   3    -0.129183497140E+03    0.38860E-05   -0.10305E-05   272   0.180E-02    0.123E-02
DAV:   4    -0.129183498771E+03   -0.16313E-05   -0.11437E-05   232   0.189E-02    0.222E-03
DAV:   5    -0.129183499055E+03   -0.28386E-06   -0.26409E-06   272   0.825E-03    0.146E-03
DAV:   6    -0.129183499223E+03   -0.16762E-06   -0.32844E-07   220   0.300E-03
  43 F= -.12918350E+03 E0= -.12918350E+03  d E =-.315698E-03
damped:  g(F)=  0.000E+00 g(S)=  0.000E+00 dE (1.order)= 0.000E+00
 bond charge predicted
       N       E                     dE             d eps       ncg     rms          rms(c)
DAV:   1    -0.129183742208E+03   -0.24315E-03   -0.38100E-02   333   0.967E-01    0.331E-02
DAV:   2    -0.129183823504E+03   -0.81296E-04   -0.97728E-04   356   0.134E-01    0.238E-02
DAV:   3    -0.129183818127E+03    0.53772E-05   -0.14982E-05   271   0.203E-02    0.155E-02
DAV:   4    -0.129183821134E+03   -0.30064E-05   -0.17289E-05   201   0.243E-02    0.254E-03
DAV:   5    -0.129183821785E+03   -0.65189E-06   -0.54959E-06   272   0.110E-02    0.215E-03
DAV:   6    -0.129183822163E+03   -0.37803E-06   -0.99235E-07   200   0.426E-03
  44 F= -.12918382E+03 E0= -.12918382E+03  d E =-.322941E-03
damped:  g(F)=  0.000E+00 g(S)=  0.000E+00 dE (1.order)= 0.000E+00
 bond charge predicted
       N       E                     dE             d eps       ncg     rms          rms(c)
DAV:   1    -0.129184130385E+03   -0.30860E-03   -0.56570E-02   334   0.117E+00    0.377E-02
DAV:   2    -0.129184244347E+03   -0.11396E-03   -0.13510E-03   348   0.155E-01    0.273E-02
DAV:   3    -0.129184237970E+03    0.63764E-05   -0.19293E-05   264   0.226E-02    0.175E-02
DAV:   4    -0.129184245240E+03   -0.72699E-05   -0.26364E-05   264   0.271E-02    0.306E-03
DAV:   5    -0.129184246001E+03   -0.76103E-06   -0.50821E-06   264   0.112E-02    0.274E-03
DAV:   6    -0.129184246590E+03   -0.58841E-06   -0.54784E-07   202   0.408E-03
  45 F= -.12918425E+03 E0= -.12918425E+03  d E =-.424426E-03
damped:  g(F)=  0.000E+00 g(S)=  0.000E+00 dE (1.order)= 0.000E+00
 bond charge predicted
       N       E                     dE             d eps       ncg     rms          rms(c)
DAV:   1    -0.129184654706E+03   -0.40870E-03   -0.88707E-02   335   0.147E+00    0.475E-02
DAV:   2    -0.129184835689E+03   -0.18098E-03   -0.21676E-03   348   0.198E-01    0.352E-02
DAV:   3    -0.129184824733E+03    0.10956E-04   -0.38690E-05   368   0.289E-02    0.229E-02
DAV:   4    -0.129184834196E+03   -0.94637E-05   -0.34281E-05   296   0.345E-02    0.415E-03
DAV:   5    -0.129184835359E+03   -0.11628E-05   -0.86696E-06   272   0.146E-02    0.316E-03
DAV:   6    -0.129184836094E+03   -0.73484E-06   -0.97978E-07   272   0.490E-03
  46 F= -.12918484E+03 E0= -.12918484E+03  d E =-.589504E-03
damped:  g(F)=  0.000E+00 g(S)=  0.000E+00 dE (1.order)= 0.000E+00
 bond charge predicted
       N       E                     dE             d eps       ncg     rms          rms(c)
DAV:   1    -0.129185189466E+03   -0.35411E-03   -0.14135E-01   332   0.185E+00    0.606E-02
DAV:   2    -0.129185479641E+03   -0.29017E-03   -0.35050E-03   364   0.252E-01    0.447E-02
DAV:   3    -0.129185459619E+03    0.20022E-04   -0.62174E-05   344   0.371E-02    0.290E-02
DAV:   4    -0.129185476780E+03   -0.17162E-04   -0.55795E-05   281   0.440E-02    0.533E-03
DAV:   5    -0.129185478709E+03   -0.19290E-05   -0.14208E-05   272   0.188E-02    0.405E-03
DAV:   6    -0.129185480021E+03   -0.13115E-05   -0.16881E-06   238   0.649E-03
  47 F= -.12918548E+03 E0= -.12918548E+03  d E =-.643927E-03
damped:  g(F)=  0.000E+00 g(S)=  0.000E+00 dE (1.order)= 0.000E+00
 bond charge predicted
       N       E                     dE             d eps       ncg     rms          rms(c)
DAV:   1    -0.129185870711E+03   -0.39200E-03   -0.21007E-01   330   0.224E+00    0.724E-02
DAV:   2    -0.129186289433E+03   -0.41872E-03   -0.50113E-03   364   0.298E-01    0.523E-02
DAV:   3    -0.129186260700E+03    0.28733E-04   -0.88425E-05   368   0.428E-02    0.333E-02
DAV:   4    -0.129186297736E+03   -0.37036E-04   -0.69725E-05   290   0.497E-02    0.585E-03
DAV:   5    -0.129186300784E+03   -0.30474E-05   -0.18553E-05   272   0.213E-02    0.488E-03
DAV:   6    -0.129186302666E+03   -0.18824E-05   -0.25920E-06   202   0.814E-03
  48 F= -.12918630E+03 E0= -.12918630E+03  d E =-.822645E-03
damped:  g(F)=  0.000E+00 g(S)=  0.000E+00 dE (1.order)= 0.000E+00
 bond charge predicted
       N       E                     dE             d eps       ncg     rms          rms(c)
DAV:   1    -0.129186619648E+03   -0.31886E-03   -0.32450E-01   334   0.279E+00    0.913E-02
DAV:   2    -0.129187280019E+03   -0.66037E-03   -0.79229E-03   364   0.376E-01    0.664E-02
DAV:   3    -0.129187233019E+03    0.47000E-04   -0.14324E-04   368   0.547E-02    0.427E-02
DAV:   4    -0.129187295290E+03   -0.62271E-04   -0.11039E-04   299   0.624E-02    0.747E-03
DAV:   5    -0.129187300626E+03   -0.53364E-05   -0.28405E-05   272   0.263E-02    0.600E-03
DAV:   6    -0.129187303176E+03   -0.25496E-05   -0.43068E-06   310   0.101E-02
  49 F= -.12918730E+03 E0= -.12918730E+03  d E =-.100051E-02
damped:  g(F)=  0.000E+00 g(S)=  0.000E+00 dE (1.order)= 0.000E+00
 bond charge predicted
       N       E                     dE             d eps       ncg     rms          rms(c)
DAV:   1    -0.129187495814E+03   -0.19519E-03   -0.48639E-01   331   0.341E+00    0.110E-01
DAV:   2    -0.129188466060E+03   -0.97025E-03   -0.11610E-02   380   0.454E-01    0.793E-02
DAV:   3    -0.129188401411E+03    0.64649E-04   -0.19867E-04   367   0.647E-02    0.505E-02
DAV:   4    -0.129188496538E+03   -0.95127E-04   -0.15858E-04   324   0.751E-02    0.839E-03
DAV:   5    -0.129188503947E+03   -0.74091E-05   -0.41334E-05   272   0.314E-02    0.719E-03
DAV:   6    -0.129188508485E+03   -0.45379E-05   -0.53577E-06   266   0.113E-02
  50 F= -.12918851E+03 E0= -.12918851E+03  d E =-.120531E-02
damped:  g(F)=  0.000E+00 g(S)=  0.000E+00 dE (1.order)= 0.000E+00
 bond charge predicted
       N       E                     dE             d eps       ncg     rms          rms(c)
DAV:   1    -0.129188386709E+03    0.11724E-03   -0.74473E-01   331   0.422E+00    0.137E-01
DAV:   2    -0.129189908265E+03   -0.15216E-02   -0.18117E-02   364   0.568E-01    0.995E-02
DAV:   3    -0.129189817551E+03    0.90714E-04   -0.32537E-04   432   0.813E-02    0.638E-02
DAV:   4    -0.129189930430E+03   -0.11288E-03   -0.22437E-04   363   0.893E-02    0.110E-02
DAV:   5    -0.129189944126E+03   -0.13696E-04   -0.64403E-05   336   0.377E-02    0.926E-03
DAV:   6    -0.129189950102E+03   -0.59762E-05   -0.38671E-06   272   0.101E-02
  51 F= -.12918995E+03 E0= -.12918995E+03  d E =-.144162E-02
damped:  g(F)=  0.000E+00 g(S)=  0.000E+00 dE (1.order)= 0.000E+00
 bond charge predicted
       N       E                     dE             d eps       ncg     rms          rms(c)
DAV:   1    -0.129189456323E+03    0.48780E-03   -0.10888E+00   329   0.508E+00    0.165E-01
DAV:   2    -0.129191714793E+03   -0.22585E-02   -0.26308E-02   364   0.681E-01    0.120E-01
DAV:   3    -0.129191590002E+03    0.12479E-03   -0.48312E-04   432   0.976E-02    0.763E-02
DAV:   4    -0.129191758138E+03   -0.16814E-03   -0.31040E-04   388   0.105E-01    0.132E-02
DAV:   5    -0.129191780059E+03   -0.21921E-04   -0.88323E-05   336   0.446E-02    0.111E-02
DAV:   6    -0.129191786922E+03   -0.68625E-05   -0.76246E-06   302   0.136E-02
  52 F= -.12919179E+03 E0= -.12919179E+03  d E =-.183682E-02
damped:  g(F)=  0.000E+00 g(S)=  0.000E+00 dE (1.order)= 0.000E+00
 bond charge predicted
       N       E                     dE             d eps       ncg     rms          rms(c)
DAV:   1    -0.129190482812E+03    0.12972E-02   -0.16423E+00   331   0.623E+00    0.202E-01
DAV:   2    -0.129193854165E+03   -0.33714E-02   -0.39537E-02   372   0.832E-01    0.145E-01
DAV:   3    -0.129193674752E+03    0.17941E-03   -0.69949E-04   430   0.118E-01    0.923E-02
DAV:   4    -0.129193914060E+03   -0.23931E-03   -0.47945E-04   420   0.131E-01    0.157E-02
DAV:   5    -0.129193938431E+03   -0.24371E-04   -0.12685E-04   336   0.523E-02    0.135E-02
DAV:   6    -0.129193948502E+03   -0.10072E-04   -0.92288E-06   320   0.151E-02
  53 F= -.12919395E+03 E0= -.12919395E+03  d E =-.216158E-02
damped:  g(F)=  0.000E+00 g(S)=  0.000E+00 dE (1.order)= 0.000E+00
 bond charge predicted
       N       E                     dE             d eps       ncg     rms          rms(c)
DAV:   1    -0.129191228701E+03    0.27097E-02   -0.24815E+00   331   0.764E+00    0.249E-01
DAV:   2    -0.129196364165E+03   -0.51355E-02   -0.60331E-02   348   0.103E+00    0.179E-01
DAV:   3    -0.129196065884E+03    0.29828E-03   -0.10652E-03   464   0.146E-01    0.114E-01
DAV:   4    -0.129196424004E+03   -0.35812E-03   -0.68115E-04   428   0.156E-01    0.190E-02
DAV:   5    -0.129196459798E+03   -0.35794E-04   -0.18888E-04   360   0.632E-02    0.165E-02
DAV:   6    -0.129196473476E+03   -0.13679E-04   -0.11163E-05   312   0.172E-02
  54 F= -.12919647E+03 E0= -.12919647E+03  d E =-.252497E-02
damped:  g(F)=  0.000E+00 g(S)=  0.000E+00 dE (1.order)= 0.000E+00
 bond charge predicted
       N       E                     dE             d eps       ncg     rms          rms(c)
DAV:   1    -0.129191226085E+03    0.52337E-02   -0.35877E+00   331   0.919E+00    0.302E-01
DAV:   2    -0.129198866408E+03   -0.76403E-02   -0.89263E-02   340   0.125E+00    0.222E-01
DAV:   3    -0.129198395420E+03    0.47099E-03   -0.16793E-03   464   0.184E-01    0.143E-01
DAV:   4    -0.129198846210E+03   -0.45079E-03   -0.10195E-03   428   0.188E-01    0.246E-02
DAV:   5    -0.129198904399E+03   -0.58189E-04   -0.27569E-04   400   0.756E-02    0.199E-02
DAV:   6    -0.129198919310E+03   -0.14911E-04   -0.16978E-05   328   0.211E-02
  55 F= -.12919892E+03 E0= -.12919892E+03  d E =-.244583E-02
damped:  g(F)=  0.000E+00 g(S)=  0.000E+00 dE (1.order)= 0.000E+00
 bond charge predicted
       N       E                     dE             d eps       ncg     rms          rms(c)
DAV:   1    -0.129199671470E+03   -0.76707E-03   -0.12190E-01   329   0.181E+00    0.773E-02
DAV:   2    -0.129199993739E+03   -0.32227E-03   -0.38505E-03   427   0.276E-01    0.506E-02
DAV:   3    -0.129199972644E+03    0.21094E-04   -0.53458E-05   344   0.425E-02    0.307E-02
DAV:   4    -0.129199993275E+03   -0.20631E-04   -0.70962E-05   300   0.470E-02    0.562E-03
DAV:   5    -0.129200004021E+03   -0.10747E-04   -0.15243E-05   368   0.200E-02    0.351E-03
DAV:   6    -0.129200010830E+03   -0.68082E-05   -0.17294E-06   286   0.665E-03
  56 F= -.12920001E+03 E0= -.12920001E+03  d E =-.109152E-02
damped:  g(F)=  0.000E+00 g(S)=  0.000E+00 dE (1.order)= 0.000E+00
 bond charge predicted
       N       E                     dE             d eps       ncg     rms          rms(c)
DAV:   1    -0.129199625375E+03    0.37865E-03   -0.36138E-01   332   0.308E+00    0.114E-01
DAV:   2    -0.129200454483E+03   -0.82911E-03   -0.98944E-03   404   0.437E-01    0.782E-02
DAV:   3    -0.129200391807E+03    0.62677E-04   -0.11852E-04   368   0.620E-02    0.492E-02
DAV:   4    -0.129200421608E+03   -0.29801E-04   -0.15954E-04   280   0.730E-02    0.842E-03
DAV:   5    -0.129200429780E+03   -0.81728E-05   -0.36817E-05   368   0.311E-02    0.536E-03
DAV:   6    -0.129200433758E+03   -0.39778E-05   -0.33965E-06   252   0.941E-03
  57 F= -.12920043E+03 E0= -.12920043E+03  d E =-.422929E-03
damped:  g(F)=  0.000E+00 g(S)=  0.000E+00 dE (1.order)= 0.000E+00
 bond charge predicted
       N       E                     dE             d eps       ncg     rms          rms(c)
DAV:   1    -0.129200283882E+03    0.14590E-03   -0.62120E-01   333   0.401E+00    0.137E-01
DAV:   2    -0.129201587593E+03   -0.13037E-02   -0.15234E-02   396   0.538E-01    0.946E-02
DAV:   3    -0.129201509093E+03    0.78500E-04   -0.17548E-04   400   0.761E-02    0.586E-02
DAV:   4    -0.129201590466E+03   -0.81373E-04   -0.20103E-04   297   0.849E-02    0.973E-03
DAV:   5    -0.129201600173E+03   -0.97071E-05   -0.52747E-05   336   0.371E-02    0.706E-03
DAV:   6    -0.129201603072E+03   -0.28983E-05   -0.40827E-06   240   0.101E-02
  58 F= -.12920160E+03 E0= -.12920160E+03  d E =-.116931E-02
damped:  g(F)=  0.000E+00 g(S)=  0.000E+00 dE (1.order)= 0.000E+00
 bond charge predicted
       N       E                     dE             d eps       ncg     rms          rms(c)
DAV:   1    -0.129201484901E+03    0.11527E-03   -0.92775E-01   331   0.493E+00    0.169E-01
DAV:   2    -0.129203521365E+03   -0.20365E-02   -0.24001E-02   371   0.678E-01    0.123E-01
DAV:   3    -0.129203361973E+03    0.15939E-03   -0.31771E-04   432   0.999E-02    0.792E-02
DAV:   4    -0.129203490895E+03   -0.12892E-03   -0.33588E-04   348   0.108E-01    0.140E-02
DAV:   5    -0.129203502946E+03   -0.12051E-04   -0.82068E-05   400   0.450E-02    0.101E-02
DAV:   6    -0.129203506075E+03   -0.31285E-05   -0.46129E-06   264   0.110E-02
  59 F= -.12920351E+03 E0= -.12920351E+03  d E =-.190300E-02
damped:  g(F)=  0.000E+00 g(S)=  0.000E+00 dE (1.order)= 0.000E+00
 bond charge predicted
       N       E                     dE             d eps       ncg     rms          rms(c)
DAV:   1    -0.129202542997E+03    0.95995E-03   -0.11243E+00   330   0.541E+00    0.182E-01
DAV:   2    -0.129204940089E+03   -0.23971E-02   -0.28052E-02   420   0.730E-01    0.131E-01
DAV:   3    -0.129204762875E+03    0.17721E-03   -0.33622E-04   428   0.103E-01    0.828E-02
DAV:   4    -0.129204942495E+03   -0.17962E-03   -0.36170E-04   397   0.112E-01    0.139E-02
DAV:   5    -0.129204959215E+03   -0.16721E-04   -0.84007E-05   368   0.446E-02    0.102E-02
DAV:   6    -0.129204964602E+03   -0.53869E-05   -0.39990E-06   224   0.104E-02
  60 F= -.12920496E+03 E0= -.12920496E+03  d E =-.145853E-02
damped:  g(F)=  0.000E+00 g(S)=  0.000E+00 dE (1.order)= 0.000E+00
 bond charge predicted
       N       E                     dE             d eps       ncg     rms          rms(c)
DAV:   1    -0.129205051859E+03   -0.92644E-04   -0.10694E+00   329   0.526E+00    0.180E-01
DAV:   2    -0.129207335354E+03   -0.22835E-02   -0.26531E-02   397   0.708E-01    0.125E-01
DAV:   3    -0.129207184357E+03    0.15100E-03   -0.29743E-04   424   0.943E-02    0.789E-02
DAV:   4    -0.129207363423E+03   -0.17907E-03   -0.30760E-04   385   0.105E-01    0.121E-02
DAV:   5    -0.129207384287E+03   -0.20863E-04   -0.76166E-05   368   0.429E-02    0.980E-03
DAV:   6    -0.129207390812E+03   -0.65252E-05   -0.41087E-06   300   0.102E-02
  61 F= -.12920739E+03 E0= -.12920739E+03  d E =-.242621E-02
damped:  g(F)=  0.000E+00 g(S)=  0.000E+00 dE (1.order)= 0.000E+00
 bond charge predicted
       N       E                     dE             d eps       ncg     rms          rms(c)
DAV:   1    -0.129207431362E+03   -0.47076E-04   -0.23731E-04   342   0.790E-02    0.345E-03
DAV:   2    -0.129207436257E+03   -0.48942E-05   -0.79692E-06   302   0.150E-02    0.221E-03
DAV:   3    -0.129207439711E+03   -0.34543E-05   -0.80046E-07   254   0.488E-03    0.149E-03
DAV:   4    -0.129207446380E+03   -0.66691E-05   -0.53167E-07   274   0.313E-03    0.562E-04
DAV:   5    -0.129207449554E+03   -0.31737E-05   -0.13235E-07   304   0.169E-03    0.352E-04
DAV:   6    -0.129207452034E+03   -0.24806E-05   -0.47700E-08   202   0.937E-04
  62 F= -.12920745E+03 E0= -.12920745E+03  d E =-.612224E-04
damped:  g(F)=  0.000E+00 g(S)=  0.000E+00 dE (1.order)= 0.000E+00
 bond charge predicted
       N       E                     dE             d eps       ncg     rms          rms(c)
DAV:   1    -0.129207518427E+03   -0.68873E-04   -0.89143E-04   340   0.153E-01    0.592E-03
DAV:   2    -0.129207521492E+03   -0.30655E-05   -0.25868E-05   368   0.243E-02    0.397E-03
DAV:   3    -0.129207522215E+03   -0.72290E-06   -0.20523E-06   212   0.764E-03    0.261E-03
DAV:   4    -0.129207523711E+03   -0.14953E-05   -0.72830E-07   278   0.463E-03    0.894E-04
DAV:   5    -0.129207524610E+03   -0.89956E-06   -0.17438E-07   270   0.252E-03    0.391E-04
DAV:   6    -0.129207525106E+03   -0.49587E-06   -0.27890E-08   202   0.110E-03
  63 F= -.12920753E+03 E0= -.12920753E+03  d E =-.730717E-04
damped:  g(F)=  0.000E+00 g(S)=  0.000E+00 dE (1.order)= 0.000E+00
 bond charge predicted
       N       E                     dE             d eps       ncg     rms          rms(c)
DAV:   1    -0.129207616530E+03   -0.91920E-04   -0.17951E-03   372   0.218E-01    0.827E-03
DAV:   2    -0.129207620238E+03   -0.37080E-05   -0.44153E-05   239   0.314E-02    0.549E-03
DAV:   3    -0.129207620539E+03   -0.30121E-06   -0.41944E-06   218   0.104E-02    0.350E-03
DAV:   4    -0.129207621292E+03   -0.75296E-06   -0.16995E-06   292   0.638E-03    0.111E-03
DAV:   5    -0.129207621495E+03   -0.20350E-06   -0.26640E-07   238   0.297E-03    0.558E-04
DAV:   6    -0.129207621690E+03   -0.19437E-06   -0.50668E-08   208   0.141E-03
  64 F= -.12920762E+03 E0= -.12920762E+03  d E =-.965838E-04
damped:  g(F)=  0.000E+00 g(S)=  0.000E+00 dE (1.order)= 0.000E+00
 bond charge predicted
       N       E                     dE             d eps       ncg     rms          rms(c)
DAV:   1    -0.129207743496E+03   -0.12200E-03   -0.27970E-03   357   0.275E-01    0.101E-02
DAV:   2    -0.129207749003E+03   -0.55070E-05   -0.69518E-05   268   0.391E-02    0.668E-03
DAV:   3    -0.129207748965E+03    0.38115E-07   -0.43283E-06   206   0.102E-02    0.431E-03
DAV:   4    -0.129207749627E+03   -0.66142E-06   -0.22255E-06   234   0.798E-03    0.125E-03
DAV:   5    -0.129207749713E+03   -0.85885E-07   -0.60346E-07   221   0.402E-03    0.777E-04
DAV:   6    -0.129207749815E+03   -0.10293E-06   -0.15256E-07   207   0.180E-03
  65 F= -.12920775E+03 E0= -.12920775E+03  d E =-.128126E-03
damped:  g(F)=  0.000E+00 g(S)=  0.000E+00 dE (1.order)= 0.000E+00
 bond charge predicted
       N       E                     dE             d eps       ncg     rms          rms(c)
DAV:   1    -0.129207905804E+03   -0.15609E-03   -0.40227E-03   342   0.329E-01    0.118E-02
DAV:   2    -0.129207913556E+03   -0.77526E-05   -0.98491E-05   268   0.459E-02    0.765E-03
DAV:   3    -0.129207913397E+03    0.15911E-06   -0.57884E-06   192   0.116E-02    0.487E-03
DAV:   4    -0.129207914326E+03   -0.92861E-06   -0.27835E-06   237   0.882E-03    0.129E-03
DAV:   5    -0.129207914421E+03   -0.95235E-07   -0.81522E-07   164   0.442E-03    0.856E-04
DAV:   6    -0.129207914513E+03   -0.92320E-07   -0.22785E-07   174   0.203E-03
  66 F= -.12920791E+03 E0= -.12920791E+03  d E =-.164698E-03
damped:  g(F)=  0.000E+00 g(S)=  0.000E+00 dE (1.order)= 0.000E+00
 bond charge predicted
       N       E                     dE             d eps       ncg     rms          rms(c)
DAV:   1    -0.129208108768E+03   -0.19435E-03   -0.60388E-03   333   0.394E-01    0.139E-02
DAV:   2    -0.129208120248E+03   -0.11480E-04   -0.14362E-04   245   0.536E-02    0.895E-03
DAV:   3    -0.129208119795E+03    0.45307E-06   -0.77436E-06   200   0.131E-02    0.563E-03
DAV:   4    -0.129208121585E+03   -0.17901E-05   -0.35016E-06   237   0.971E-03    0.129E-03
DAV:   5    -0.129208121745E+03   -0.15974E-06   -0.11046E-06   164   0.481E-03    0.904E-04
DAV:   6    -0.129208121858E+03   -0.11360E-06   -0.31835E-07   175   0.218E-03
  67 F= -.12920812E+03 E0= -.12920812E+03  d E =-.207345E-03
damped:  g(F)=  0.000E+00 g(S)=  0.000E+00 dE (1.order)= 0.000E+00
 bond charge predicted
       N       E                     dE             d eps       ncg     rms          rms(c)
DAV:   1    -0.129208377705E+03   -0.25596E-03   -0.11258E-02   330   0.528E-01    0.185E-02
DAV:   2    -0.129208400140E+03   -0.22435E-04   -0.27562E-04   324   0.704E-02    0.123E-02
DAV:   3    -0.129208398377E+03    0.17624E-05   -0.57739E-06   237   0.131E-02    0.772E-03
DAV:   4    -0.129208401704E+03   -0.33266E-05   -0.51079E-06   228   0.129E-02    0.151E-03
DAV:   5    -0.129208401910E+03   -0.20557E-06   -0.14451E-06   176   0.582E-03    0.115E-03
DAV:   6    -0.129208402070E+03   -0.16062E-06   -0.23715E-07   188   0.215E-03
  68 F= -.12920840E+03 E0= -.12920840E+03  d E =-.280212E-03
damped:  g(F)=  0.000E+00 g(S)=  0.000E+00 dE (1.order)= 0.000E+00
 bond charge predicted
       N       E                     dE             d eps       ncg     rms          rms(c)
DAV:   1    -0.129208729049E+03   -0.32714E-03   -0.20257E-02   336   0.702E-01    0.244E-02
DAV:   2    -0.129208770967E+03   -0.41918E-04   -0.49531E-04   356   0.930E-02    0.164E-02
DAV:   3    -0.129208768808E+03    0.21586E-05   -0.80935E-06   238   0.158E-02    0.102E-02
DAV:   4    -0.129208773652E+03   -0.48444E-05   -0.77140E-06   228   0.158E-02    0.177E-03
DAV:   5    -0.129208774189E+03   -0.53685E-06   -0.21877E-06   222   0.725E-03    0.122E-03
DAV:   6    -0.129208774366E+03   -0.17674E-06   -0.26312E-07   166   0.239E-03
  69 F= -.12920877E+03 E0= -.12920877E+03  d E =-.372296E-03
damped:  g(F)=  0.000E+00 g(S)=  0.000E+00 dE (1.order)= 0.000E+00
 bond charge predicted
       N       E                     dE             d eps       ncg     rms          rms(c)
DAV:   1    -0.129209184243E+03   -0.41005E-03   -0.34636E-02   335   0.913E-01    0.314E-02
DAV:   2    -0.129209257050E+03   -0.72807E-04   -0.84826E-04   388   0.120E-01    0.216E-02
DAV:   3    -0.129209251187E+03    0.58624E-05   -0.80607E-06   222   0.165E-02    0.136E-02
DAV:   4    -0.129209261090E+03   -0.99023E-05   -0.12690E-05   235   0.206E-02    0.215E-03
DAV:   5    -0.129209261777E+03   -0.68769E-06   -0.37620E-06   213   0.926E-03    0.158E-03
DAV:   6    -0.129209262013E+03   -0.23552E-06   -0.44438E-07   174   0.293E-03
  70 F= -.12920926E+03 E0= -.12920926E+03  d E =-.487647E-03
damped:  g(F)=  0.000E+00 g(S)=  0.000E+00 dE (1.order)= 0.000E+00
 bond charge predicted
       N       E                     dE             d eps       ncg     rms          rms(c)
DAV:   1    -0.129209761972E+03   -0.50019E-03   -0.56105E-02   331   0.116E+00    0.393E-02
DAV:   2    -0.129209877040E+03   -0.11507E-03   -0.13679E-03   396   0.151E-01    0.273E-02
DAV:   3    -0.129209866760E+03    0.10280E-04   -0.12384E-05   243   0.204E-02    0.172E-02
DAV:   4    -0.129209881930E+03   -0.15170E-04   -0.19315E-05   228   0.251E-02    0.261E-03
DAV:   5    -0.129209882997E+03   -0.10673E-05   -0.58454E-06   218   0.113E-02    0.194E-03
DAV:   6    -0.129209883379E+03   -0.38180E-06   -0.70711E-07   165   0.358E-03
  71 F= -.12920988E+03 E0= -.12920988E+03  d E =-.621366E-03
damped:  g(F)=  0.000E+00 g(S)=  0.000E+00 dE (1.order)= 0.000E+00
 bond charge predicted
       N       E                     dE             d eps       ncg     rms          rms(c)
DAV:   1    -0.129210479271E+03   -0.59627E-03   -0.86192E-02   329   0.144E+00    0.482E-02
DAV:   2    -0.129210656932E+03   -0.17766E-03   -0.21019E-03   396   0.188E-01    0.336E-02
DAV:   3    -0.129210642086E+03    0.14846E-04   -0.18440E-05   254   0.248E-02    0.212E-02
DAV:   4    -0.129210663276E+03   -0.21190E-04   -0.31321E-05   241   0.306E-02    0.338E-03
DAV:   5    -0.129210664760E+03   -0.14839E-05   -0.74816E-06   247   0.132E-02    0.240E-03
DAV:   6    -0.129210665334E+03   -0.57355E-06   -0.68234E-07   208   0.402E-03
  72 F= -.12921067E+03 E0= -.12921067E+03  d E =-.781954E-03
damped:  g(F)=  0.000E+00 g(S)=  0.000E+00 dE (1.order)= 0.000E+00
 bond charge predicted
       N       E                     dE             d eps       ncg     rms          rms(c)
DAV:   1    -0.129211348780E+03   -0.68402E-03   -0.12698E-01   328   0.176E+00    0.579E-02
DAV:   2    -0.129211612081E+03   -0.26330E-03   -0.30854E-03   364   0.231E-01    0.406E-02
DAV:   3    -0.129211595023E+03    0.17058E-04   -0.46876E-05   336   0.324E-02    0.256E-02
DAV:   4    -0.129211621146E+03   -0.26124E-04   -0.38975E-05   232   0.376E-02    0.388E-03
DAV:   5    -0.129211622916E+03   -0.17698E-05   -0.11365E-05   272   0.162E-02    0.327E-03
DAV:   6    -0.129211624099E+03   -0.11828E-05   -0.10036E-06   202   0.517E-03
  73 F= -.12921162E+03 E0= -.12921162E+03  d E =-.958765E-03
damped:  g(F)=  0.000E+00 g(S)=  0.000E+00 dE (1.order)= 0.000E+00
 bond charge predicted
       N       E                     dE             d eps       ncg     rms          rms(c)
DAV:   1    -0.129212368111E+03   -0.74519E-03   -0.18084E-01   329   0.212E+00    0.684E-02
DAV:   2    -0.129212749868E+03   -0.38176E-03   -0.44077E-03   364   0.281E-01    0.484E-02
DAV:   3    -0.129212726585E+03    0.23283E-04   -0.68980E-05   367   0.393E-02    0.306E-02
DAV:   4    -0.129212760351E+03   -0.33766E-04   -0.55194E-05   243   0.457E-02    0.454E-03
DAV:   5    -0.129212762948E+03   -0.25973E-05   -0.16430E-05   263   0.197E-02    0.387E-03
DAV:   6    -0.129212764601E+03   -0.16529E-05   -0.14632E-06   232   0.627E-03
  74 F= -.12921276E+03 E0= -.12921276E+03  d E =-.114050E-02
damped:  g(F)=  0.000E+00 g(S)=  0.000E+00 dE (1.order)= 0.000E+00
 bond charge predicted
       N       E                     dE             d eps       ncg     rms          rms(c)
DAV:   1    -0.129213528330E+03   -0.76538E-03   -0.25584E-01   330   0.255E+00    0.808E-02
DAV:   2    -0.129214068816E+03   -0.54049E-03   -0.62581E-03   364   0.338E-01    0.575E-02
DAV:   3    -0.129214033581E+03    0.35235E-04   -0.99844E-05   367   0.476E-02    0.365E-02
DAV:   4    -0.129214078572E+03   -0.44991E-04   -0.79729E-05   299   0.552E-02    0.542E-03
DAV:   5    -0.129214082108E+03   -0.35359E-05   -0.22303E-05   272   0.233E-02    0.469E-03
DAV:   6    -0.129214084222E+03   -0.21138E-05   -0.21151E-06   232   0.764E-03
  75 F= -.12921408E+03 E0= -.12921408E+03  d E =-.131962E-02
damped:  g(F)=  0.000E+00 g(S)=  0.000E+00 dE (1.order)= 0.000E+00
 bond charge predicted
       N       E                     dE             d eps       ncg     rms          rms(c)
DAV:   1    -0.129214794461E+03   -0.71235E-03   -0.36964E-01   330   0.307E+00    0.967E-02
DAV:   2    -0.129215571018E+03   -0.77656E-03   -0.90476E-03   364   0.409E-01    0.689E-02
DAV:   3    -0.129215523676E+03    0.47341E-04   -0.14386E-04   366   0.573E-02    0.438E-02
DAV:   4    -0.129215579475E+03   -0.55799E-04   -0.11578E-04   291   0.666E-02    0.661E-03
DAV:   5    -0.129215584551E+03   -0.50763E-05   -0.32293E-05   272   0.282E-02    0.575E-03
DAV:   6    -0.129215587817E+03   -0.32653E-05   -0.35416E-06   264   0.959E-03
  76 F= -.12921559E+03 E0= -.12921559E+03  d E =-.150359E-02
damped:  g(F)=  0.000E+00 g(S)=  0.000E+00 dE (1.order)= 0.000E+00
 bond charge predicted
       N       E                     dE             d eps       ncg     rms          rms(c)
DAV:   1    -0.129216142621E+03   -0.55807E-03   -0.55165E-01   330   0.375E+00    0.118E-01
DAV:   2    -0.129217307180E+03   -0.11646E-02   -0.13509E-02   364   0.501E-01    0.841E-02
DAV:   3    -0.129217241474E+03    0.65706E-04   -0.21778E-04   398   0.698E-02    0.536E-02
DAV:   4    -0.129217311581E+03   -0.70107E-04   -0.16284E-04   331   0.802E-02    0.808E-03
DAV:   5    -0.129217319701E+03   -0.81199E-05   -0.47935E-05   272   0.344E-02    0.721E-03
DAV:   6    -0.129217324468E+03   -0.47676E-05   -0.54495E-06   264   0.115E-02
  77 F= -.12921732E+03 E0= -.12921732E+03  d E =-.173665E-02
damped:  g(F)=  0.000E+00 g(S)=  0.000E+00 dE (1.order)= 0.000E+00
 bond charge predicted
       N       E                     dE             d eps       ncg     rms          rms(c)
DAV:   1    -0.129217641636E+03   -0.32194E-03   -0.83404E-01   330   0.461E+00    0.145E-01
DAV:   2    -0.129219407671E+03   -0.17660E-02   -0.20402E-02   364   0.615E-01    0.103E-01
DAV:   3    -0.129219307514E+03    0.10016E-03   -0.32984E-04   398   0.855E-02    0.658E-02
DAV:   4    -0.129219410340E+03   -0.10283E-03   -0.25254E-04   364   0.982E-02    0.101E-02
DAV:   5    -0.129219421526E+03   -0.11186E-04   -0.66248E-05   272   0.395E-02    0.875E-03
DAV:   6    -0.129219428443E+03   -0.69172E-05   -0.71161E-06   296   0.133E-02
  78 F= -.12921943E+03 E0= -.12921943E+03  d E =-.210397E-02
damped:  g(F)=  0.000E+00 g(S)=  0.000E+00 dE (1.order)= 0.000E+00
 bond charge predicted
       N       E                     dE             d eps       ncg     rms          rms(c)
DAV:   1    -0.129219367704E+03    0.53823E-04   -0.12625E+00   330   0.567E+00    0.178E-01
DAV:   2    -0.129222050689E+03   -0.26830E-02   -0.30839E-02   364   0.755E-01    0.127E-01
DAV:   3    -0.129221901669E+03    0.14902E-03   -0.51747E-04   430   0.105E-01    0.806E-02
DAV:   4    -0.129222045571E+03   -0.14390E-03   -0.34232E-04   396   0.115E-01    0.121E-02
DAV:   5    -0.129222063348E+03   -0.17776E-04   -0.99066E-05   336   0.476E-02    0.111E-02
DAV:   6    -0.129222071808E+03   -0.84602E-05   -0.65401E-06   304   0.133E-02
  79 F= -.12922207E+03 E0= -.12922207E+03  d E =-.264336E-02
damped:  g(F)=  0.000E+00 g(S)=  0.000E+00 dE (1.order)= 0.000E+00
 bond charge predicted
       N       E                     dE             d eps       ncg     rms          rms(c)
DAV:   1    -0.129221328429E+03    0.73492E-03   -0.19071E+00   330   0.696E+00    0.219E-01
DAV:   2    -0.129225389415E+03   -0.40610E-02   -0.46594E-02   364   0.925E-01    0.156E-01
DAV:   3    -0.129225172842E+03    0.21657E-03   -0.78310E-04   430   0.129E-01    0.992E-02
DAV:   4    -0.129225378873E+03   -0.20603E-03   -0.52640E-04   428   0.141E-01    0.152E-02
DAV:   5    -0.129225404195E+03   -0.25322E-04   -0.14148E-04   336   0.557E-02    0.135E-02
DAV:   6    -0.129225416431E+03   -0.12235E-04   -0.90819E-06   320   0.156E-02
  80 F= -.12922542E+03 E0= -.12922542E+03  d E =-.334462E-02
damped:  g(F)=  0.000E+00 g(S)=  0.000E+00 dE (1.order)= 0.000E+00
 bond charge predicted
       N       E                     dE             d eps       ncg     rms          rms(c)
DAV:   1    -0.129223375137E+03    0.20291E-02   -0.27849E+00   330   0.842E+00    0.264E-01
DAV:   2    -0.129229337744E+03   -0.59626E-02   -0.68226E-02   364   0.112E+00    0.190E-01
DAV:   3    -0.129229018063E+03    0.31968E-03   -0.11901E-03   463   0.158E-01    0.120E-01
DAV:   4    -0.129229309280E+03   -0.29122E-03   -0.73597E-04   428   0.168E-01    0.183E-02
DAV:   5    -0.129229346896E+03   -0.37616E-04   -0.20972E-04   400   0.667E-02    0.168E-02
DAV:   6    -0.129229360156E+03   -0.13261E-04   -0.77864E-06   320   0.160E-02
  81 F= -.12922936E+03 E0= -.12922936E+03  d E =-.394373E-02
damped:  g(F)=  0.000E+00 g(S)=  0.000E+00 dE (1.order)= 0.000E+00
 bond charge predicted
       N       E                     dE             d eps       ncg     rms          rms(c)
DAV:   1    -0.129225089612E+03    0.42573E-02   -0.36983E+00   330   0.974E+00    0.311E-01
DAV:   2    -0.129233063218E+03   -0.79736E-02   -0.92492E-02   364   0.132E+00    0.221E-01
DAV:   3    -0.129232643168E+03    0.42005E-03   -0.15908E-03   456   0.186E-01    0.143E-01
DAV:   4    -0.129233008320E+03   -0.36515E-03   -0.10370E-03   428   0.197E-01    0.251E-02
DAV:   5    -0.129233060807E+03   -0.52487E-04   -0.30597E-04   432   0.825E-02    0.205E-02
DAV:   6    -0.129233078460E+03   -0.17653E-04   -0.13061E-05   298   0.194E-02
  82 F= -.12923308E+03 E0= -.12923308E+03  d E =-.371830E-02
damped:  g(F)=  0.000E+00 g(S)=  0.000E+00 dE (1.order)= 0.000E+00
 bond charge predicted
       N       E                     dE             d eps       ncg     rms          rms(c)
DAV:   1    -0.129220486724E+03    0.12574E-01   -0.50919E+00   330   0.115E+01    0.397E-01
DAV:   2    -0.129232547863E+03   -0.12061E-01   -0.14230E-01   340   0.166E+00    0.295E-01
DAV:   3    -0.129231716155E+03    0.83171E-03   -0.30535E-03   464   0.265E-01    0.192E-01
DAV:   4    -0.129231955058E+03   -0.23890E-03   -0.20201E-03   428   0.263E-01    0.372E-02
DAV:   5    -0.129232027624E+03   -0.72566E-04   -0.49726E-04   432   0.106E-01    0.259E-02
DAV:   6    -0.129232043788E+03   -0.16164E-04   -0.28055E-05   358   0.281E-02
  83 F= -.12923204E+03 E0= -.12923204E+03  d E =0.103467E-02
damped:  g(F)=  0.000E+00 g(S)=  0.000E+00 dE (1.order)= 0.000E+00
 bond charge predicted
       N       E                     dE             d eps       ncg     rms          rms(c)
DAV:   1    -0.129236152673E+03   -0.41250E-02   -0.48378E-01   330   0.371E+00    0.230E-01
DAV:   2    -0.129237803475E+03   -0.16508E-02   -0.23041E-02   427   0.695E-01    0.138E-01
DAV:   3    -0.129237556728E+03    0.24675E-03   -0.61459E-04   440   0.138E-01    0.785E-02
DAV:   4    -0.129237469518E+03    0.87210E-04   -0.40174E-04   360   0.107E-01    0.173E-02
DAV:   5    -0.129237479188E+03   -0.96700E-05   -0.69662E-05   368   0.410E-02    0.965E-03
DAV:   6    -0.129237487986E+03   -0.87984E-05   -0.89949E-06   368   0.155E-02
  84 F= -.12923749E+03 E0= -.12923749E+03  d E =-.544420E-02
damped:  g(F)=  0.000E+00 g(S)=  0.000E+00 dE (1.order)= 0.000E+00
 bond charge predicted
       N       E                     dE             d eps       ncg     rms          rms(c)
DAV:   1    -0.129237569179E+03   -0.89991E-04   -0.89427E-04   452   0.157E-01    0.985E-03
DAV:   2    -0.129237579509E+03   -0.10330E-04   -0.31050E-05   368   0.266E-02    0.564E-03
DAV:   3    -0.129237586743E+03   -0.72343E-05   -0.28696E-06   294   0.859E-03    0.299E-03
DAV:   4    -0.129237596671E+03   -0.99279E-05   -0.95643E-07   365   0.456E-03    0.913E-04
DAV:   5    -0.129237604061E+03   -0.73893E-05   -0.39001E-07   368   0.248E-03    0.433E-04
DAV:   6    -0.129237608265E+03   -0.42048E-05   -0.12157E-07   254   0.145E-03
  85 F= -.12923761E+03 E0= -.12923761E+03  d E =-.120279E-03
damped:  g(F)=  0.000E+00 g(S)=  0.000E+00 dE (1.order)= 0.000E+00
 bond charge predicted
       N       E                     dE             d eps       ncg     rms          rms(c)
DAV:   1    -0.129237682253E+03   -0.78192E-04   -0.27754E-03   338   0.279E-01    0.162E-02
DAV:   2    -0.129237693165E+03   -0.10913E-04   -0.11781E-04   400   0.502E-02    0.959E-03
DAV:   3    -0.129237693521E+03   -0.35597E-06   -0.54148E-06   220   0.120E-02    0.567E-03
DAV:   4    -0.129237695360E+03   -0.18390E-05   -0.34492E-06   325   0.954E-03    0.141E-03
DAV:   5    -0.129237696250E+03   -0.89017E-06   -0.80362E-07   272   0.467E-03    0.697E-04
DAV:   6    -0.129237696728E+03   -0.47747E-06   -0.14347E-07   224   0.196E-03
  86 F= -.12923770E+03 E0= -.12923770E+03  d E =-.884623E-04
damped:  g(F)=  0.000E+00 g(S)=  0.000E+00 dE (1.order)= 0.000E+00
 bond charge predicted
       N       E                     dE             d eps       ncg     rms          rms(c)
DAV:   1    -0.129237713747E+03   -0.17497E-04   -0.38519E-03   357   0.328E-01    0.177E-02
DAV:   2    -0.129237725684E+03   -0.11937E-04   -0.15386E-04   349   0.574E-02    0.109E-02
DAV:   3    -0.129237724440E+03    0.12446E-05   -0.68546E-06   256   0.135E-02    0.654E-03
DAV:   4    -0.129237723869E+03    0.57039E-06   -0.44237E-06   264   0.110E-02    0.165E-03
DAV:   5    -0.129237723952E+03   -0.82513E-07   -0.10292E-06   272   0.541E-03    0.810E-04
DAV:   6    -0.129237724109E+03   -0.15693E-06   -0.16960E-07   272   0.225E-03
  87 F= -.12923772E+03 E0= -.12923772E+03  d E =-.273812E-04
damped:  g(F)=  0.000E+00 g(S)=  0.000E+00 dE (1.order)= 0.000E+00
 bond charge predicted
       N       E                     dE             d eps       ncg     rms          rms(c)
DAV:   1    -0.129237733369E+03   -0.94169E-05   -0.33214E-03   373   0.298E-01    0.129E-02
DAV:   2    -0.129237741860E+03   -0.84908E-05   -0.10894E-04   368   0.475E-02    0.876E-03
DAV:   3    -0.129237741031E+03    0.82855E-06   -0.41068E-06   252   0.104E-02    0.555E-03
DAV:   4    -0.129237740761E+03    0.27017E-06   -0.28329E-06   211   0.925E-03    0.130E-03
DAV:   5    -0.129237740880E+03   -0.11914E-06   -0.67394E-07   270   0.445E-03    0.669E-04
DAV:   6    -0.129237741069E+03   -0.18905E-06   -0.99682E-08   202   0.178E-03
  88 F= -.12923774E+03 E0= -.12923774E+03  d E =-.169603E-04
damped:  g(F)=  0.000E+00 g(S)=  0.000E+00 dE (1.order)= 0.000E+00
 bond charge predicted
       N       E                     dE             d eps       ncg     rms          rms(c)
DAV:   1    -0.129237822503E+03   -0.81623E-04   -0.32480E-03   334   0.286E-01    0.969E-03
DAV:   2    -0.129237828838E+03   -0.63345E-05   -0.76311E-05   299   0.390E-02    0.655E-03
DAV:   3    -0.129237828968E+03   -0.13017E-06   -0.43303E-06   165   0.943E-03    0.420E-03
DAV:   4    -0.129237829707E+03   -0.73925E-06   -0.17674E-06   232   0.687E-03    0.827E-04
DAV:   5    -0.129237829937E+03   -0.22927E-06   -0.58254E-07   168   0.336E-03    0.611E-04
DAV:   6    -0.129237830159E+03   -0.22204E-06   -0.16292E-07   213   0.160E-03
  89 F= -.12923783E+03 E0= -.12923783E+03  d E =-.890894E-04
damped:  g(F)=  0.000E+00 g(S)=  0.000E+00 dE (1.order)= 0.000E+00
 bond charge predicted
       N       E                     dE             d eps       ncg     rms          rms(c)
DAV:   1    -0.129238005499E+03   -0.17556E-03   -0.50565E-03   330   0.364E-01    0.128E-02
DAV:   2    -0.129238016071E+03   -0.10572E-04   -0.13045E-04   340   0.505E-02    0.850E-03
DAV:   3    -0.129238015764E+03    0.30667E-06   -0.37300E-06   264   0.103E-02    0.529E-03
DAV:   4    -0.129238016482E+03   -0.71803E-06   -0.23883E-06   274   0.838E-03    0.107E-03
DAV:   5    -0.129238016697E+03   -0.21498E-06   -0.44376E-07   272   0.355E-03    0.631E-04
DAV:   6    -0.129238016819E+03   -0.12220E-06   -0.29511E-08   208   0.135E-03
  90 F= -.12923802E+03 E0= -.12923802E+03  d E =-.186661E-03
damped:  g(F)=  0.000E+00 g(S)=  0.000E+00 dE (1.order)= 0.000E+00
 bond charge predicted
       N       E                     dE             d eps       ncg     rms          rms(c)
DAV:   1    -0.129238273524E+03   -0.25683E-03   -0.11141E-02   335   0.538E-01    0.206E-02
DAV:   2    -0.129238297575E+03   -0.24051E-04   -0.30897E-04   324   0.772E-02    0.135E-02
DAV:   3    -0.129238296000E+03    0.15758E-05   -0.97049E-06   264   0.164E-02    0.839E-03
DAV:   4    -0.129238296021E+03   -0.21695E-07   -0.64916E-06   266   0.135E-02    0.176E-03
DAV:   5    -0.129238296225E+03   -0.20327E-06   -0.12812E-06   272   0.587E-03    0.101E-03
DAV:   6    -0.129238296373E+03   -0.14803E-06   -0.17234E-07   222   0.228E-03
  91 F= -.12923830E+03 E0= -.12923830E+03  d E =-.279553E-03
damped:  g(F)=  0.000E+00 g(S)=  0.000E+00 dE (1.order)= 0.000E+00
 bond charge predicted
       N       E                     dE             d eps       ncg     rms          rms(c)
DAV:   1    -0.129238607751E+03   -0.31153E-03   -0.23265E-02   333   0.759E-01    0.284E-02
DAV:   2    -0.129238658020E+03   -0.50268E-04   -0.62155E-04   364   0.105E-01    0.192E-02
DAV:   3    -0.129238654466E+03    0.35535E-05   -0.89387E-06   272   0.165E-02    0.122E-02
DAV:   4    -0.129238655245E+03   -0.77929E-06   -0.11159E-05   200   0.189E-02    0.215E-03
DAV:   5    -0.129238655787E+03   -0.54180E-06   -0.31925E-06   256   0.862E-03    0.158E-03
DAV:   6    -0.129238656187E+03   -0.40023E-06   -0.50537E-07   208   0.332E-03
  92 F= -.12923866E+03 E0= -.12923866E+03  d E =-.359815E-03
damped:  g(F)=  0.000E+00 g(S)=  0.000E+00 dE (1.order)= 0.000E+00
 bond charge predicted
       N       E                     dE             d eps       ncg     rms          rms(c)
DAV:   1    -0.129239093285E+03   -0.43750E-03   -0.49376E-02   334   0.108E+00    0.385E-02
DAV:   2    -0.129239195726E+03   -0.10244E-03   -0.12121E-03   379   0.141E-01    0.260E-02
DAV:   3    -0.129239189974E+03    0.57514E-05   -0.11915E-05   239   0.199E-02    0.162E-02
DAV:   4    -0.129239194748E+03   -0.47735E-05   -0.19007E-05   256   0.233E-02    0.282E-03
DAV:   5    -0.129239195763E+03   -0.10149E-05   -0.42596E-06   238   0.101E-02    0.183E-03
DAV:   6    -0.129239196239E+03   -0.47657E-06   -0.40821E-07   201   0.319E-03
  93 F= -.12923920E+03 E0= -.12923920E+03  d E =-.540052E-03
damped:  g(F)=  0.000E+00 g(S)=  0.000E+00 dE (1.order)= 0.000E+00
 bond charge predicted
       N       E                     dE             d eps       ncg     rms          rms(c)
DAV:   1    -0.129239847065E+03   -0.65130E-03   -0.10035E-01   331   0.154E+00    0.535E-02
DAV:   2    -0.129240055698E+03   -0.20863E-03   -0.24270E-03   340   0.200E-01    0.371E-02
DAV:   3    -0.129240046408E+03    0.92896E-05   -0.37586E-05   336   0.300E-02    0.234E-02
DAV:   4    -0.129240057246E+03   -0.10838E-04   -0.35964E-05   265   0.340E-02    0.425E-03
DAV:   5    -0.129240058206E+03   -0.95983E-06   -0.89911E-06   272   0.144E-02    0.325E-03
DAV:   6    -0.129240058720E+03   -0.51364E-06   -0.95698E-07   224   0.480E-03
  94 F= -.12924006E+03 E0= -.12924006E+03  d E =-.862481E-03
damped:  g(F)=  0.000E+00 g(S)=  0.000E+00 dE (1.order)= 0.000E+00
 bond charge predicted
       N       E                     dE             d eps       ncg     rms          rms(c)
DAV:   1    -0.129240809358E+03   -0.75115E-03   -0.19170E-01   329   0.214E+00    0.737E-02
DAV:   2    -0.129241218882E+03   -0.40952E-03   -0.47516E-03   331   0.283E-01    0.528E-02
DAV:   3    -0.129241198536E+03    0.20347E-04   -0.74034E-05   368   0.422E-02    0.340E-02
DAV:   4    -0.129241217567E+03   -0.19031E-04   -0.74572E-05   284   0.495E-02    0.608E-03
DAV:   5    -0.129241219236E+03   -0.16688E-05   -0.18519E-05   272   0.208E-02    0.440E-03
DAV:   6    -0.129241220192E+03   -0.95641E-06   -0.19168E-06   208   0.664E-03
  95 F= -.12924122E+03 E0= -.12924122E+03  d E =-.116147E-02
damped:  g(F)=  0.000E+00 g(S)=  0.000E+00 dE (1.order)= 0.000E+00
 bond charge predicted
       N       E                     dE             d eps       ncg     rms          rms(c)
DAV:   1    -0.129241989827E+03   -0.77059E-03   -0.32621E-01   328   0.279E+00    0.954E-02
DAV:   2    -0.129242672236E+03   -0.68241E-03   -0.78782E-03   380   0.364E-01    0.670E-02
DAV:   3    -0.129242641059E+03    0.31177E-04   -0.11483E-04   348   0.524E-02    0.424E-02
DAV:   4    -0.129242676539E+03   -0.35480E-04   -0.11273E-04   300   0.615E-02    0.701E-03
DAV:   5    -0.129242679758E+03   -0.32192E-05   -0.28724E-05   264   0.256E-02    0.554E-03
DAV:   6    -0.129242681711E+03   -0.19530E-05   -0.29237E-06   240   0.807E-03
  96 F= -.12924268E+03 E0= -.12924268E+03  d E =-.146152E-02
damped:  g(F)=  0.000E+00 g(S)=  0.000E+00 dE (1.order)= 0.000E+00
 bond charge predicted
       N       E                     dE             d eps       ncg     rms          rms(c)
DAV:   1    -0.129243573638E+03   -0.89388E-03   -0.50455E-01   329   0.347E+00    0.120E-01
DAV:   2    -0.129244618638E+03   -0.10450E-02   -0.12143E-02   365   0.451E-01    0.825E-02
DAV:   3    -0.129244569833E+03    0.48805E-04   -0.17592E-04   376   0.639E-02    0.524E-02
DAV:   4    -0.129244629863E+03   -0.60029E-04   -0.15954E-04   304   0.730E-02    0.811E-03
DAV:   5    -0.129244635841E+03   -0.59779E-05   -0.38866E-05   272   0.290E-02    0.677E-03
DAV:   6    -0.129244639194E+03   -0.33536E-05   -0.35976E-06   318   0.919E-03
  97 F= -.12924464E+03 E0= -.12924464E+03  d E =-.195748E-02
damped:  g(F)=  0.000E+00 g(S)=  0.000E+00 dE (1.order)= 0.000E+00
 bond charge predicted
       N       E                     dE             d eps       ncg     rms          rms(c)
DAV:   1    -0.129245439561E+03   -0.80372E-03   -0.71471E-01   328   0.411E+00    0.142E-01
DAV:   2    -0.129246912168E+03   -0.14726E-02   -0.17157E-02   365   0.533E-01    0.981E-02
DAV:   3    -0.129246843106E+03    0.69061E-04   -0.25149E-04   384   0.762E-02    0.622E-02
DAV:   4    -0.129246937370E+03   -0.94263E-04   -0.22899E-04   362   0.864E-02    0.100E-02
DAV:   5    -0.129246945796E+03   -0.84268E-05   -0.54749E-05   304   0.345E-02    0.854E-03
DAV:   6    -0.129246950049E+03   -0.42526E-05   -0.41637E-06   266   0.950E-03
  98 F= -.12924695E+03 E0= -.12924695E+03  d E =-.231085E-02
damped:  g(F)=  0.000E+00 g(S)=  0.000E+00 dE (1.order)= 0.000E+00
 bond charge predicted
       N       E                     dE             d eps       ncg     rms          rms(c)
DAV:   1    -0.129247640426E+03   -0.69463E-03   -0.87175E-01   328   0.453E+00    0.157E-01
DAV:   2    -0.129249437680E+03   -0.17973E-02   -0.21198E-02   340   0.590E-01    0.110E-01
DAV:   3    -0.129249337865E+03    0.99815E-04   -0.34701E-04   431   0.873E-02    0.686E-02
DAV:   4    -0.129249481930E+03   -0.14406E-03   -0.26729E-04   404   0.928E-02    0.111E-02
DAV:   5    -0.129249491508E+03   -0.95784E-05   -0.60395E-05   304   0.353E-02    0.913E-03
DAV:   6    -0.129249496476E+03   -0.49682E-05   -0.50669E-06   264   0.109E-02
  99 F= -.12924950E+03 E0= -.12924950E+03  d E =-.254643E-02
damped:  g(F)=  0.000E+00 g(S)=  0.000E+00 dE (1.order)= 0.000E+00
 bond charge predicted
       N       E                     dE             d eps       ncg     rms          rms(c)
DAV:   1    -0.129249527118E+03   -0.35610E-04   -0.83852E-04   392   0.154E-01    0.789E-03
DAV:   2    -0.129249532114E+03   -0.49963E-05   -0.31758E-05   296   0.267E-02    0.500E-03
DAV:   3    -0.129249534496E+03   -0.23816E-05   -0.24558E-06   239   0.799E-03    0.296E-03
DAV:   4    -0.129249538571E+03   -0.40754E-05   -0.88691E-07   296   0.482E-03    0.873E-04
DAV:   5    -0.129249540984E+03   -0.24125E-05   -0.21849E-07   296   0.239E-03    0.394E-04
DAV:   6    -0.129249542262E+03   -0.12788E-05   -0.23815E-08   216   0.110E-03
 100 F= -.12924954E+03 E0= -.12924954E+03  d E =-.457862E-04
damped:  g(F)=  0.000E+00 g(S)=  0.000E+00 dE (1.order)= 0.000E+00
 bond charge predicted
       N       E                     dE             d eps       ncg     rms          rms(c)
DAV:   1    -0.129249573077E+03   -0.32093E-04   -0.23601E-03   367   0.258E-01    0.129E-02
DAV:   2    -0.129249580318E+03   -0.72413E-05   -0.91544E-05   339   0.445E-02    0.822E-03
DAV:   3    -0.129249580289E+03    0.29312E-07   -0.40529E-06   256   0.104E-02    0.513E-03
DAV:   4    -0.129249581221E+03   -0.93224E-06   -0.27610E-06   264   0.882E-03    0.138E-03
DAV:   5    -0.129249581768E+03   -0.54662E-06   -0.64196E-07   272   0.436E-03    0.635E-04
DAV:   6    -0.129249582184E+03   -0.41595E-06   -0.93698E-08   202   0.184E-03
 101 F= -.12924958E+03 E0= -.12924958E+03  d E =-.399212E-04
damped:  g(F)=  0.000E+00 g(S)=  0.000E+00 dE (1.order)= 0.000E+00
 bond charge predicted
       N       E                     dE             d eps       ncg     rms          rms(c)
DAV:   1    -0.129249614786E+03   -0.33018E-04   -0.31307E-03   367   0.291E-01    0.128E-02
DAV:   2    -0.129249622484E+03   -0.76984E-05   -0.10520E-04   299   0.470E-02    0.841E-03
DAV:   3    -0.129249621923E+03    0.56114E-06   -0.41379E-06   272   0.106E-02    0.532E-03
DAV:   4    -0.129249621949E+03   -0.26180E-07   -0.30021E-06   264   0.930E-03    0.143E-03
DAV:   5    -0.129249622142E+03   -0.19249E-06   -0.66890E-07   248   0.446E-03    0.681E-04
DAV:   6    -0.129249622366E+03   -0.22410E-06   -0.10134E-07   200   0.185E-03
 102 F= -.12924962E+03 E0= -.12924962E+03  d E =-.401821E-04
damped:  g(F)=  0.000E+00 g(S)=  0.000E+00 dE (1.order)= 0.000E+00
 bond charge predicted
       N       E                     dE             d eps       ncg     rms          rms(c)
DAV:   1    -0.129249704710E+03   -0.82569E-04   -0.36188E-03   336   0.304E-01    0.105E-02
DAV:   2    -0.129249711851E+03   -0.71408E-05   -0.89219E-05   301   0.424E-02    0.702E-03
DAV:   3    -0.129249711934E+03   -0.83093E-07   -0.48647E-06   167   0.101E-02    0.453E-03
DAV:   4    -0.129249712570E+03   -0.63613E-06   -0.21276E-06   247   0.778E-03    0.887E-04
DAV:   5    -0.129249712770E+03   -0.20014E-06   -0.67700E-07   167   0.371E-03    0.642E-04
DAV:   6    -0.129249712991E+03   -0.22112E-06   -0.18929E-07   204   0.178E-03
 103 F= -.12924971E+03 E0= -.12924971E+03  d E =-.906257E-04
damped:  g(F)=  0.000E+00 g(S)=  0.000E+00 dE (1.order)= 0.000E+00
 bond charge predicted
       N       E                     dE             d eps       ncg     rms          rms(c)
DAV:   1    -0.129249867708E+03   -0.15494E-03   -0.53363E-03   331   0.372E-01    0.121E-02
DAV:   2    -0.129249878844E+03   -0.11136E-04   -0.13078E-04   332   0.501E-02    0.825E-03
DAV:   3    -0.129249878635E+03    0.20921E-06   -0.34063E-06   272   0.963E-03    0.523E-03
DAV:   4    -0.129249879532E+03   -0.89669E-06   -0.20405E-06   201   0.832E-03    0.834E-04
DAV:   5    -0.129249879743E+03   -0.21087E-06   -0.56987E-07   272   0.372E-03    0.621E-04
DAV:   6    -0.129249879871E+03   -0.12838E-06   -0.66188E-08   204   0.138E-03
 104 F= -.12924988E+03 E0= -.12924988E+03  d E =-.166880E-03
damped:  g(F)=  0.000E+00 g(S)=  0.000E+00 dE (1.order)= 0.000E+00
 bond charge predicted
       N       E                     dE             d eps       ncg     rms          rms(c)
DAV:   1    -0.129250069514E+03   -0.18977E-03   -0.82254E-03   344   0.466E-01    0.158E-02
DAV:   2    -0.129250087440E+03   -0.17926E-04   -0.21827E-04   365   0.655E-02    0.111E-02
DAV:   3    -0.129250086561E+03    0.87903E-06   -0.60432E-06   272   0.128E-02    0.717E-03
DAV:   4    -0.129250087101E+03   -0.54014E-06   -0.39631E-06   203   0.114E-02    0.133E-03
DAV:   5    -0.129250087206E+03   -0.10535E-06   -0.10517E-06   272   0.517E-03    0.886E-04
DAV:   6    -0.129250087293E+03   -0.87184E-07   -0.15191E-07   206   0.208E-03
 105 F= -.12925009E+03 E0= -.12925009E+03  d E =-.207422E-03
damped:  g(F)=  0.000E+00 g(S)=  0.000E+00 dE (1.order)= 0.000E+00
 bond charge predicted
       N       E                     dE             d eps       ncg     rms          rms(c)
DAV:   1    -0.129250304148E+03   -0.21694E-03   -0.14045E-02   333   0.608E-01    0.203E-02
DAV:   2    -0.129250333808E+03   -0.29660E-04   -0.36087E-04   268   0.843E-02    0.143E-02
DAV:   3    -0.129250332649E+03    0.11590E-05   -0.11714E-05   264   0.175E-02    0.927E-03
DAV:   4    -0.129250333843E+03   -0.11941E-05   -0.70349E-06   208   0.154E-02    0.159E-03
DAV:   5    -0.129250334058E+03   -0.21489E-06   -0.20897E-06   246   0.683E-03    0.125E-03
DAV:   6    -0.129250334239E+03   -0.18088E-06   -0.41833E-07   207   0.289E-03
 106 F= -.12925033E+03 E0= -.12925033E+03  d E =-.246946E-03
damped:  g(F)=  0.000E+00 g(S)=  0.000E+00 dE (1.order)= 0.000E+00
 reached required accuracy - stopping structural energy minimisation
