unknown system                          
           1
    30.000000    0.000000    0.000000
     0.000000   30.000000    0.000000
     0.000000    0.000000   30.000000
   H    C    N    O 
  12   6   2   2
Direct configuration=     1
   0.37520934  0.53702830  0.49922964
   0.38043506  0.48179375  0.47781092
   0.37947572  0.49083438  0.53634377
   0.44907216  0.44676107  0.51367465
   0.52355026  0.45612182  0.54397706
   0.55775482  0.41254307  0.48460147
   0.51629233  0.42796205  0.44572114
   0.50129879  0.39539845  0.49346534
   0.51198072  0.55224117  0.51435931
   0.60880704  0.57226008  0.51894248
   0.58375472  0.57961206  0.46567085
   0.56236588  0.60893958  0.51294040
   0.39115283  0.50463001  0.50443899
   0.44132358  0.51259989  0.50409314
   0.51520536  0.46470270  0.50899416
   0.52279795  0.42250236  0.48132308
   0.55058850  0.50039360  0.49613819
   0.57692169  0.57739344  0.50164290
   0.46683772  0.47521392  0.50868722
   0.54496079  0.54229837  0.51202797
   0.45583190  0.55119750  0.49971866
   0.58438409  0.48756971  0.47619807
Direct configuration=     2
   0.37516762  0.53703574  0.49923354
   0.38049066  0.48178406  0.47781471
   0.37952213  0.49081602  0.53638558
   0.44896889  0.44678176  0.51363398
   0.52356123  0.45619420  0.54395066
   0.55776407  0.41248092  0.48460763
   0.51624405  0.42801777  0.44571588
   0.50128279  0.39534619  0.49346347
   0.51194571  0.55219668  0.51440492
   0.60881128  0.57220000  0.51895410
   0.58377719  0.57958648  0.46563011
   0.56239370  0.60900663  0.51295177
   0.39118663  0.50461809  0.50439425
   0.44134514  0.51255526  0.50410208
   0.51520253  0.46468017  0.50902291
   0.52278071  0.42256378  0.48136881
   0.55059684  0.50042754  0.49610938
   0.57682391  0.57731250  0.50165162
   0.46679220  0.47518745  0.50865543
   0.54499725  0.54236073  0.51193299
   0.45585055  0.55119943  0.49976396
   0.58449618  0.48764588  0.47625162
Direct configuration=     3
   0.37512009  0.53702776  0.49923972
   0.38056493  0.48175694  0.47780464
   0.37959960  0.49079962  0.53641466
   0.44881921  0.44680193  0.51357247
   0.52357964  0.45629396  0.54394141
   0.55775382  0.41240321  0.48461556
   0.51617926  0.42809676  0.44573445
   0.50127442  0.39529567  0.49345465
   0.51192197  0.55213132  0.51446861
   0.60878389  0.57211379  0.51895290
   0.58380172  0.57954861  0.46560034
   0.56244316  0.60906826  0.51295876
   0.39121492  0.50461623  0.50437917
   0.44137294  0.51256735  0.50410165
   0.51519037  0.46469025  0.50903681
   0.52276304  0.42259446  0.48140841
   0.55066122  0.50046873  0.49605300
   0.57677442  0.57728666  0.50164241
   0.46675928  0.47513223  0.50861401
   0.54494222  0.54238868  0.51181896
   0.45586818  0.55115590  0.49984076
   0.58461298  0.48775899  0.47634606
Direct configuration=     4
   0.37507308  0.53699682  0.49924828
   0.38065418  0.48171386  0.47778228
   0.37970727  0.49078810  0.53642139
   0.44863460  0.44681501  0.51349104
   0.52360624  0.45641610  0.54395980
   0.55771484  0.41231994  0.48462306
   0.51610374  0.42819307  0.44578774
   0.50127843  0.39526079  0.49343699
   0.51189596  0.55205510  0.51454610
   0.60871731  0.57200367  0.51893559
   0.58382519  0.57950226  0.46559223
   0.56251532  0.60910877  0.51295615
   0.39122944  0.50462653  0.50440081
   0.44138501  0.51258741  0.50409871
   0.51517397  0.46473353  0.50902259
   0.52274991  0.42257325  0.48142961
   0.55073084  0.50051879  0.49599947
   0.57679016  0.57733888  0.50160925
   0.46674269  0.47507186  0.50856214
   0.54481303  0.54237512  0.51169567
   0.45590109  0.55111283  0.49994241
   0.58475896  0.48788560  0.47645809
Direct configuration=     5
   0.37502586  0.53694532  0.49925925
   0.38075965  0.48166597  0.47776275
   0.37983812  0.49077650  0.53641664
   0.44843598  0.44682500  0.51338750
   0.52363884  0.45656189  0.54399702
   0.55765225  0.41223442  0.48462711
   0.51602022  0.42830105  0.44587280
   0.50128860  0.39524164  0.49341286
   0.51182696  0.55198230  0.51463536
   0.60862414  0.57186834  0.51891004
   0.58385083  0.57945369  0.46559727
   0.56260563  0.60913514  0.51294364
   0.39123410  0.50463566  0.50443050
   0.44137310  0.51255980  0.50410588
   0.51516729  0.46477834  0.50898436
   0.52274181  0.42251740  0.48143491
   0.55075298  0.50056552  0.49597029
   0.57682548  0.57742517  0.50156086
   0.46671940  0.47503170  0.50849576
   0.54470376  0.54236886  0.51155991
   0.45595923  0.55111711  0.50006180
   0.58495704  0.48800648  0.47657289
Direct configuration=     6
   0.37497468  0.53688522  0.49927206
   0.38087912  0.48162509  0.47776215
   0.37997709  0.49075472  0.53642323
   0.44825615  0.44684498  0.51325831
   0.52366977  0.45673249  0.54402837
   0.55758803  0.41214558  0.48462531
   0.51593094  0.42841216  0.44596857
   0.50128943  0.39522581  0.49339039
   0.51169908  0.55192327  0.51473110
   0.60853182  0.57170953  0.51888899
   0.58388531  0.57941264  0.46559224
   0.56270198  0.60917087  0.51292717
   0.39124354  0.50462400  0.50442775
   0.44136546  0.51253476  0.50412473
   0.51518129  0.46478414  0.50894586
   0.52273244  0.42247311  0.48144112
   0.55076382  0.50058604  0.49594004
   0.57682117  0.57746813  0.50151101
   0.46666464  0.47500494  0.50841453
   0.54467381  0.54242851  0.51141418
   0.45601531  0.55113189  0.50020047
   0.58515639  0.48811941  0.47671183
Direct configuration=     7
   0.37491174  0.53681793  0.49928625
   0.38101637  0.48158317  0.47777858
   0.38012664  0.49071326  0.53645277
   0.44810217  0.44688016  0.51308563
   0.52369377  0.45694238  0.54403846
   0.55753889  0.41204291  0.48461381
   0.51582850  0.42852964  0.44605737
   0.50126643  0.39520121  0.49337474
   0.51154722  0.55187156  0.51482893
   0.60845089  0.57151540  0.51887596
   0.58393891  0.57938576  0.46555568
   0.56280564  0.60923477  0.51290801
   0.39127499  0.50458854  0.50438513
   0.44138087  0.51257386  0.50415223
   0.51520703  0.46474131  0.50892787
   0.52271245  0.42247003  0.48147003
   0.55082103  0.50060671  0.49589017
   0.57676789  0.57743746  0.50146252
   0.46658889  0.47497273  0.50830961
   0.54465226  0.54254914  0.51125832
   0.45604634  0.55111615  0.50038029
   0.58532236  0.48822322  0.47690704
Direct configuration=     8
   0.37483607  0.53673751  0.49929879
   0.38115808  0.48151430  0.47778594
   0.38028584  0.49065261  0.53648971
   0.44798024  0.44691117  0.51286197
   0.52370592  0.45718080  0.54403434
   0.55751336  0.41192977  0.48458607
   0.51571417  0.42864715  0.44611913
   0.50121228  0.39517089  0.49336861
   0.51144903  0.55182713  0.51490544
   0.60838178  0.57128878  0.51886582
   0.58401500  0.57938220  0.46548313
   0.56292205  0.60931296  0.51287714
   0.39133536  0.50455682  0.50435159
   0.44138886  0.51261097  0.50418900
   0.51521423  0.46469899  0.50893636
   0.52268280  0.42249674  0.48153364
   0.55087921  0.50070486  0.49587791
   0.57671248  0.57738167  0.50141360
   0.46655968  0.47495176  0.50817524
   0.54450025  0.54262672  0.51110754
   0.45606592  0.55114007  0.50060780
   0.58548867  0.48827339  0.47713063
Direct configuration=     9
   0.37475331  0.53663437  0.49930757
   0.38129507  0.48140240  0.47776902
   0.38045651  0.49057997  0.53650420
   0.44790451  0.44692530  0.51257773
   0.52370528  0.45742278  0.54405863
   0.55749077  0.41182341  0.48453839
   0.51559713  0.42875324  0.44617074
   0.50113399  0.39515715  0.49337157
   0.51136674  0.55181730  0.51494783
   0.60830488  0.57103027  0.51884744
   0.58410234  0.57940021  0.46540658
   0.56306306  0.60936508  0.51282159
   0.39139925  0.50454067  0.50438032
   0.44139897  0.51260073  0.50423338
   0.51519510  0.46475851  0.50894193
   0.52265854  0.42249744  0.48159894
   0.55088186  0.50080207  0.49592567
   0.57669114  0.57737561  0.50135674
   0.46660438  0.47496042  0.50801338
   0.54427997  0.54262496  0.51095303
   0.45606898  0.55124961  0.50089264
   0.58564951  0.48827578  0.47738207
Direct configuration=    10
   0.37467116  0.53651351  0.49931453
   0.38143591  0.48128145  0.47777202
   0.38062355  0.49048862  0.53650998
   0.44792346  0.44694842  0.51221883
   0.52368286  0.45764953  0.54412763
   0.55745121  0.41174151  0.48447434
   0.51549124  0.42882994  0.44624638
   0.50103984  0.39518026  0.49338838
   0.51118686  0.55187323  0.51495482
   0.60820673  0.57074433  0.51881400
   0.58418468  0.57943170  0.46536398
   0.56321909  0.60938623  0.51274847
   0.39144606  0.50448307  0.50440883
   0.44148621  0.51270882  0.50427963
   0.51518979  0.46491435  0.50893437
   0.52264347  0.42247132  0.48162332
   0.55087690  0.50071839  0.49596157
   0.57668544  0.57737328  0.50128287
   0.46664452  0.47497919  0.50783556
   0.54421789  0.54268570  0.51077774
   0.45598538  0.55131510  0.50125145
   0.58570901  0.48827935  0.47771071
Direct configuration=    11
   0.37459371  0.53636455  0.49932281
   0.38158783  0.48116896  0.47782635
   0.38076760  0.49036255  0.53654200
   0.44805290  0.44697210  0.51177511
   0.52361952  0.45785009  0.54420456
   0.55740031  0.41169047  0.48439460
   0.51540042  0.42886701  0.44632853
   0.50093482  0.39525938  0.49342271
   0.51105486  0.55197234  0.51487845
   0.60810528  0.57045235  0.51876543
   0.58426831  0.57947571  0.46534650
   0.56337181  0.60939848  0.51267123
   0.39150676  0.50438063  0.50436410
   0.44147770  0.51268699  0.50436527
   0.51520748  0.46496187  0.50894880
   0.52261549  0.42249347  0.48164574
   0.55073156  0.50070774  0.49608915
   0.57672409  0.57731653  0.50118397
   0.46668523  0.47511518  0.50763098
   0.54414621  0.54278780  0.51059522
   0.45590458  0.55154974  0.50167744
   0.58584479  0.48816334  0.47802044
Direct configuration=    12
   0.37453922  0.53616927  0.49932978
   0.38172249  0.48100249  0.47786198
   0.38089014  0.49021653  0.53655208
   0.44829561  0.44702027  0.51122858
   0.52349333  0.45799546  0.54427752
   0.55734218  0.41167729  0.48431319
   0.51531981  0.42887162  0.44636912
   0.50082885  0.39539983  0.49348244
   0.51103112  0.55212562  0.51469722
   0.60806441  0.57015991  0.51871707
   0.58437053  0.57952257  0.46528304
   0.56353189  0.60937400  0.51259448
   0.39156178  0.50428326  0.50437587
   0.44146671  0.51303523  0.50444784
   0.51521809  0.46492174  0.50900600
   0.52256378  0.42256314  0.48172136
   0.55090793  0.50075042  0.49610402
   0.57676530  0.57725794  0.50111424
   0.46677184  0.47520007  0.50742696
   0.54391078  0.54284517  0.51040861
   0.45568912  0.55157686  0.50221612
   0.58571636  0.48802859  0.47847186
Direct configuration=    13
   0.37453336  0.53616558  0.49932820
   0.38172314  0.48099271  0.47785919
   0.38088701  0.49021432  0.53654863
   0.44829077  0.44701093  0.51121209
   0.52348631  0.45797475  0.54428701
   0.55733807  0.41168425  0.48431556
   0.51531998  0.42887051  0.44636604
   0.50082746  0.39540520  0.49348754
   0.51101593  0.55213964  0.51467748
   0.60807735  0.57016106  0.51872108
   0.58437504  0.57951885  0.46527671
   0.56353410  0.60937026  0.51259601
   0.39155532  0.50428519  0.50438572
   0.44143094  0.51287058  0.50446698
   0.51521679  0.46494650  0.50900472
   0.52256650  0.42256063  0.48171603
   0.55077194  0.50076747  0.49617372
   0.57674891  0.57725521  0.50111822
   0.46677509  0.47525100  0.50742228
   0.54396549  0.54285154  0.51039011
   0.45572116  0.55171254  0.50222415
   0.58584061  0.48798855  0.47842189
Direct configuration=    14
   0.37453263  0.53616502  0.49932789
   0.38172299  0.48099069  0.47785901
   0.38088559  0.49021337  0.53654837
   0.44829232  0.44701119  0.51120707
   0.52348376  0.45797021  0.54428845
   0.55733757  0.41168606  0.48431648
   0.51532022  0.42886989  0.44636535
   0.50082705  0.39540658  0.49348926
   0.51101436  0.55214289  0.51467279
   0.60807964  0.57016145  0.51872111
   0.58437580  0.57951806  0.46527582
   0.56353412  0.60936952  0.51259694
   0.39155374  0.50428366  0.50438697
   0.44143343  0.51287367  0.50446906
   0.51521675  0.46495196  0.50900532
   0.52256635  0.42256111  0.48171506
   0.55077432  0.50076181  0.49617324
   0.57674936  0.57725465  0.50111803
   0.46677498  0.47525209  0.50742226
   0.54396917  0.54285332  0.51038776
   0.45571697  0.55171175  0.50222885
   0.58584015  0.48798831  0.47842429
Direct configuration=    15
   0.37453118  0.53616382  0.49932729
   0.38172272  0.48098670  0.47785870
   0.38088272  0.49021143  0.53654794
   0.44829538  0.44701171  0.51119703
   0.52347865  0.45796118  0.54429122
   0.55733655  0.41168969  0.48431831
   0.51532069  0.42886867  0.44636393
   0.50082624  0.39540939  0.49349268
   0.51101161  0.55214930  0.51466331
   0.60808417  0.57016228  0.51872114
   0.58437736  0.57951650  0.46527409
   0.56353415  0.60936802  0.51259876
   0.39155070  0.50428064  0.50438933
   0.44143776  0.51287915  0.50447327
   0.51521666  0.46496229  0.50900657
   0.52256596  0.42256220  0.48171324
   0.55077863  0.50075147  0.49617265
   0.57675048  0.57725367  0.50111758
   0.46677491  0.47525439  0.50742221
   0.54397593  0.54285644  0.51038310
   0.45570898  0.55171094  0.50223823
   0.58583985  0.48798741  0.47842881
Direct configuration=    16
   0.37452900  0.53616185  0.49932640
   0.38172239  0.48098077  0.47785838
   0.38087833  0.49020841  0.53654750
   0.44829991  0.44701244  0.51118190
   0.52347096  0.45794777  0.54429511
   0.55733509  0.41169511  0.48432105
   0.51532137  0.42886686  0.44636173
   0.50082505  0.39541368  0.49349779
   0.51100851  0.55215868  0.51464885
   0.60809083  0.57016360  0.51872107
   0.58437977  0.57951423  0.46527156
   0.56353427  0.60936574  0.51260144
   0.39154641  0.50427626  0.50439249
   0.44144266  0.51288555  0.50447972
   0.51521646  0.46497635  0.50900854
   0.52256519  0.42256420  0.48171088
   0.55078395  0.50073841  0.49617275
   0.57675273  0.57725241  0.50111675
   0.46677520  0.47525823  0.50742205
   0.54398458  0.54286009  0.51037619
   0.45569785  0.55171150  0.50225230
   0.58584078  0.48798516  0.47843494
Direct configuration=    17
   0.37452608  0.53615894  0.49932527
   0.38172207  0.48097300  0.47785819
   0.38087234  0.49020420  0.53654730
   0.44830586  0.44701334  0.51116164
   0.52346067  0.45793023  0.54429976
   0.55733327  0.41170229  0.48432467
   0.51532221  0.42886450  0.44635866
   0.50082352  0.39541957  0.49350453
   0.51100614  0.55217068  0.51462922
   0.60809944  0.57016547  0.51872080
   0.58438313  0.57951135  0.46526832
   0.56353453  0.60936262  0.51260489
   0.39154131  0.50427074  0.50439602
   0.44144643  0.51289107  0.50448850
   0.51521604  0.46499245  0.50901136
   0.52256387  0.42256751  0.48170842
   0.55078923  0.50072527  0.49617444
   0.57675668  0.57725109  0.50111539
   0.46677630  0.47526403  0.50742171
   0.54399345  0.54286317  0.51036713
   0.45568446  0.55171506  0.50227105
   0.58584424  0.48798068  0.47844211
Direct configuration=    18
   0.37452245  0.53615494  0.49932393
   0.38172185  0.48096361  0.47785831
   0.38086469  0.49019875  0.53654760
   0.44831316  0.44701445  0.51113640
   0.52344788  0.45790903  0.54430474
   0.55733117  0.41171113  0.48432913
   0.51532316  0.42886165  0.44635470
   0.50082170  0.39542710  0.49351279
   0.51100557  0.55218482  0.51460445
   0.60810969  0.57016792  0.51872018
   0.58438751  0.57950802  0.46526451
   0.56353502  0.60935863  0.51260898
   0.39153592  0.50426430  0.50439943
   0.44144744  0.51289447  0.50449957
   0.51521538  0.46500843  0.50901508
   0.52256193  0.42257265  0.48170629
   0.55079380  0.50071468  0.49617838
   0.57676286  0.57724985  0.50111332
   0.46677852  0.47527201  0.50742113
   0.54400084  0.54286478  0.51035614
   0.45566970  0.55172280  0.50229438
   0.58585103  0.48797327  0.47844994
Direct configuration=    19
   0.37451816  0.53614969  0.49932242
   0.38172181  0.48095282  0.47785892
   0.38085538  0.49019205  0.53654857
   0.44832177  0.44701584  0.51110637
   0.52343274  0.45788477  0.54430960
   0.55732885  0.41172153  0.48433438
   0.51532417  0.42885842  0.44634994
   0.50081966  0.39543631  0.49352242
   0.51100752  0.55220062  0.51457476
   0.60812125  0.57017093  0.51871908
   0.58439294  0.57950443  0.46526025
   0.56353586  0.60935373  0.51261354
   0.39153062  0.50425715  0.50440236
   0.44144470  0.51289573  0.50451276
   0.51521456  0.46502230  0.50901969
   0.52255923  0.42257987  0.48170491
   0.55079784  0.50070808  0.49618464
   0.57677155  0.57724878  0.50111045
   0.46678197  0.47528211  0.50742026
   0.54400554  0.54286459  0.51034349
   0.45565407  0.55173481  0.50232215
   0.58586108  0.48796273  0.47845844
Direct configuration=    20
   0.37451268  0.53614222  0.49932058
   0.38172207  0.48093945  0.47786032
   0.38084314  0.49018316  0.53655045
   0.44833289  0.44701793  0.51106757
   0.52341339  0.45785491  0.54431446
   0.55732603  0.41173480  0.48434109
   0.51532530  0.42885445  0.44634389
   0.50081721  0.39544856  0.49353452
   0.51101284  0.55221960  0.51453635
   0.60813528  0.57017480  0.51871720
   0.58440030  0.57950033  0.46525509
   0.56353734  0.60934715  0.51261894
   0.39152509  0.50424850  0.50440482
   0.44143711  0.51289611  0.50452965
   0.51521371  0.46503363  0.50902579
   0.52255528  0.42259046  0.48170454
   0.55080286  0.50070584  0.49619364
   0.57678403  0.57724771  0.50110630
   0.46678696  0.47529537  0.50741894
   0.54400725  0.54286269  0.51032774
   0.45563569  0.55175196  0.50235817
   0.58587487  0.48794765  0.47846934
Direct configuration=    21
   0.37450573  0.53613169  0.49931833
   0.38172283  0.48092307  0.47786290
   0.38082727  0.49017164  0.53655332
   0.44834725  0.44702120  0.51101775
   0.52338900  0.45781879  0.54431902
   0.55732244  0.41175164  0.48434959
   0.51532653  0.42884973  0.44633661
   0.50081437  0.39546473  0.49354950
   0.51102176  0.55224214  0.51448740
   0.60815206  0.57017951  0.51871422
   0.58441023  0.57949590  0.46524886
   0.56353991  0.60933834  0.51262509
   0.39151914  0.50423796  0.50440675
   0.44142439  0.51289882  0.50455075
   0.51521317  0.46504050  0.50903349
   0.52254976  0.42260493  0.48170550
   0.55081142  0.50070754  0.49620462
   0.57680072  0.57724633  0.50110079
   0.46679309  0.47531181  0.50741702
   0.54400617  0.54286037  0.51030823
   0.45561318  0.55177271  0.50240481
   0.58589084  0.48792794  0.47848482
Direct configuration=    22
   0.37449691  0.53611707  0.49931554
   0.38172442  0.48090312  0.47786700
   0.38080714  0.49015712  0.53655683
   0.44836558  0.44702626  0.51095426
   0.52335887  0.45777574  0.54432317
   0.55731762  0.41177289  0.48436026
   0.51532780  0.42884430  0.44632854
   0.50081116  0.39548575  0.49356773
   0.51103318  0.55226866  0.51442615
   0.60817190  0.57018473  0.51870987
   0.58442362  0.57949141  0.46524134
   0.56354427  0.60932659  0.51263169
   0.39151207  0.50422490  0.50440866
   0.44140755  0.51290882  0.50457663
   0.51521351  0.46504210  0.50904263
   0.52254262  0.42262304  0.48170761
   0.55082677  0.50071020  0.49621629
   0.57682120  0.57724435  0.50109378
   0.46679922  0.47533126  0.50741428
   0.54400495  0.54286061  0.51028399
   0.45558437  0.55179410  0.50246502
   0.58590654  0.48790425  0.47850809
Direct configuration=    23
   0.37448543  0.53609724  0.49931198
   0.38172733  0.48087895  0.47787296
   0.38078222  0.49013948  0.53656015
   0.44838805  0.44703354  0.51087415
   0.52332262  0.45772521  0.54432729
   0.55731087  0.41179946  0.48437345
   0.51532895  0.42883849  0.44632060
   0.50080754  0.39551255  0.49358943
   0.51104458  0.55229963  0.51435087
   0.60819511  0.57018987  0.51870402
   0.58444173  0.57948739  0.46523224
   0.56355141  0.60931134  0.51263816
   0.39150251  0.50420837  0.50441192
   0.44138905  0.51292862  0.50460783
   0.51521517  0.46503999  0.50905287
   0.52253411  0.42264343  0.48170996
   0.55084975  0.50070866  0.49622795
   0.57684419  0.57724158  0.50108491
   0.46680369  0.47535415  0.50741033
   0.54400860  0.54286744  0.51025371
   0.45554728  0.55181455  0.50254210
   0.58592109  0.48787736  0.47854250
Direct configuration=    24
   0.37446974  0.53607092  0.49930730
   0.38173235  0.48084961  0.47788102
   0.38075198  0.49011858  0.53656225
   0.44841365  0.44704289  0.51077382
   0.52328021  0.45766667  0.54433234
   0.55730155  0.41183220  0.48438951
   0.51532962  0.42883295  0.44631404
   0.50080319  0.39554565  0.49361474
   0.51105337  0.55233532  0.51425947
   0.60822192  0.57019404  0.51869653
   0.58446638  0.57948478  0.46522114
   0.56356275  0.60929255  0.51264359
   0.39148880  0.50418790  0.50441847
   0.44137050  0.51295357  0.50464569
   0.51521776  0.46503845  0.50906314
   0.52252480  0.42266367  0.48171093
   0.55087548  0.50069926  0.49624248
   0.57686857  0.57723805  0.50107328
   0.46680561  0.47538240  0.50740434
   0.54402209  0.54288311  0.51021554
   0.45550177  0.55183815  0.50263977
   0.58593918  0.48784658  0.47858999
Direct configuration=    25
   0.37444748  0.53603714  0.49930098
   0.38174057  0.48081406  0.47789138
   0.38071591  0.49009417  0.53656281
   0.44843992  0.44705359  0.51064968
   0.52323222  0.45760020  0.54433939
   0.55728984  0.41187135  0.48440847
   0.51532912  0.42882886  0.44630974
   0.50079728  0.39558447  0.49364350
   0.51105943  0.55237525  0.51414978
   0.60825192  0.57019623  0.51868709
   0.58450012  0.57948510  0.46520747
   0.56357982  0.60927144  0.51264666
   0.39147024  0.50416344  0.50442977
   0.44135086  0.51297289  0.50469200
   0.51521942  0.46504373  0.50907236
   0.52251517  0.42268164  0.48170896
   0.55089459  0.50068410  0.49626605
   0.57689603  0.57723479  0.50105718
   0.46680663  0.47541800  0.50739502
   0.54404424  0.54290385  0.51016765
   0.45544998  0.55187389  0.50276214
   0.58597048  0.48780911  0.47865133
Direct configuration=    26
   0.37441542  0.53599537  0.49929239
   0.38175331  0.48077122  0.47790448
   0.38067277  0.49006527  0.53656335
   0.44846385  0.44706545  0.51049730
   0.52317930  0.45752733  0.54434820
   0.55727756  0.41191618  0.48443023
   0.51532632  0.42882780  0.44630730
   0.50078806  0.39562684  0.49367553
   0.51106605  0.55241818  0.51401955
   0.60828390  0.57019521  0.51867492
   0.58454629  0.57949063  0.46519013
   0.56360417  0.60925087  0.51264581
   0.39144842  0.50413476  0.50444523
   0.44132849  0.51298540  0.50474867
   0.51521711  0.46506074  0.50908057
   0.52250455  0.42269815  0.48170463
   0.55090816  0.50066900  0.49630134
   0.57693224  0.57723305  0.50103355
   0.46681053  0.47545882  0.50738064
   0.54406368  0.54292054  0.51010852
   0.45539313  0.55192362  0.50291513
   0.58601797  0.48776287  0.47873192
Direct configuration=    27
   0.37437039  0.53594513  0.49928090
   0.38177212  0.48072007  0.47792101
   0.38062113  0.49003026  0.53656715
   0.44848371  0.44707973  0.51031211
   0.52312210  0.45745187  0.54435593
   0.55726777  0.41196482  0.48445409
   0.51531964  0.42883140  0.44630438
   0.50077326  0.39566906  0.49371011
   0.51107544  0.55246257  0.51386802
   0.60831675  0.57018872  0.51865939
   0.58460894  0.57950374  0.46516670
   0.56363756  0.60923429  0.51263874
   0.39142649  0.50410171  0.50446225
   0.44130388  0.51301109  0.50481787
   0.51520925  0.46508745  0.50908975
   0.52249182  0.42271907  0.48170178
   0.55093543  0.50065500  0.49634105
   0.57698099  0.57723211  0.50100055
   0.46681883  0.47549756  0.50735895
   0.54406781  0.54292873  0.51003577
   0.45532750  0.55197344  0.50310705
   0.58607046  0.48770946  0.47884584
Direct configuration=    28
   0.37430920  0.53588466  0.49926590
   0.38179953  0.48065934  0.47794166
   0.38056052  0.48998832  0.53657674
   0.44849757  0.44709767  0.51008924
   0.52306188  0.45738036  0.54435856
   0.55726183  0.41201531  0.48447869
   0.51530714  0.42884189  0.44629883
   0.50075184  0.39570850  0.49374492
   0.51108176  0.55250743  0.51369623
   0.60835064  0.57017269  0.51864155
   0.58469309  0.57952666  0.46513350
   0.56368317  0.60922395  0.51262136
   0.39140596  0.50406520  0.50447902
   0.44127738  0.51305375  0.50490356
   0.51519810  0.46511337  0.50910255
   0.52247543  0.42275081  0.48170618
   0.55098085  0.50063940  0.49638263
   0.57703473  0.57722746  0.50095917
   0.46682511  0.47553551  0.50732606
   0.54406266  0.54293943  0.50994299
   0.45525307  0.55201851  0.50334584
   0.58612980  0.48764708  0.47900424
Direct configuration=    29
   0.37422958  0.53581083  0.49924659
   0.38183908  0.48058759  0.47796644
   0.38049359  0.48994165  0.53658972
   0.44850195  0.44711926  0.50982599
   0.52300129  0.45731992  0.54435656
   0.55725484  0.41206726  0.48450081
   0.51528728  0.42886264  0.44629324
   0.50072626  0.39574699  0.49377385
   0.51107365  0.55255220  0.51350637
   0.60838430  0.57014217  0.51862377
   0.58480327  0.57955970  0.46508942
   0.56374509  0.60921921  0.51258677
   0.39138457  0.50402799  0.50449904
   0.44124260  0.51307771  0.50500951
   0.51518719  0.46512969  0.50911811
   0.52245572  0.42278974  0.48171651
   0.55101374  0.50062372  0.49643955
   0.57708036  0.57721771  0.50091008
   0.46681951  0.47558504  0.50727781
   0.54406797  0.54297005  0.50982110
   0.45518035  0.55208130  0.50364109
   0.58622906  0.48756491  0.47920709
Direct configuration=    30
   0.37413033  0.53572128  0.49922202
   0.38189583  0.48050396  0.47799662
   0.38042409  0.48989394  0.53660072
   0.44849460  0.44714698  0.50951537
   0.52294205  0.45727851  0.54435891
   0.55723779  0.41212139  0.48451759
   0.51526003  0.42889644  0.44629742
   0.50070155  0.39578829  0.49379027
   0.51104835  0.55259612  0.51330157
   0.60840933  0.57009139  0.51860444
   0.58494274  0.57960268  0.46503982
   0.56382700  0.60921989  0.51252845
   0.39135303  0.50398413  0.50452856
   0.44120633  0.51311239  0.50513815
   0.51517366  0.46514739  0.50913119
   0.52243277  0.42282139  0.48172080
   0.55105771  0.50060093  0.49650224
   0.57713100  0.57721242  0.50084520
   0.46680269  0.47563264  0.50721154
   0.54406971  0.54301921  0.50966136
   0.45510431  0.55214051  0.50400826
   0.58635639  0.48746543  0.47947894
Direct configuration=    31
   0.37401099  0.53561519  0.49919140
   0.38197434  0.48040767  0.47803383
   0.38035302  0.48984576  0.53661389
   0.44846933  0.44717658  0.50915306
   0.52288365  0.45726316  0.54437432
   0.55720724  0.41217538  0.48452420
   0.51522435  0.42894715  0.44631278
   0.50067805  0.39582962  0.49378834
   0.51101592  0.55263870  0.51308377
   0.60841513  0.57001618  0.51858214
   0.58511490  0.57965335  0.46498786
   0.56392934  0.60923133  0.51244115
   0.39131392  0.50393424  0.50456292
   0.44115804  0.51316564  0.50529346
   0.51515082  0.46517736  0.50913597
   0.52240830  0.42284401  0.48171458
   0.55113105  0.50058554  0.49656866
   0.57720865  0.57722148  0.50075700
   0.46679086  0.47567091  0.50712578
   0.54403298  0.54306000  0.50945063
   0.45502563  0.55218954  0.50446158
   0.58650478  0.48734853  0.47984210
Direct configuration=    32
   0.37386945  0.53549310  0.49915416
   0.38207806  0.48029456  0.47807868
   0.38027818  0.48979498  0.53664155
   0.44842496  0.44720373  0.50873601
   0.52282138  0.45728260  0.54439496
   0.55717387  0.41222134  0.48451419
   0.51517600  0.42902048  0.44632260
   0.50064865  0.39585922  0.49376397
   0.51096510  0.55268267  0.51285553
   0.60840565  0.56990845  0.51856768
   0.58532938  0.57970777  0.46492047
   0.56405169  0.60926243  0.51231948
   0.39127755  0.50388886  0.50459332
   0.44109675  0.51316561  0.50548441
   0.51512807  0.46520855  0.50914320
   0.52237787  0.42288510  0.48171305
   0.55116364  0.50058008  0.49666919
   0.57727845  0.57722394  0.50064854
   0.46676902  0.47572690  0.50701555
   0.54400148  0.54312038  0.50916102
   0.45495082  0.55226855  0.50500710
   0.58673523  0.48719805  0.48029479
Direct configuration=    33
   0.37371214  0.53536529  0.49910857
   0.38220315  0.48016260  0.47812979
   0.38019940  0.48974737  0.53667496
   0.44838694  0.44724741  0.50825958
   0.52274333  0.45733870  0.54441560
   0.55714177  0.41225919  0.48448562
   0.51511576  0.42911730  0.44632149
   0.50061177  0.39587866  0.49371805
   0.51090269  0.55273333  0.51262032
   0.60837770  0.56976517  0.51856332
   0.58558906  0.57976110  0.46483018
   0.56418909  0.60930788  0.51216324
   0.39124040  0.50382719  0.50463748
   0.44107849  0.51329782  0.50570213
   0.51510499  0.46525440  0.50916751
   0.52233855  0.42294431  0.48171490
   0.55132933  0.50050625  0.49672465
   0.57734596  0.57721978  0.50052109
   0.46672627  0.47573274  0.50688574
   0.54394115  0.54322378  0.50879449
   0.45482658  0.55223841  0.50565251
   0.58689674  0.48706865  0.48090827
Direct configuration=    34
   0.37354769  0.53521845  0.49905577
   0.38235128  0.48001284  0.47819159
   0.38012033  0.48970519  0.53671795
   0.44831679  0.44724941  0.50774371
   0.52265300  0.45741377  0.54445533
   0.55709567  0.41229535  0.48442781
   0.51504386  0.42924935  0.44631859
   0.50057388  0.39590628  0.49363737
   0.51085753  0.55278946  0.51235938
   0.60831980  0.56959613  0.51857720
   0.58590219  0.57980539  0.46472705
   0.56434121  0.60935700  0.51196016
   0.39121330  0.50378180  0.50469121
   0.44091972  0.51301624  0.50594900
   0.51505637  0.46527870  0.50918573
   0.52229940  0.42299713  0.48170466
   0.55112297  0.50065485  0.49698753
   0.57742273  0.57723506  0.50036138
   0.46673327  0.47586882  0.50673835
   0.54386586  0.54324381  0.50833674
   0.45481063  0.55252877  0.50637417
   0.58743374  0.48679359  0.48149886
Direct configuration=    35
   0.37355471  0.53521844  0.49905500
   0.38235191  0.48001234  0.47819590
   0.38011609  0.48970530  0.53671842
   0.44834169  0.44727127  0.50772408
   0.52264355  0.45741909  0.54445930
   0.55709506  0.41229704  0.48442845
   0.51504517  0.42924854  0.44632327
   0.50057257  0.39590647  0.49363995
   0.51084004  0.55279841  0.51236472
   0.60831295  0.56958776  0.51857402