  22  22   0   0
  0.1227273E+04  0.3000000E-08  0.3000000E-08  0.3000000E-08  0.0000000E+00
  1.000000000000000E-004
  CAR 
 unknown system                          
      2.19756833    -28.24498627  301     -4.49939729      1.00000000
    -28.245  0.0000E+00  0.0000E+00
    -28.144  0.0000E+00  0.0000E+00
    -28.042  0.0000E+00  0.0000E+00
    -27.941  0.0000E+00  0.0000E+00
    -27.839  0.0000E+00  0.0000E+00
    -27.738  0.0000E+00  0.0000E+00
    -27.636  0.0000E+00  0.0000E+00
    -27.535  0.0000E+00  0.0000E+00
    -27.433  0.0000E+00  0.0000E+00
    -27.332  0.5069E-15  0.5144E-16
    -27.230  0.1060E-12  0.1081E-13
    -27.129  0.1344E-10  0.1375E-11
    -27.027  0.1028E-08  0.1057E-09
    -26.926  0.4752E-07  0.4928E-08
    -26.824  0.1329E-05  0.1397E-06
    -26.723  0.2251E-04  0.2424E-05
    -26.621  0.2316E-03  0.2593E-04
    -26.520  0.1449E-02  0.1730E-03
    -26.418  0.5523E-02  0.7334E-03
    -26.317  0.1284E-01  0.2036E-02
    -26.215  0.1821E-01  0.3884E-02
    -26.114  0.1578E-01  0.5486E-02
    -26.013  0.8383E-02  0.6336E-02
    -25.911  0.3028E-02  0.6644E-02
    -25.810  0.2438E-02  0.6891E-02
    -25.708  0.6720E-02  0.7573E-02
    -25.607  0.1417E-01  0.9011E-02
    -25.505  0.1841E-01  0.1088E-01
    -25.404  0.1460E-01  0.1236E-01
    -25.302  0.7074E-02  0.1308E-01
    -25.201  0.2090E-02  0.1329E-01
    -25.099  0.3764E-03  0.1333E-01
    -24.998  0.4123E-04  0.1333E-01
    -24.896  0.2743E-05  0.1333E-01
    -24.795  0.1106E-06  0.1333E-01
    -24.693  0.2702E-08  0.1333E-01
    -24.592  0.3987E-10  0.1333E-01
    -24.490  0.4330E-12  0.1333E-01
    -24.389  0.1019E-10  0.1333E-01
    -24.287  0.8036E-09  0.1333E-01
    -24.186  0.3828E-07  0.1333E-01
    -24.085  0.1103E-05  0.1333E-01
    -23.983  0.1926E-04  0.1334E-01
    -23.882  0.2042E-03  0.1336E-01
    -23.780  0.1316E-02  0.1349E-01
    -23.679  0.5168E-02  0.1401E-01
    -23.577  0.1237E-01  0.1527E-01
    -23.476  0.1808E-01  0.1710E-01
    -23.374  0.1614E-01  0.1874E-01
    -23.273  0.8796E-02  0.1964E-01
    -23.171  0.2932E-02  0.1993E-01
    -23.070  0.6814E-03  0.2000E-01
    -22.968  0.7629E-03  0.2008E-01
    -22.867  0.3272E-02  0.2041E-01
    -22.765  0.9427E-02  0.2137E-01
    -22.664  0.1660E-01  0.2305E-01
    -22.562  0.1785E-01  0.2486E-01
    -22.461  0.1173E-01  0.2605E-01
    -22.359  0.4700E-02  0.2653E-01
    -22.258  0.1149E-02  0.2665E-01
    -22.156  0.1710E-03  0.2667E-01
    -22.055  0.1548E-04  0.2667E-01
    -21.954  0.8501E-06  0.2667E-01
    -21.852  0.2829E-07  0.2667E-01
    -21.751  0.5697E-09  0.2667E-01
    -21.649  0.6928E-11  0.2667E-01
    -21.548  0.5082E-13  0.2667E-01
    -21.446  0.2261E-15  0.2667E-01
    -21.345  0.0000E+00  0.2667E-01
    -21.243  0.0000E+00  0.2667E-01
    -21.142  0.0000E+00  0.2667E-01
    -21.040  0.0000E+00  0.2667E-01
    -20.939  0.0000E+00  0.2667E-01
    -20.837  0.0000E+00  0.2667E-01
    -20.736  0.3975E-15  0.2667E-01
    -20.634  0.8519E-13  0.2667E-01
    -20.533  0.1104E-10  0.2667E-01
    -20.431  0.8628E-09  0.2667E-01
    -20.330  0.4074E-07  0.2667E-01
    -20.228  0.1164E-05  0.2667E-01
    -20.127  0.2015E-04  0.2667E-01
    -20.025  0.2118E-03  0.2669E-01
    -19.924  0.1353E-02  0.2683E-01
    -19.823  0.5268E-02  0.2736E-01
    -19.721  0.1251E-01  0.2863E-01
    -19.620  0.1812E-01  0.3047E-01
    -19.518  0.1604E-01  0.3210E-01
    -19.417  0.8666E-02  0.3298E-01
    -19.315  0.2857E-02  0.3327E-01
    -19.214  0.5741E-03  0.3333E-01
    -19.112  0.7021E-04  0.3333E-01
    -19.011  0.5219E-05  0.3333E-01
    -18.909  0.3254E-06  0.3333E-01
    -18.808  0.2310E-05  0.3333E-01
    -18.706  0.3565E-04  0.3334E-01
    -18.605  0.3351E-03  0.3337E-01
    -18.503  0.1916E-02  0.3357E-01
    -18.402  0.6676E-02  0.3424E-01
    -18.300  0.1419E-01  0.3568E-01
    -18.199  0.1841E-01  0.3755E-01
    -18.097  0.1458E-01  0.3903E-01
    -17.996  0.7061E-02  0.3975E-01
    -17.895  0.2165E-02  0.3997E-01
    -17.793  0.1030E-02  0.4007E-01
    -17.692  0.3190E-02  0.4039E-01
    -17.590  0.9217E-02  0.4133E-01
    -17.489  0.1645E-01  0.4300E-01
    -17.387  0.1794E-01  0.4482E-01
    -17.286  0.1194E-01  0.4603E-01
    -17.184  0.4853E-02  0.4652E-01
    -17.083  0.1203E-02  0.4665E-01
    -16.981  0.1815E-03  0.4666E-01
    -16.880  0.1666E-04  0.4667E-01
    -16.778  0.9279E-06  0.4667E-01
    -16.677  0.3139E-07  0.4667E-01
    -16.575  0.4961E-08  0.4667E-01
    -16.474  0.1667E-06  0.4667E-01
    -16.372  0.3892E-05  0.4667E-01
    -16.271  0.5511E-04  0.4667E-01
    -16.169  0.4740E-03  0.4672E-01
    -16.068  0.2481E-02  0.4697E-01
    -15.966  0.7916E-02  0.4778E-01
    -15.865  0.1541E-01  0.4934E-01
    -15.764  0.1831E-01  0.5120E-01
    -15.662  0.1329E-01  0.5255E-01
    -15.561  0.5886E-02  0.5314E-01
    -15.459  0.1599E-02  0.5330E-01
    -15.358  0.3674E-03  0.5334E-01
    -15.256  0.8175E-03  0.5343E-01
    -15.155  0.3608E-02  0.5379E-01
    -15.053  0.1002E-01  0.5481E-01
    -14.952  0.1699E-01  0.5653E-01
    -14.850  0.1759E-01  0.5832E-01
    -14.749  0.1112E-01  0.5945E-01
    -14.647  0.4292E-02  0.5988E-01
    -14.546  0.1013E-02  0.5998E-01
    -14.444  0.1950E-03  0.6000E-01
    -14.343  0.4540E-03  0.6005E-01
    -14.241  0.2355E-02  0.6029E-01
    -14.140  0.7649E-02  0.6107E-01
    -14.038  0.1516E-01  0.6260E-01
    -13.937  0.1835E-01  0.6447E-01
    -13.836  0.1357E-01  0.6584E-01
    -13.734  0.6121E-02  0.6646E-01
    -13.633  0.1685E-02  0.6663E-01
    -13.531  0.2864E-03  0.6666E-01
    -13.430  0.8532E-04  0.6667E-01
    -13.328  0.4854E-03  0.6672E-01
    -13.227  0.2519E-02  0.6698E-01
    -13.125  0.7993E-02  0.6779E-01
    -13.024  0.1549E-01  0.6936E-01
    -12.922  0.1847E-01  0.7123E-01
    -12.821  0.1437E-01  0.7269E-01
    -12.719  0.1057E-01  0.7377E-01
    -12.618  0.1336E-01  0.7512E-01
    -12.516  0.1815E-01  0.7696E-01
    -12.415  0.1671E-01  0.7866E-01
    -12.313  0.1026E-01  0.7970E-01
    -12.212  0.7172E-02  0.8043E-01
    -12.110  0.1126E-01  0.8157E-01
    -12.009  0.1740E-01  0.8333E-01
    -11.907  0.1732E-01  0.8509E-01
    -11.806  0.1060E-01  0.8617E-01
    -11.705  0.4280E-02  0.8660E-01
    -11.603  0.2910E-02  0.8690E-01
    -11.502  0.7514E-02  0.8766E-01
    -11.400  0.1749E-01  0.8943E-01
    -11.299  0.2783E-01  0.9226E-01
    -11.197  0.3116E-01  0.9542E-01
    -11.096  0.2491E-01  0.9795E-01
    -10.994  0.1406E-01  0.9937E-01
    -10.893  0.6627E-02  0.1000E+00
    -10.791  0.6985E-02  0.1008E+00
    -10.690  0.1345E-01  0.1021E+00
    -10.588  0.1915E-01  0.1041E+00
    -10.487  0.1946E-01  0.1060E+00
    -10.385  0.1970E-01  0.1080E+00
    -10.284  0.2575E-01  0.1106E+00
    -10.182  0.3460E-01  0.1142E+00
    -10.081  0.4039E-01  0.1183E+00
     -9.979  0.3849E-01  0.1222E+00
     -9.878  0.2869E-01  0.1251E+00
     -9.777  0.1971E-01  0.1271E+00
     -9.675  0.1948E-01  0.1291E+00
     -9.574  0.2487E-01  0.1316E+00
     -9.472  0.3052E-01  0.1347E+00
     -9.371  0.3582E-01  0.1383E+00
     -9.269  0.3738E-01  0.1421E+00
     -9.168  0.3273E-01  0.1454E+00
     -9.066  0.2875E-01  0.1483E+00
     -8.965  0.3068E-01  0.1515E+00
     -8.863  0.3275E-01  0.1548E+00
     -8.762  0.2865E-01  0.1577E+00
     -8.660  0.2176E-01  0.1599E+00
     -8.559  0.1938E-01  0.1619E+00
     -8.457  0.1989E-01  0.1639E+00
     -8.356  0.1597E-01  0.1655E+00
     -8.254  0.8285E-02  0.1663E+00
     -8.153  0.2652E-02  0.1666E+00
     -8.051  0.5182E-03  0.1667E+00
     -7.950  0.6167E-04  0.1667E+00
     -7.848  0.4458E-05  0.1667E+00
     -7.747  0.1955E-06  0.1667E+00
     -7.646  0.5281E-08  0.1667E+00
     -7.544  0.5704E-08  0.1667E+00
     -7.443  0.2095E-06  0.1667E+00
     -7.341  0.4729E-05  0.1667E+00
     -7.240  0.6475E-04  0.1667E+00
     -7.138  0.5386E-03  0.1667E+00
     -7.037  0.2726E-02  0.1670E+00
     -6.935  0.8411E-02  0.1679E+00
     -6.834  0.1584E-01  0.1695E+00
     -6.732  0.1824E-01  0.1713E+00
     -6.631  0.1319E-01  0.1727E+00
     -6.529  0.7719E-02  0.1734E+00
     -6.428  0.8850E-02  0.1743E+00
     -6.326  0.1518E-01  0.1759E+00
     -6.225  0.1847E-01  0.1777E+00
     -6.123  0.1433E-01  0.1792E+00
     -6.022  0.9012E-02  0.1801E+00
     -5.920  0.1019E-01  0.1812E+00
     -5.819  0.1689E-01  0.1829E+00
     -5.717  0.2202E-01  0.1851E+00
     -5.616  0.2318E-01  0.1875E+00
     -5.515  0.2271E-01  0.1898E+00
     -5.413  0.1892E-01  0.1917E+00
     -5.312  0.1108E-01  0.1928E+00
     -5.210  0.4136E-02  0.1932E+00
     -5.109  0.9524E-03  0.1933E+00
     -5.007  0.1339E-03  0.1933E+00
     -4.906  0.1146E-04  0.1933E+00
     -4.804  0.5951E-06  0.1933E+00
     -4.703  0.1872E-07  0.1933E+00
     -4.601  0.3563E-09  0.1933E+00
     -4.500  0.4094E-11  0.1933E+00
     -4.398  0.2838E-13  0.1933E+00
     -4.297  0.1167E-15  0.1933E+00
     -4.195  0.0000E+00  0.1933E+00
     -4.094  0.0000E+00  0.1933E+00
     -3.992  0.0000E+00  0.1933E+00
     -3.891  0.0000E+00  0.1933E+00
     -3.789  0.0000E+00  0.1933E+00
     -3.688  0.0000E+00  0.1933E+00
     -3.587  0.0000E+00  0.1933E+00
     -3.485  0.0000E+00  0.1933E+00
     -3.384  0.0000E+00  0.1933E+00
     -3.282  0.0000E+00  0.1933E+00
     -3.181  0.0000E+00  0.1933E+00
     -3.079  0.0000E+00  0.1933E+00
     -2.978  0.0000E+00  0.1933E+00
     -2.876  0.0000E+00  0.1933E+00
     -2.775  0.0000E+00  0.1933E+00
     -2.673  0.0000E+00  0.1933E+00
     -2.572  0.0000E+00  0.1933E+00
     -2.470  0.0000E+00  0.1933E+00
     -2.369  0.7294E-17  0.1933E+00
     -2.267  0.1822E-14  0.1933E+00
     -2.166  0.3411E-12  0.1933E+00
     -2.064  0.3846E-10  0.1933E+00
     -1.963  0.2617E-08  0.1933E+00
     -1.861  0.1076E-06  0.1933E+00
     -1.760  0.2679E-05  0.1933E+00
     -1.658  0.4043E-04  0.1933E+00
     -1.557  0.3710E-03  0.1934E+00
     -1.456  0.2076E-02  0.1936E+00
     -1.354  0.7140E-02  0.1943E+00
     -1.253  0.1543E-01  0.1959E+00
     -1.151  0.2231E-01  0.1981E+00
     -1.050  0.2474E-01  0.2007E+00
     -0.948  0.2402E-01  0.2031E+00
     -0.847  0.1959E-01  0.2051E+00
     -0.745  0.1281E-01  0.2064E+00
     -0.644  0.1064E-01  0.2075E+00
     -0.542  0.1600E-01  0.2091E+00
     -0.441  0.2401E-01  0.2115E+00
     -0.339  0.3223E-01  0.2148E+00
     -0.238  0.4459E-01  0.2193E+00
     -0.136  0.6168E-01  0.2256E+00
     -0.035  0.8277E-01  0.2340E+00
      0.067  0.1067E+00  0.2448E+00
      0.168  0.1164E+00  0.2566E+00
      0.270  0.9294E-01  0.2660E+00
      0.371  0.5000E-01  0.2711E+00
      0.472  0.1743E-01  0.2729E+00
      0.574  0.3861E-02  0.2733E+00
      0.675  0.5371E-03  0.2733E+00
      0.777  0.4653E-04  0.2733E+00
      0.878  0.2494E-05  0.2733E+00
      0.980  0.8225E-07  0.2733E+00
      1.081  0.1661E-08  0.2733E+00
      1.183  0.2047E-10  0.2733E+00
      1.284  0.1533E-12  0.2733E+00
      1.386  0.6947E-15  0.2733E+00
      1.487  0.0000E+00  0.2733E+00
      1.589  0.0000E+00  0.2733E+00
      1.690  0.0000E+00  0.2733E+00
      1.792  0.0000E+00  0.2733E+00
      1.893  0.0000E+00  0.2733E+00
      1.995  0.0000E+00  0.2733E+00
      2.096  0.0000E+00  0.2733E+00
      2.198  0.0000E+00  0.2733E+00
