   22   22  300    1
  0.1227273E+04  0.3000000E-08  0.3000000E-08  0.3000000E-08  0.0000000E+00
  1.000000000000000E-004
  CAR 
 unknown system                          
     58      4     41
 
  0.2500000E+00  0.2500000E+00  0.2500000E+00  0.2500000E+00
    1      -26.244984   1.000000
    2      -25.552772   1.000000
    3      -23.499054   1.000000
    4      -22.648892   1.000000
    5      -19.644752   1.000000
    6      -18.246848   1.000000
    7      -17.470832   1.000000
    8      -15.829515   1.000000
    9      -14.944587   1.000000
   10      -13.999176   1.000000
   11      -12.989279   1.000000
   12      -12.532167   1.000000
   13      -12.009043   1.000000
   14      -11.346920   1.000000
   15      -11.182108   1.000000
   16      -10.622162   1.000000
   17      -10.279697   1.000000
   18      -10.101526   1.000000
   19       -9.990100   1.000000
   20       -9.620359   1.000000
   21       -9.386348   1.000000
   22       -9.269370   1.000000
   23       -8.988813   1.000000
   24       -8.828114   1.000000
   25       -8.488052   1.000000
   26       -6.805094   1.000000
   27       -6.283773   1.000000
   28       -5.788899   1.000000
   29       -5.510961   1.000000
   30       -1.204147   0.000000
   31       -0.947426   0.000000
   32       -0.485832   0.000000
   33       -0.235034   0.000000
   34       -0.167358   0.000000
   35       -0.048940   0.000000
   36        0.034791   0.000000
   37        0.119353   0.000000
   38        0.130294   0.000000
   39        0.133162   0.000000
   40        0.175892   0.000000
   41        0.195153   0.000000
 
 -0.2500000E+00  0.2500000E+00  0.2500000E+00  0.2500000E+00
    1      -26.244985   1.000000
    2      -25.552772   1.000000
    3      -23.499053   1.000000
    4      -22.648891   1.000000
    5      -19.644750   1.000000
    6      -18.246850   1.000000
    7      -17.470831   1.000000
    8      -15.829512   1.000000
    9      -14.944587   1.000000
   10      -13.999181   1.000000
   11      -12.989275   1.000000
   12      -12.532169   1.000000
   13      -12.009038   1.000000
   14      -11.346942   1.000000
   15      -11.182098   1.000000
   16      -10.622164   1.000000
   17      -10.279697   1.000000
   18      -10.101529   1.000000
   19       -9.990096   1.000000
   20       -9.620359   1.000000
   21       -9.386351   1.000000
   22       -9.269377   1.000000
   23       -8.988819   1.000000
   24       -8.828124   1.000000
   25       -8.488051   1.000000
   26       -6.805088   1.000000
   27       -6.283790   1.000000
   28       -5.788891   1.000000
   29       -5.510955   1.000000
   30       -1.204169   0.000000
   31       -0.947427   0.000000
   32       -0.485832   0.000000
   33       -0.235016   0.000000
   34       -0.167478   0.000000
   35       -0.048742   0.000000
   36        0.038055   0.000000
   37        0.104010   0.000000
   38        0.125930   0.000000
   39        0.141786   0.000000
   40        0.186081   0.000000
   41        0.194631   0.000000
 
  0.2500000E+00 -0.2500000E+00  0.2500000E+00  0.2500000E+00
    1      -26.244986   1.000000
    2      -25.552772   1.000000
    3      -23.499055   1.000000
    4      -22.648889   1.000000
    5      -19.644752   1.000000
    6      -18.246850   1.000000
    7      -17.470829   1.000000
    8      -15.829514   1.000000
    9      -14.944583   1.000000
   10      -13.999185   1.000000
   11      -12.989272   1.000000
   12      -12.532168   1.000000
   13      -12.009036   1.000000
   14      -11.346925   1.000000
   15      -11.182106   1.000000
   16      -10.622165   1.000000
   17      -10.279707   1.000000
   18      -10.101523   1.000000
   19       -9.990114   1.000000
   20       -9.620364   1.000000
   21       -9.386351   1.000000
   22       -9.269372   1.000000
   23       -8.988807   1.000000
   24       -8.828130   1.000000
   25       -8.488050   1.000000
   26       -6.805082   1.000000
   27       -6.283777   1.000000
   28       -5.788880   1.000000
   29       -5.510962   1.000000
   30       -1.204149   0.000000
   31       -0.947431   0.000000
   32       -0.485840   0.000000
   33       -0.235015   0.000000
   34       -0.167383   0.000000
   35       -0.049663   0.000000
   36        0.041098   0.000000
   37        0.100740   0.000000
   38        0.126684   0.000000
   39        0.141028   0.000000
   40        0.185662   0.000000
   41        0.196178   0.000000
 
 -0.2500000E+00 -0.2500000E+00  0.2500000E+00  0.2500000E+00
    1      -26.244986   1.000000
    2      -25.552771   1.000000
    3      -23.499056   1.000000
    4      -22.648892   1.000000
    5      -19.644750   1.000000
    6      -18.246850   1.000000
    7      -17.470833   1.000000
    8      -15.829511   1.000000
    9      -14.944585   1.000000
   10      -13.999176   1.000000
   11      -12.989273   1.000000
   12      -12.532173   1.000000
   13      -12.009033   1.000000
   14      -11.346928   1.000000
   15      -11.182105   1.000000
   16      -10.622162   1.000000
   17      -10.279704   1.000000
   18      -10.101524   1.000000
   19       -9.990111   1.000000
   20       -9.620361   1.000000
   21       -9.386353   1.000000
   22       -9.269380   1.000000
   23       -8.988808   1.000000
   24       -8.828119   1.000000
   25       -8.488054   1.000000
   26       -6.805074   1.000000
   27       -6.283778   1.000000
   28       -5.788889   1.000000
   29       -5.510980   1.000000
   30       -1.204160   0.000000
   31       -0.947431   0.000000
   32       -0.485823   0.000000
   33       -0.235038   0.000000
   34       -0.167393   0.000000
   35       -0.049146   0.000000
   36        0.038465   0.000000
   37        0.104998   0.000000
   38        0.131698   0.000000
   39        0.140552   0.000000
   40        0.174552   0.000000
   41        0.197568   0.000000
