 vasp.5.4.1 24Jun15 (build Jan 13 2020 12:58:22) complex                        
  
 executed on           IFC91_ompi date 2020.02.03  09:59:13
 running on   15 total cores
 each image running on    1 cores
 distrk:  each k-point on    1 cores,    1 groups
 distr:  one band on NCORES_PER_BAND=   1 cores,    1 groups


--------------------------------------------------------------------------------------------------------


 INCAR:
 POTCAR:    PAW_PBE H 15Jun2001                   
 POTCAR:    PAW_PBE C 08Apr2002                   
 POTCAR:    PAW_PBE N 08Apr2002                   
 POTCAR:    PAW_PBE O 08Apr2002                   
 POTCAR:    PAW_PBE H 15Jun2001                   
   VRHFIN =H: ultrasoft test                                                    
   LEXCH  = PE                                                                  
   EATOM  =    12.4884 eV,    0.9179 Ry                                         
                                                                                
   TITEL  = PAW_PBE H 15Jun2001                                                 
   LULTRA =        F    use ultrasoft PP ?                                      
   IUNSCR =        0    unscreen: 0-lin 1-nonlin 2-no                           
   RPACOR =    0.000    partial core radius                                     
   POMASS =    1.000; ZVAL   =    1.000    mass and valenz                      
   RCORE  =    1.100    outmost cutoff radius                                   
   RWIGS  =    0.700; RWIGS  =    0.370    wigner-seitz radius (au A)           
   ENMAX  =  250.000; ENMIN  =  200.000 eV                                      
   RCLOC  =    0.701    cutoff for local pot                                    
   LCOR   =        T    correct aug charges                                     
   LPAW   =        T    paw PP                                                  
   EAUG   =  400.000                                                            
   RMAX   =    1.123    core radius for proj-oper                               
   RAUG   =    1.200    factor for augmentation sphere                          
   RDEP   =    1.112    radius for radial grids                                 
   RDEPT  =    0.926    core radius for aug-charge                              
                                                                                
   Atomic configuration                                                         
    2 entries                                                                   
     n  l   j            E        occ.                                          
     1  0  0.50        -6.4927   1.0000                                         
     2  1  0.50        -3.4015   0.0000                                         
   Description                                                                  
     l       E           TYP  RCUT    TYP  RCUT                                 
     0     -6.4927494     23  1.100                                             
     0      6.8029130     23  1.100                                             
     1     -4.0817478     23  1.100                                             
  local pseudopotential read in
  atomic valenz-charges read in
  non local Contribution for L=           0  read in
    real space projection operators read in
  non local Contribution for L=           0  read in
    real space projection operators read in
  non local Contribution for L=           1  read in
    real space projection operators read in
    PAW grid and wavefunctions read in
 
   number of l-projection  operators is LMAX  =           3
   number of lm-projection operators is LMMAX =           5
 
 POTCAR:    PAW_PBE C 08Apr2002                   
   VRHFIN =C: s2p2                                                              
   LEXCH  = PE                                                                  
   EATOM  =   147.1560 eV,   10.8157 Ry                                         
                                                                                
   TITEL  = PAW_PBE C 08Apr2002                                                 
   LULTRA =        F    use ultrasoft PP ?                                      
   IUNSCR =        1    unscreen: 0-lin 1-nonlin 2-no                           
   RPACOR =    1.200    partial core radius                                     
   POMASS =   12.011; ZVAL   =    4.000    mass and valenz                      
   RCORE  =    1.500    outmost cutoff radius                                   
   RWIGS  =    1.630; RWIGS  =    0.863    wigner-seitz radius (au A)           
   ENMAX  =  400.000; ENMIN  =  300.000 eV                                      
   ICORE  =        2    local potential                                         
   LCOR   =        T    correct aug charges                                     
   LPAW   =        T    paw PP                                                  
   EAUG   =  644.873                                                            
   DEXC   =    0.000                                                            
   RMAX   =    1.529    core radius for proj-oper                               
   RAUG   =    1.300    factor for augmentation sphere                          
   RDEP   =    1.501    radius for radial grids                                 
   RDEPT  =    1.300    core radius for aug-charge                              
                                                                                
   Atomic configuration                                                         
    4 entries                                                                   
     n  l   j            E        occ.                                          
     1  0  0.50      -273.3789   2.0000                                         
     2  0  0.50       -13.7508   2.0000                                         
     2  1  0.50        -5.2854   2.0000                                         
     3  2  1.50        -5.4423   0.0000                                         
   Description                                                                  
     l       E           TYP  RCUT    TYP  RCUT                                 
     0    -13.7508458     23  1.200                                             
     0     -8.2022199     23  1.200                                             
     1     -5.2854383     23  1.500                                             
     1     34.0145650     23  1.500                                             
     2     -5.4423304      7  1.500                                             
  local pseudopotential read in
  partial core-charges read in
  partial kinetic energy density read in
  atomic valenz-charges read in
  non local Contribution for L=           0  read in
    real space projection operators read in
  non local Contribution for L=           0  read in
    real space projection operators read in
  non local Contribution for L=           1  read in
    real space projection operators read in
  non local Contribution for L=           1  read in
    real space projection operators read in
    PAW grid and wavefunctions read in
 
   number of l-projection  operators is LMAX  =           4
   number of lm-projection operators is LMMAX =           8
 
 POTCAR:    PAW_PBE N 08Apr2002                   
   VRHFIN =N: s2p3                                                              
   LEXCH  = PE                                                                  
   EATOM  =   264.5486 eV,   19.4438 Ry                                         
                                                                                
   TITEL  = PAW_PBE N 08Apr2002                                                 
   LULTRA =        F    use ultrasoft PP ?                                      
   IUNSCR =        1    unscreen: 0-lin 1-nonlin 2-no                           
   RPACOR =    1.200    partial core radius                                     
   POMASS =   14.001; ZVAL   =    5.000    mass and valenz                      
   RCORE  =    1.500    outmost cutoff radius                                   
   RWIGS  =    1.400; RWIGS  =    0.741    wigner-seitz radius (au A)           
   ENMAX  =  400.000; ENMIN  =  300.000 eV                                      
   ICORE  =        2    local potential                                         
   LCOR   =        T    correct aug charges                                     
   LPAW   =        T    paw PP                                                  
   EAUG   =  627.112                                                            
   DEXC   =    0.000                                                            
   RMAX   =    1.529    core radius for proj-oper                               
   RAUG   =    1.300    factor for augmentation sphere                          
   RDEP   =    1.514    radius for radial grids                                 
   RDEPT  =    1.338    core radius for aug-charge                              
                                                                                
   Atomic configuration                                                         
    4 entries                                                                   
     n  l   j            E        occ.                                          
     1  0  0.50      -384.7179   2.0000                                         
     2  0  0.50       -18.5828   2.0000                                         
     2  1  0.50        -7.0898   3.0000                                         
     3  2  1.50        -6.8029   0.0000                                         
   Description                                                                  
     l       E           TYP  RCUT    TYP  RCUT                                 
     0    -18.5828119     23  1.200                                             
     0    -13.5018863     23  1.200                                             
     1     -7.0897853     23  1.500                                             
     1      9.5240782     23  1.500                                             
     2     -6.8029130      7  1.500                                             
  local pseudopotential read in
  partial core-charges read in
  partial kinetic energy density read in
  atomic valenz-charges read in
  non local Contribution for L=           0  read in
    real space projection operators read in
  non local Contribution for L=           0  read in
    real space projection operators read in
  non local Contribution for L=           1  read in
    real space projection operators read in
  non local Contribution for L=           1  read in
    real space projection operators read in
    PAW grid and wavefunctions read in
 
   number of l-projection  operators is LMAX  =           4
   number of lm-projection operators is LMMAX =           8
 
 POTCAR:    PAW_PBE O 08Apr2002                   
   VRHFIN =O: s2p4                                                              
   LEXCH  = PE                                                                  
   EATOM  =   432.3788 eV,   31.7789 Ry                                         
                                                                                
   TITEL  = PAW_PBE O 08Apr2002                                                 
   LULTRA =        F    use ultrasoft PP ?                                      
   IUNSCR =        1    unscreen: 0-lin 1-nonlin 2-no                           
   RPACOR =    1.200    partial core radius                                     
   POMASS =   16.000; ZVAL   =    6.000    mass and valenz                      
   RCORE  =    1.520    outmost cutoff radius                                   
   RWIGS  =    1.550; RWIGS  =    0.820    wigner-seitz radius (au A)           
   ENMAX  =  400.000; ENMIN  =  300.000 eV                                      
   ICORE  =        2    local potential                                         
   LCOR   =        T    correct aug charges                                     
   LPAW   =        T    paw PP                                                  
   EAUG   =  605.392                                                            
   DEXC   =    0.000                                                            
   RMAX   =    1.553    core radius for proj-oper                               
   RAUG   =    1.300    factor for augmentation sphere                          
   RDEP   =    1.550    radius for radial grids                                 
   RDEPT  =    1.329    core radius for aug-charge                              
                                                                                
   Atomic configuration                                                         
    4 entries                                                                   
     n  l   j            E        occ.                                          
     1  0  0.50      -514.6923   2.0000                                         
     2  0  0.50       -23.9615   2.0000                                         
     2  1  0.50        -9.0305   4.0000                                         
     3  2  1.50        -9.5241   0.0000                                         
   Description                                                                  
     l       E           TYP  RCUT    TYP  RCUT                                 
     0    -23.9615318     23  1.200                                             
     0     -9.5240782     23  1.200                                             
     1     -9.0304911     23  1.520                                             
     1      8.1634956     23  1.520                                             
     2     -9.5240782      7  1.500                                             
  local pseudopotential read in
  partial core-charges read in
  partial kinetic energy density read in
  kinetic energy density of atom read in
  atomic valenz-charges read in
  non local Contribution for L=           0  read in
    real space projection operators read in
  non local Contribution for L=           0  read in
    real space projection operators read in
  non local Contribution for L=           1  read in
    real space projection operators read in
  non local Contribution for L=           1  read in
    real space projection operators read in
    PAW grid and wavefunctions read in
 
   number of l-projection  operators is LMAX  =           4
   number of lm-projection operators is LMMAX =           8
 
 Optimization of the real space projectors (new method)

 maximal supplied QI-value         = 34.20
 optimisation between [QCUT,QGAM] = [  9.92, 20.18] = [ 27.55,114.04] Ry 
 Optimized for a Real-space Cutoff    1.26 Angstroem

   l    n(q)    QCUT    max X(q) W(low)/X(q) W(high)/X(q)  e(spline) 
   0      8     9.919    19.460    0.50E-03    0.23E-03    0.29E-06
   0      8     9.919    12.209    0.48E-03    0.23E-03    0.28E-06
   1      7     9.919     4.655    0.17E-03    0.75E-03    0.30E-06
 Optimization of the real space projectors (new method)

 maximal supplied QI-value         = 25.13
 optimisation between [QCUT,QGAM] = [ 10.05, 20.36] = [ 28.30,116.06] Ry 
 Optimized for a Real-space Cutoff    1.30 Angstroem

   l    n(q)    QCUT    max X(q) W(low)/X(q) W(high)/X(q)  e(spline) 
   0      8    10.053   115.676    0.49E-03    0.72E-03    0.18E-06
   0      8    10.053    87.132    0.49E-03    0.71E-03    0.18E-06
   1      7    10.053     4.429    0.32E-03    0.31E-03    0.18E-06
   1      7    10.053     2.733    0.23E-03    0.19E-03    0.20E-06
 Optimization of the real space projectors (new method)

 maximal supplied QI-value         = 25.13
 optimisation between [QCUT,QGAM] = [ 10.05, 20.36] = [ 28.30,116.06] Ry 
 Optimized for a Real-space Cutoff    1.65 Angstroem

   l    n(q)    QCUT    max X(q) W(low)/X(q) W(high)/X(q)  e(spline) 
   0     10    10.053    79.467    0.76E-04    0.72E-04    0.56E-06
   0     10    10.053    66.151    0.76E-04    0.72E-04    0.55E-06
   1     10    10.053     8.350    0.25E-03    0.92E-03    0.41E-05
   1     10    10.053     5.531    0.27E-03    0.10E-02    0.45E-05
 Optimization of the real space projectors (new method)

 maximal supplied QI-value         = 24.76
 optimisation between [QCUT,QGAM] = [ 10.15, 20.30] = [ 28.85,115.39] Ry 
 Optimized for a Real-space Cutoff    1.38 Angstroem

   l    n(q)    QCUT    max X(q) W(low)/X(q) W(high)/X(q)  e(spline) 
   0      8    10.150    20.381    0.22E-03    0.32E-03    0.29E-06
   0      8    10.150    15.268    0.23E-03    0.35E-03    0.30E-06
   1      8    10.150     5.964    0.46E-03    0.53E-03    0.21E-06
   1      8    10.150     5.382    0.38E-03    0.45E-03    0.19E-06
  PAW_PBE H 15Jun2001                   :
 energy of atom  1       EATOM=  -12.4884
 kinetic energy error for atom=    0.0098 (will be added to EATOM!!)
  PAW_PBE C 08Apr2002                   :
 energy of atom  2       EATOM= -147.1560
 kinetic energy error for atom=    0.0288 (will be added to EATOM!!)
  PAW_PBE N 08Apr2002                   :
 energy of atom  3       EATOM= -264.5486
 kinetic energy error for atom=    0.0736 (will be added to EATOM!!)
  PAW_PBE O 08Apr2002                   :
 energy of atom  4       EATOM= -432.3788
 kinetic energy error for atom=    0.1156 (will be added to EATOM!!)
 
 
 POSCAR: H12 C6 N2 O2                            
  positions in direct lattice
  velocities in cartesian coordinates
 exchange correlation table for  LEXCH =        8
   RHO(1)=    0.500       N(1)  =     2000
   RHO(2)=  100.500       N(2)  =     4000

 VTST: version 3.2, (02/03/18)

 CHAIN: initializing optimizer
 
 OPT: Using FIRE optimizer
 OPT: FIRE, Init
 OPT: FIRE, MAXMOVE       0.20000
 OPT: FIRE, TIMESTEP      0.10000
 OPT: FIRE, FTIMEMAX      1.00000
 OPT: FIRE, FTIMEINC      1.10000
 OPT: FIRE, FTIMEDEC      0.50000
 OPT: FIRE, FALPHADEC     0.99000
 OPT: FIRE, FALPHA        0.10000
 OPT: FIRE, FNMIN         5
 
 CHAIN: Read ICHAIN            0
 CHAIN: Running the NEB
 NEB:          SPRING     -5.000000
 NEB:          LCLIMB      T
 NEB:     LTANGENTOLD      F
 NEB:           LDNEB      F
 NEB:        LDNEBORG      F
 NEB:        LNEBCELL      F
 NEB:          EFIRST      0.000000
 NEB:           ELAST      0.000000
 
 POSCAR: H12 C6 N2 O2                            
  positions in direct lattice
  No initial velocities read in
 
 POSCAR: H12 C6 N2 O2                            
  positions in direct lattice
  No initial velocities read in
 


--------------------------------------------------------------------------------------------------------


 ion  position               nearest neighbor table
   1  0.377  0.545  0.500-  13 1.09
   2  0.385  0.496  0.466-  13 1.10
   3  0.380  0.490  0.525-  13 1.10
   4  0.451  0.455  0.484-  19 1.01
   5  0.505  0.464  0.554-  15 1.10
   6  0.557  0.414  0.505-  16 1.10
   7  0.517  0.423  0.462-  16 1.10
   8  0.500  0.395  0.511-  16 1.09
   9  0.513  0.553  0.512-  20 1.04
  10  0.611  0.552  0.486-  18 1.10
  11  0.570  0.572  0.448-  18 1.10
  12  0.580  0.602  0.498-  18 1.10
  13  0.393  0.512  0.498-   1 1.09   2 1.10   3 1.10  14 1.51
  14  0.442  0.518  0.506-  21 1.25  19 1.36  13 1.51
  15  0.510  0.467  0.518-   5 1.10  19 1.48  16 1.52  17 1.54
  16  0.522  0.422  0.498-   8 1.09   6 1.10   7 1.10  15 1.52
  17  0.551  0.497  0.510-  22 1.24  20 1.35  15 1.54
  18  0.578  0.568  0.484-  12 1.10  10 1.10  11 1.10  20 1.44
  19  0.468  0.481  0.497-   4 1.01  14 1.36  15 1.48
  20  0.545  0.541  0.505-   9 1.04  17 1.35  18 1.44
  21  0.457  0.553  0.522-  14 1.25
  22  0.588  0.479  0.509-  17 1.24
 
  LATTYP: Found a simple cubic cell.
 ALAT       =    30.0000000000
  
  Lattice vectors:
  
 A1 = (  30.0000000000,   0.0000000000,   0.0000000000)
 A2 = (   0.0000000000,  30.0000000000,   0.0000000000)
 A3 = (   0.0000000000,   0.0000000000,  30.0000000000)


Analysis of symmetry for initial positions (statically):
=====================================================================
 Subroutine PRICEL returns:
 Original cell was already a primitive cell.
 

 Routine SETGRP: Setting up the symmetry group for a 
 simple cubic supercell.


 Subroutine GETGRP returns: Found  1 space group operations
 (whereof  1 operations were pure point group operations)
 out of a pool of 48 trial point group operations.


The static configuration has the point symmetry C_1 .


Analysis of symmetry for dynamics (positions and initial velocities):
=====================================================================
 Subroutine PRICEL returns:
 Original cell was already a primitive cell.
 

 Routine SETGRP: Setting up the symmetry group for a 
 simple cubic supercell.


 Subroutine GETGRP returns: Found  1 space group operations
 (whereof  1 operations were pure point group operations)
 out of a pool of 48 trial point group operations.


The dynamic configuration has the point symmetry C_1 .
 
 
 KPOINTS: Mo2C                                    

Automatic generation of k-mesh.
Space group operators:
 irot       det(A)        alpha          n_x          n_y          n_z        tau_x        tau_y        tau_z
    1     1.000000     0.000000     1.000000     0.000000     0.000000     0.000000     0.000000     0.000000
 
 Subroutine IBZKPT returns following result:
 ===========================================
 
 Found      4 irreducible k-points:
 
 Following reciprocal coordinates:
            Coordinates               Weight
  0.250000  0.250000  0.250000      2.000000
 -0.250000  0.250000  0.250000      2.000000
  0.250000 -0.250000  0.250000      2.000000
 -0.250000 -0.250000  0.250000      2.000000
 
 Following cartesian coordinates:
            Coordinates               Weight
  0.008333  0.008333  0.008333      2.000000
 -0.008333  0.008333  0.008333      2.000000
  0.008333 -0.008333  0.008333      2.000000
 -0.008333 -0.008333  0.008333      2.000000
 


--------------------------------------------------------------------------------------------------------




 Dimension of arrays:
   k-points           NKPTS =      4   k-points in BZ     NKDIM =      4   number of bands    NBANDS=     41
   number of dos      NEDOS =    301   number of ions     NIONS =     22
   non local maximal  LDIM  =      4   non local SUM 2l+1 LMDIM =      8
   total plane-waves  NPLWV = ******
   max r-space proj   IRMAX =   2395   max aug-charges    IRDMAX=   1821
   dimension x,y,z NGX =   150 NGY =  150 NGZ =  150
   dimension x,y,z NGXF=   300 NGYF=  300 NGZF=  300
   support grid    NGXF=   300 NGYF=  300 NGZF=  300
   ions per type =              12   6   2   2
 NGX,Y,Z   is equivalent  to a cutoff of   8.31,  8.31,  8.31 a.u.
 NGXF,Y,Z  is equivalent  to a cutoff of  16.62, 16.62, 16.62 a.u.


 I would recommend the setting:
   dimension x,y,z NGX =   147 NGY =  147 NGZ =  147
 SYSTEM =  unknown system                          
 POSCAR =  H12 C6 N2 O2                            

 Startparameter for this run:
   NWRITE =      2    write-flag & timer
   PREC   = normal    normal or accurate (medium, high low for compatibility)
   ISTART =      0    job   : 0-new  1-cont  2-samecut
   ICHARG =      2    charge: 1-file 2-atom 10-const
   ISPIN  =      1    spin polarized calculation?
   LNONCOLLINEAR =      F non collinear calculations
   LSORBIT =      F    spin-orbit coupling
   INIWAV =      1    electr: 0-lowe 1-rand  2-diag
   LASPH  =      F    aspherical Exc in radial PAW
   METAGGA=      F    non-selfconsistent MetaGGA calc.

 Electronic Relaxation 1
   ENCUT  =  400.0 eV  29.40 Ry    5.42 a.u.  48.92 48.92 48.92*2*pi/ulx,y,z
   ENINI  =  400.0     initial cutoff
   ENAUG  =  644.9 eV  augmentation charge cutoff
   NELM   =    500;   NELMIN=  6; NELMDL= -5     # of ELM steps 
   EDIFF  = 0.1E-03   stopping-criterion for ELM
   LREAL  =      T    real-space projection
   NLSPLINE    = F    spline interpolate recip. space projectors
   LCOMPAT=      F    compatible to vasp.4.4
   GGA_COMPAT  = T    GGA compatible to vasp.4.4-vasp.4.6
   LMAXPAW     = -100 max onsite density
   LMAXMIX     =    2 max onsite mixed and CHGCAR
   VOSKOWN=      0    Vosko Wilk Nusair interpolation
   ROPT   =   -0.00050  -0.00050  -0.00050  -0.00050
 Ionic relaxation
   EDIFFG = -.1E+00   stopping-criterion for IOM
   NSW    =    300    number of steps for IOM
   NBLOCK =      1;   KBLOCK =    300    inner block; outer block 
   IBRION =      3    ionic relax: 0-MD 1-quasi-New 2-CG
   NFREE  =      0    steps in history (QN), initial steepest desc. (CG)
   ISIF   =      2    stress and relaxation
   IWAVPR =     11    prediction:  0-non 1-charg 2-wave 3-comb
   ISYM   =      2    0-nonsym 1-usesym 2-fastsym
   LCORR  =      T    Harris-Foulkes like correction to forces

   POTIM  = 0.0000    time-step for ionic-motion
   TEIN   =    0.0    initial temperature
   TEBEG  =    0.0;   TEEND  =   0.0 temperature during run
   SMASS  =   2.00    Nose mass-parameter (am)
   estimated Nose-frequenzy (Omega)   =  0.24E+10 period in steps =  0.00 mass=   0.137E-25a.u.
   SCALEE = 1.0000    scale energy and forces
   NPACO  =    256;   APACO  = 16.0  distance and # of slots for P.C.
   PSTRESS=    0.0 pullay stress

  Mass of Ions in am
   POMASS =   1.00 12.01 14.00 16.00
  Ionic Valenz
   ZVAL   =   1.00  4.00  5.00  6.00
  Atomic Wigner-Seitz radii
   RWIGS  =  -1.00 -1.00 -1.00 -1.00
  virtual crystal weights 
   VCA    =   1.00  1.00  1.00  1.00
   NELECT =      58.0000    total number of electrons
   NUPDOWN=      -1.0000    fix difference up-down

 DOS related values:
   EMIN   =  10.00;   EMAX   =-10.00  energy-range for DOS
   EFERMI =   0.00
   ISMEAR =     0;   SIGMA  =   0.20  broadening in eV -4-tet -1-fermi 0-gaus

 Electronic relaxation 2 (details)
   IALGO  =     38    algorithm
   LDIAG  =      T    sub-space diagonalisation (order eigenvalues)
   LSUBROT=      F    optimize rotation matrix (better conditioning)
   TURBO    =      0    0=normal 1=particle mesh
   IRESTART =      0    0=no restart 2=restart with 2 vectors
   NREBOOT  =      0    no. of reboots
   NMIN     =      0    reboot dimension
   EREF     =   0.00    reference energy to select bands
   IMIX   =      4    mixing-type and parameters
     AMIX     =   0.40;   BMIX     =  1.00
     AMIX_MAG =   1.60;   BMIX_MAG =  1.00
     AMIN     =   0.10
     WC   =   100.;   INIMIX=   1;  MIXPRE=   1;  MAXMIX= -45

 Intra band minimization:
   WEIMIN = 0.0010     energy-eigenvalue tresh-hold
   EBREAK =  0.61E-06  absolut break condition
   DEPER  =   0.30     relativ break condition  

   TIME   =   0.40     timestep for ELM

  volume/ion in A,a.u.               =    1227.27      8282.05
  Fermi-wavevector in a.u.,A,eV,Ry     =   0.211234  0.399174  0.607087  0.044620
  Thomas-Fermi vector in A             =   0.980021
 
 Write flags
   LWAVE  =      F    write WAVECAR
   LCHARG =      F    write CHGCAR
   LVTOT  =      F    write LOCPOT, total local potential
   LVHAR  =      F    write LOCPOT, Hartree potential only
   LELF   =      F    write electronic localiz. function (ELF)
   LORBIT =      0    0 simple, 1 ext, 2 COOP (PROOUT)


 Dipole corrections
   LMONO  =      F    monopole corrections only (constant potential shift)
   LDIPOL =      F    correct potential (dipole corrections)
   IDIPOL =      0    1-x, 2-y, 3-z, 4-all directions 
   EPSILON=  1.0000000 bulk dielectric constant

 Exchange correlation treatment:
   GGA     =    PE    GGA type
   LEXCH   =     8    internal setting for exchange type
   VOSKOWN=      0    Vosko Wilk Nusair interpolation
   LHFCALC =     F    Hartree Fock is set to
   LHFONE  =     F    Hartree Fock one center treatment
   AEXX    =    0.0000 exact exchange contribution

 Linear response parameters
   LEPSILON=     F    determine dielectric tensor
   LRPA    =     F    only Hartree local field effects (RPA)
   LNABLA  =     F    use nabla operator in PAW spheres
   LVEL    =     F    velocity operator in full k-point grid
   LINTERFAST=   F  fast interpolation
   KINTER  =     0    interpolate to denser k-point grid
   CSHIFT  =0.1000    complex shift for real part using Kramers Kronig
   OMEGAMAX=  -1.0    maximum frequency
   DEG_THRESHOLD= 0.2000000E-02 threshold for treating states as degnerate
   RTIME   =    0.100 relaxation time in fs

 Orbital magnetization related:
   ORBITALMAG=     F  switch on orbital magnetization
   LCHIMAG   =     F  perturbation theory with respect to B field
   DQ        =  0.001000  dq finite difference perturbation B field



--------------------------------------------------------------------------------------------------------


 quickmin algorithm: (dynamic with friction)
 charge density and potential will be updated during run
 non-spin polarized calculation
 Variant of blocked Davidson
 Davidson routine will perform the subspace rotation
 perform sub-space diagonalisation
    after iterative eigenvector-optimisation
 modified Broyden-mixing scheme, WC =      100.0
 initial mixing is a Kerker type mixing with AMIX =  0.4000 and BMIX =      1.0000
 Hartree-type preconditioning will be used
 using additional bands           12
 real space projection scheme for non local part
 use partial core corrections
 calculate Harris-corrections to forces 
   (improved forces if not selfconsistent)
 use gradient corrections 
 use of overlap-Matrix (Vanderbilt PP)
 Gauss-broadening in eV      SIGMA  =   0.20


--------------------------------------------------------------------------------------------------------


  energy-cutoff  :      400.00
  volume of cell :    27000.00
      direct lattice vectors                 reciprocal lattice vectors
    30.000000000  0.000000000  0.000000000     0.033333333  0.000000000  0.000000000
     0.000000000 30.000000000  0.000000000     0.000000000  0.033333333  0.000000000
     0.000000000  0.000000000 30.000000000     0.000000000  0.000000000  0.033333333

  length of vectors
    30.000000000 30.000000000 30.000000000     0.033333333  0.033333333  0.033333333


 
 k-points in units of 2pi/SCALE and weight: Mo2C                                    
   0.00833333  0.00833333  0.00833333       0.250
  -0.00833333  0.00833333  0.00833333       0.250
   0.00833333 -0.00833333  0.00833333       0.250
  -0.00833333 -0.00833333  0.00833333       0.250
 
 k-points in reciprocal lattice and weights: Mo2C                                    
   0.25000000  0.25000000  0.25000000       0.250
  -0.25000000  0.25000000  0.25000000       0.250
   0.25000000 -0.25000000  0.25000000       0.250
  -0.25000000 -0.25000000  0.25000000       0.250
 
 position of ions in fractional coordinates (direct lattice) 
   0.37715605  0.54457933  0.50047992
   0.38514533  0.49609752  0.46605371
   0.38024205  0.49036407  0.52489475
   0.45096255  0.45493817  0.48383589
   0.50480501  0.46412229  0.55414845
   0.55655263  0.41363006  0.50543854
   0.51718860  0.42272693  0.46204638
   0.49987079  0.39507732  0.51116705
   0.51312826  0.55334708  0.51193337
   0.61068593  0.55180183  0.48640407
   0.57033862  0.57232748  0.44789788
   0.57983948  0.60181994  0.49817491
   0.39320137  0.51192494  0.49811664
   0.44245109  0.51767954  0.50624370
   0.51017770  0.46706061  0.51788167
   0.52155117  0.42151643  0.49840218
   0.55142784  0.49689608  0.51026615
   0.57816526  0.56833846  0.48355662
   0.46768903  0.48100050  0.49726418
   0.54458239  0.54110459  0.50476281
   0.45734774  0.55309880  0.52199601
   0.58847204  0.47878914  0.50878126
 
 position of ions in cartesian coordinates  (Angst):
  11.31468136 16.33738002 15.01439745
  11.55435980 14.88292554 13.98161142
  11.40726161 14.71092211 15.74684241
  13.52887635 13.64814499 14.51507679
  15.14415035 13.92366855 16.62445353
  16.69657877 12.40890192 15.16315630
  15.51565811 12.68180780 13.86139137
  14.99612365 11.85231952 15.33501165
  15.39384784 16.60041247 15.35800118
  18.32057779 16.55405486 14.59212221
  17.11015874 17.16982430 13.43693652
  17.39518426 18.05459827 14.94524738
  11.79604101 15.35774826 14.94349924
  13.27353261 15.53038611 15.18731114
  15.30533090 14.01181820 15.53645020
  15.64653499 12.64549283 14.95206543
  16.54283534 14.90688253 15.30798436
  17.34495768 17.05015389 14.50669859
  14.03067079 14.43001489 14.91792531
  16.33747168 16.23313761 15.14288439
  13.72043225 16.59296399 15.65988028
  17.65416134 14.36367411 15.26343786
 


--------------------------------------------------------------------------------------------------------


 k-point  1 :   0.2500 0.2500 0.2500  plane waves:  490454
 k-point  2 :  -0.2500 0.2500 0.2500  plane waves:  490454
 k-point  3 :   0.2500-0.2500 0.2500  plane waves:  490454
 k-point  4 :  -0.2500-0.2500 0.2500  plane waves:  490454

 maximum and minimum number of plane-waves per node :    490454   490454

 maximum number of plane-waves:    490454
 maximum index in each direction: 
   IXMAX=   49   IYMAX=   49   IZMAX=   48
   IXMIN=  -49   IYMIN=  -49   IZMIN=  -49

 WARNING: aliasing errors must be expected set NGX to 198 to avoid them
 WARNING: aliasing errors must be expected set NGY to 198 to avoid them
 WARNING: aliasing errors must be expected set NGZ to 196 to avoid them
 aliasing errors are usually negligible using standard VASP settings
 and one can safely disregard these warnings

 serial   3D FFT for wavefunctions
 parallel 3D FFT for charge:
    minimum data exchange during FFTs selected (reduces bandwidth)


 total amount of memory used by VASP on root node  4333702. kBytes
========================================================================

   base      :      30000. kBytes
   nonlr-proj:       2397. kBytes
   fftplans  :     924480. kBytes
   grid      :    2089440. kBytes
   one-center:         67. kBytes
   wavefun   :    1287318. kBytes
 
     INWAV:  cpu time    0.0010: real time    0.0003
 Broyden mixing: mesh for mixing (old mesh)
   NGX = 97   NGY = 97   NGZ = 97
  (NGX  =300   NGY  =300   NGZ  =300)
  gives a total of 912673 points

 initial charge density was supplied:
 charge density of overlapping atoms calculated
 number of electron      58.0000000 magnetization 
 keeping initial charge density in first step


--------------------------------------------------------------------------------------------------------


 Maximum index for non-local projection operator         2268
 Maximum index for augmentation-charges         1570 (set IRDMAX)


--------------------------------------------------------------------------------------------------------


 First call to EWALD:  gamma=   0.059
 Maximum number of real-space cells 3x 3x 3
 Maximum number of reciprocal cells 3x 3x 3

 FEWALD executed in parallel
    FEWALD:  cpu time    0.0040: real time    0.0047


----------------------------------------- Iteration    1(   1)  ---------------------------------------


    POTLOK:  cpu time   19.3391: real time   19.3265
    SETDIJ:  cpu time    0.0280: real time    0.0282
     EDDAV:  cpu time  249.2601: real time  249.0556
       DOS:  cpu time    0.0010: real time    0.0009
    --------------------------------------------
      LOOP:  cpu time  268.6322: real time  268.4158

 eigenvalue-minimisations  :   392
 total energy-change (2. order) : 0.6100901E+03  (-0.7990205E+03)
 number of electron      58.0000000 magnetization 
 augmentation part       58.0000000 magnetization 

 Free energy of the ion-electron system (eV)
  ---------------------------------------------------
  alpha Z        PSCENC =         0.51957394
  Ewald energy   TEWEN  =      6109.65804665
  -Hartree energ DENC   =     -7850.07672116
  -exchange      EXHF   =         0.00000000
  -V(xc)+E(xc)   XCENC  =       202.32700870
  PAW double counting   =      1779.70502452    -1789.20730229
  entropy T*S    EENTRO =        -0.80392984
  eigenvalues    EBANDS =      -268.01489808
  atomic energy  EATOM  =      2425.98333211
  Solvation  Ediel_sol  =         0.00000000
  ---------------------------------------------------
  free energy    TOTEN  =       610.09013455 eV

  energy without entropy =      610.89406439  energy(sigma->0) =      610.49209947


--------------------------------------------------------------------------------------------------------




----------------------------------------- Iteration    1(   2)  ---------------------------------------


     EDDAV:  cpu time  351.1856: real time  350.9427
       DOS:  cpu time    0.0000: real time    0.0008
    --------------------------------------------
      LOOP:  cpu time  351.1866: real time  350.9464

 eigenvalue-minimisations  :   595
 total energy-change (2. order) :-0.3466488E+03  (-0.3359778E+03)
 number of electron      58.0000000 magnetization 
 augmentation part       58.0000000 magnetization 

 Free energy of the ion-electron system (eV)
  ---------------------------------------------------
  alpha Z        PSCENC =         0.51957394
  Ewald energy   TEWEN  =      6109.65804665
  -Hartree energ DENC   =     -7850.07672116
  -exchange      EXHF   =         0.00000000
  -V(xc)+E(xc)   XCENC  =       202.32700870
  PAW double counting   =      1779.70502452    -1789.20730229
  entropy T*S    EENTRO =        -0.36570459
  eigenvalues    EBANDS =      -615.10188495
  atomic energy  EATOM  =      2425.98333211
  Solvation  Ediel_sol  =         0.00000000
  ---------------------------------------------------
  free energy    TOTEN  =       263.44137292 eV

  energy without entropy =      263.80707751  energy(sigma->0) =      263.62422522


--------------------------------------------------------------------------------------------------------




----------------------------------------- Iteration    1(   3)  ---------------------------------------


     EDDAV:  cpu time  307.9682: real time  307.7562
       DOS:  cpu time    0.0000: real time    0.0005
    --------------------------------------------
      LOOP:  cpu time  307.9702: real time  307.7597

 eigenvalue-minimisations  :   512
 total energy-change (2. order) :-0.3149272E+03  (-0.3064720E+03)
 number of electron      58.0000000 magnetization 
 augmentation part       58.0000000 magnetization 

 Free energy of the ion-electron system (eV)
  ---------------------------------------------------
  alpha Z        PSCENC =         0.51957394
  Ewald energy   TEWEN  =      6109.65804665
  -Hartree energ DENC   =     -7850.07672116
  -exchange      EXHF   =         0.00000000
  -V(xc)+E(xc)   XCENC  =       202.32700870
  PAW double counting   =      1779.70502452    -1789.20730229
  entropy T*S    EENTRO =        -0.00000190
  eigenvalues    EBANDS =      -930.39475947
  atomic energy  EATOM  =      2425.98333211
  Solvation  Ediel_sol  =         0.00000000
  ---------------------------------------------------
  free energy    TOTEN  =       -51.48579891 eV

  energy without entropy =      -51.48579701  energy(sigma->0) =      -51.48579796


--------------------------------------------------------------------------------------------------------




----------------------------------------- Iteration    1(   4)  ---------------------------------------


     EDDAV:  cpu time  249.6860: real time  249.5140
       DOS:  cpu time    0.0000: real time    0.0005
    --------------------------------------------
      LOOP:  cpu time  249.6880: real time  249.5174

 eigenvalue-minimisations  :   396
 total energy-change (2. order) :-0.8571093E+02  (-0.8556456E+02)
 number of electron      58.0000000 magnetization 
 augmentation part       58.0000000 magnetization 

 Free energy of the ion-electron system (eV)
  ---------------------------------------------------
  alpha Z        PSCENC =         0.51957394
  Ewald energy   TEWEN  =      6109.65804665
  -Hartree energ DENC   =     -7850.07672116
  -exchange      EXHF   =         0.00000000
  -V(xc)+E(xc)   XCENC  =       202.32700870
  PAW double counting   =      1779.70502452    -1789.20730229
  entropy T*S    EENTRO =         0.00000000
  eigenvalues    EBANDS =     -1016.10569087
  atomic energy  EATOM  =      2425.98333211
  Solvation  Ediel_sol  =         0.00000000
  ---------------------------------------------------
  free energy    TOTEN  =      -137.19672840 eV

  energy without entropy =     -137.19672840  energy(sigma->0) =     -137.19672840


--------------------------------------------------------------------------------------------------------




----------------------------------------- Iteration    1(   5)  ---------------------------------------


     EDDAV:  cpu time  284.1048: real time  283.9103
       DOS:  cpu time    0.0000: real time    0.0005
    CHARGE:  cpu time   16.4085: real time   16.3980
    MIXING:  cpu time    0.5899: real time    0.5890
    --------------------------------------------
      LOOP:  cpu time  301.1042: real time  300.9277

 eigenvalue-minimisations  :   464
 total energy-change (2. order) :-0.4485661E+01  (-0.4474746E+01)
 number of electron      57.9999930 magnetization 
 augmentation part        2.9726610 magnetization 

 Broyden mixing:
  rms(total) = 0.19596E+01    rms(broyden)= 0.19575E+01
  rms(prec ) = 0.20351E+01
  weight for this iteration     100.00

 Free energy of the ion-electron system (eV)
  ---------------------------------------------------
  alpha Z        PSCENC =         0.51957394
  Ewald energy   TEWEN  =      6109.65804665
  -Hartree energ DENC   =     -7850.07672116
  -exchange      EXHF   =         0.00000000
  -V(xc)+E(xc)   XCENC  =       202.32700870
  PAW double counting   =      1779.70502452    -1789.20730229
  entropy T*S    EENTRO =         0.00000000
  eigenvalues    EBANDS =     -1020.59135185
  atomic energy  EATOM  =      2425.98333211
  Solvation  Ediel_sol  =         0.00000000
  ---------------------------------------------------
  free energy    TOTEN  =      -141.68238938 eV

  energy without entropy =     -141.68238938  energy(sigma->0) =     -141.68238938


--------------------------------------------------------------------------------------------------------




----------------------------------------- Iteration    1(   6)  ---------------------------------------


    POTLOK:  cpu time   18.1942: real time   18.1839
    SETDIJ:  cpu time    0.0290: real time    0.0283
     EDDAV:  cpu time  260.0225: real time  259.8427
       DOS:  cpu time    0.0000: real time    0.0005
    CHARGE:  cpu time   16.3735: real time   16.3620
    MIXING:  cpu time    0.6239: real time    0.6240
    --------------------------------------------
      LOOP:  cpu time  295.2451: real time  295.0447

 eigenvalue-minimisations  :   413
 total energy-change (2. order) : 0.1018477E+02  (-0.2387894E+01)
 number of electron      57.9999942 magnetization 
 augmentation part        2.6362737 magnetization 

 Broyden mixing:
  rms(total) = 0.10005E+01    rms(broyden)= 0.10000E+01
  rms(prec ) = 0.10287E+01
  weight for this iteration     100.00

 eigenvalues of (default mixing * dielectric matrix)
  average eigenvalue GAMMA=   1.2829
  1.2829

 Free energy of the ion-electron system (eV)
  ---------------------------------------------------
  alpha Z        PSCENC =         0.51957394
  Ewald energy   TEWEN  =      6109.65804665
  -Hartree energ DENC   =     -7965.22698232
  -exchange      EXHF   =         0.00000000
  -V(xc)+E(xc)   XCENC  =       208.37613521
  PAW double counting   =      2779.70170308    -2790.55968079
  entropy T*S    EENTRO =         0.00000000
  eigenvalues    EBANDS =      -899.94975215
  atomic energy  EATOM  =      2425.98333211
  Solvation  Ediel_sol  =         0.00000000
  ---------------------------------------------------
  free energy    TOTEN  =      -131.49762426 eV

  energy without entropy =     -131.49762426  energy(sigma->0) =     -131.49762426


--------------------------------------------------------------------------------------------------------




----------------------------------------- Iteration    1(   7)  ---------------------------------------


    POTLOK:  cpu time   18.1342: real time   18.1227
    SETDIJ:  cpu time    0.0290: real time    0.0284
     EDDAV:  cpu time  265.2937: real time  265.1116
       DOS:  cpu time    0.0010: real time    0.0005
    CHARGE:  cpu time   16.3555: real time   16.3452
    MIXING:  cpu time    0.6409: real time    0.6402
    --------------------------------------------
      LOOP:  cpu time  300.4553: real time  300.2515

 eigenvalue-minimisations  :   424
 total energy-change (2. order) : 0.1775302E+01  (-0.4567986E+00)
 number of electron      57.9999941 magnetization 
 augmentation part        2.6227733 magnetization 

 Broyden mixing:
  rms(total) = 0.51438E+00    rms(broyden)= 0.51426E+00
  rms(prec ) = 0.52697E+00
  weight for this iteration     100.00

 eigenvalues of (default mixing * dielectric matrix)
  average eigenvalue GAMMA=   1.5739
  1.1102  2.0377

 Free energy of the ion-electron system (eV)
  ---------------------------------------------------
  alpha Z        PSCENC =         0.51957394
  Ewald energy   TEWEN  =      6109.65804665
  -Hartree energ DENC   =     -8027.81728062
  -exchange      EXHF   =         0.00000000
  -V(xc)+E(xc)   XCENC  =       211.43586140
  PAW double counting   =      3760.73590219    -3771.87773843
  entropy T*S    EENTRO =         0.00000000
  eigenvalues    EBANDS =      -838.36001964
  atomic energy  EATOM  =      2425.98333211
  Solvation  Ediel_sol  =         0.00000000
  ---------------------------------------------------
  free energy    TOTEN  =      -129.72232239 eV

  energy without entropy =     -129.72232239  energy(sigma->0) =     -129.72232239


--------------------------------------------------------------------------------------------------------




----------------------------------------- Iteration    1(   8)  ---------------------------------------


    POTLOK:  cpu time   18.1432: real time   18.1315
    SETDIJ:  cpu time    0.0280: real time    0.0283
     EDDAV:  cpu time  277.1249: real time  276.9335
       DOS:  cpu time    0.0000: real time    0.0005
    CHARGE:  cpu time   16.3195: real time   16.3087
    MIXING:  cpu time    0.6919: real time    0.6906
    --------------------------------------------
      LOOP:  cpu time  312.3095: real time  312.0966

 eigenvalue-minimisations  :   447
 total energy-change (2. order) : 0.4922344E+00  (-0.8724036E-01)
 number of electron      57.9999941 magnetization 
 augmentation part        2.5942856 magnetization 

 Broyden mixing:
  rms(total) = 0.15121E+00    rms(broyden)= 0.15114E+00
  rms(prec ) = 0.15882E+00
  weight for this iteration     100.00

 eigenvalues of (default mixing * dielectric matrix)
  average eigenvalue GAMMA=   1.5409
  2.3845  0.9442  1.2939

 Free energy of the ion-electron system (eV)
  ---------------------------------------------------
  alpha Z        PSCENC =         0.51957394
  Ewald energy   TEWEN  =      6109.65804665
  -Hartree energ DENC   =     -8068.72606789
  -exchange      EXHF   =         0.00000000
  -V(xc)+E(xc)   XCENC  =       213.56221414
  PAW double counting   =      4590.08729308    -4601.41701432
  entropy T*S    EENTRO =         0.00000000
  eigenvalues    EBANDS =      -798.89746567
  atomic energy  EATOM  =      2425.98333211
  Solvation  Ediel_sol  =         0.00000000
  ---------------------------------------------------
  free energy    TOTEN  =      -129.23008795 eV

  energy without entropy =     -129.23008795  energy(sigma->0) =     -129.23008795


--------------------------------------------------------------------------------------------------------




----------------------------------------- Iteration    1(   9)  ---------------------------------------


    POTLOK:  cpu time   18.2112: real time   18.1996
    SETDIJ:  cpu time    0.0280: real time    0.0283
     EDDAV:  cpu time  281.9241: real time  281.7283
       DOS:  cpu time    0.0000: real time    0.0005
    CHARGE:  cpu time   16.3795: real time   16.3686
    MIXING:  cpu time    0.7209: real time    0.7201
    --------------------------------------------
      LOOP:  cpu time  317.2648: real time  317.0481

 eigenvalue-minimisations  :   456
 total energy-change (2. order) : 0.6753238E-01  (-0.9798330E-02)
 number of electron      57.9999942 magnetization 
 augmentation part        2.5871564 magnetization 

 Broyden mixing:
  rms(total) = 0.56466E-01    rms(broyden)= 0.56440E-01
  rms(prec ) = 0.64994E-01
  weight for this iteration     100.00

 eigenvalues of (default mixing * dielectric matrix)
  average eigenvalue GAMMA=   1.5182
  2.1867  1.0497  1.0497  1.7867

 Free energy of the ion-electron system (eV)
  ---------------------------------------------------
  alpha Z        PSCENC =         0.51957394
  Ewald energy   TEWEN  =      6109.65804665
  -Hartree energ DENC   =     -8082.19452830
  -exchange      EXHF   =         0.00000000
  -V(xc)+E(xc)   XCENC  =       214.10647644
  PAW double counting   =      4820.98941725    -4832.28925325
  entropy T*S    EENTRO =         0.00000000
  eigenvalues    EBANDS =      -785.93562041
  atomic energy  EATOM  =      2425.98333211
  Solvation  Ediel_sol  =         0.00000000
  ---------------------------------------------------
  free energy    TOTEN  =      -129.16255557 eV

  energy without entropy =     -129.16255557  energy(sigma->0) =     -129.16255557


--------------------------------------------------------------------------------------------------------




----------------------------------------- Iteration    1(  10)  ---------------------------------------


    POTLOK:  cpu time   18.2022: real time   18.1915
    SETDIJ:  cpu time    0.0290: real time    0.0283
     EDDAV:  cpu time  276.0040: real time  275.8135
       DOS:  cpu time    0.0010: real time    0.0005
    CHARGE:  cpu time   16.2685: real time   16.2577
    MIXING:  cpu time    0.7729: real time    0.7719
    --------------------------------------------
      LOOP:  cpu time  311.2787: real time  311.0667

 eigenvalue-minimisations  :   444
 total energy-change (2. order) : 0.1219450E-01  (-0.2379980E-02)
 number of electron      57.9999941 magnetization 
 augmentation part        2.5925827 magnetization 

 Broyden mixing:
  rms(total) = 0.26052E-01    rms(broyden)= 0.26028E-01
  rms(prec ) = 0.35872E-01
  weight for this iteration     100.00

 eigenvalues of (default mixing * dielectric matrix)
  average eigenvalue GAMMA=   1.4880
  2.1670  2.1670  0.9808  0.9808  1.1445

 Free energy of the ion-electron system (eV)
  ---------------------------------------------------
  alpha Z        PSCENC =         0.51957394
  Ewald energy   TEWEN  =      6109.65804665
  -Hartree energ DENC   =     -8087.35543741
  -exchange      EXHF   =         0.00000000
  -V(xc)+E(xc)   XCENC  =       214.12659835
  PAW double counting   =      4814.75436929    -4826.00502001
  entropy T*S    EENTRO =         0.00000000
  eigenvalues    EBANDS =      -780.83182401
  atomic energy  EATOM  =      2425.98333211
  Solvation  Ediel_sol  =         0.00000000
  ---------------------------------------------------
  free energy    TOTEN  =      -129.15036108 eV

  energy without entropy =     -129.15036108  energy(sigma->0) =     -129.15036108


--------------------------------------------------------------------------------------------------------




----------------------------------------- Iteration    1(  11)  ---------------------------------------


    POTLOK:  cpu time   18.2162: real time   18.2045
    SETDIJ:  cpu time    0.0280: real time    0.0283
     EDDAV:  cpu time  272.5986: real time  272.4111
       DOS:  cpu time    0.0000: real time    0.0005
    CHARGE:  cpu time   16.2935: real time   16.2827
    MIXING:  cpu time    0.8009: real time    0.8002
    --------------------------------------------
      LOOP:  cpu time  307.9392: real time  307.7307

 eigenvalue-minimisations  :   438
 total energy-change (2. order) : 0.5899965E-02  (-0.7605973E-03)
 number of electron      57.9999942 magnetization 
 augmentation part        2.5884389 magnetization 

 Broyden mixing:
  rms(total) = 0.16135E-01    rms(broyden)= 0.16126E-01
  rms(prec ) = 0.24813E-01
  weight for this iteration     100.00

 eigenvalues of (default mixing * dielectric matrix)
  average eigenvalue GAMMA=   1.5443
  2.4750  2.4750  0.9404  0.9404  1.2176  1.2176

 Free energy of the ion-electron system (eV)
  ---------------------------------------------------
  alpha Z        PSCENC =         0.51957394
  Ewald energy   TEWEN  =      6109.65804665
  -Hartree energ DENC   =     -8093.22849730
  -exchange      EXHF   =         0.00000000
  -V(xc)+E(xc)   XCENC  =       214.23403152
  PAW double counting   =      4819.04397807    -4830.29255046
  entropy T*S    EENTRO =         0.00000000
  eigenvalues    EBANDS =      -775.06237563
  atomic energy  EATOM  =      2425.98333211
  Solvation  Ediel_sol  =         0.00000000
  ---------------------------------------------------
  free energy    TOTEN  =      -129.14446111 eV

  energy without entropy =     -129.14446111  energy(sigma->0) =     -129.14446111


--------------------------------------------------------------------------------------------------------




----------------------------------------- Iteration    1(  12)  ---------------------------------------


    POTLOK:  cpu time   18.3292: real time   18.3177
    SETDIJ:  cpu time    0.0280: real time    0.0283
     EDDAV:  cpu time  259.8145: real time  259.6393
       DOS:  cpu time    0.0000: real time    0.0005
    CHARGE:  cpu time   16.3505: real time   16.3395
    MIXING:  cpu time    0.8519: real time    0.8516
    --------------------------------------------
      LOOP:  cpu time  295.3761: real time  295.1806

 eigenvalue-minimisations  :   412
 total energy-change (2. order) : 0.2438638E-03  (-0.5349468E-03)
 number of electron      57.9999942 magnetization 
 augmentation part        2.5880747 magnetization 

 Broyden mixing:
  rms(total) = 0.97416E-02    rms(broyden)= 0.97377E-02
  rms(prec ) = 0.15962E-01
  weight for this iteration     100.00

 eigenvalues of (default mixing * dielectric matrix)
  average eigenvalue GAMMA=   1.5935
  2.7268  2.7268  1.2973  1.2372  1.2372  0.9644  0.9644

 Free energy of the ion-electron system (eV)
  ---------------------------------------------------
  alpha Z        PSCENC =         0.51957394
  Ewald energy   TEWEN  =      6109.65804665
  -Hartree energ DENC   =     -8099.74298997
  -exchange      EXHF   =         0.00000000
  -V(xc)+E(xc)   XCENC  =       214.31768423
  PAW double counting   =      4814.69359158    -4825.93119474
  entropy T*S    EENTRO =         0.00000000
  eigenvalues    EBANDS =      -768.64226107
  atomic energy  EATOM  =      2425.98333211
  Solvation  Ediel_sol  =         0.00000000
  ---------------------------------------------------
  free energy    TOTEN  =      -129.14421725 eV

  energy without entropy =     -129.14421725  energy(sigma->0) =     -129.14421725


--------------------------------------------------------------------------------------------------------




----------------------------------------- Iteration    1(  13)  ---------------------------------------


    POTLOK:  cpu time   18.2622: real time   18.2503
    SETDIJ:  cpu time    0.0280: real time    0.0283
     EDDAV:  cpu time  261.7162: real time  261.5361
       DOS:  cpu time    0.0000: real time    0.0005
    CHARGE:  cpu time   16.3245: real time   16.3138
    MIXING:  cpu time    0.8859: real time    0.8849
    --------------------------------------------
      LOOP:  cpu time  297.2188: real time  297.0238

 eigenvalue-minimisations  :   416
 total energy-change (2. order) :-0.5978852E-02  (-0.4132256E-03)
 number of electron      57.9999942 magnetization 
 augmentation part        2.5870292 magnetization 

 Broyden mixing:
  rms(total) = 0.58296E-02    rms(broyden)= 0.58243E-02
  rms(prec ) = 0.95892E-02
  weight for this iteration     100.00

 eigenvalues of (default mixing * dielectric matrix)
  average eigenvalue GAMMA=   1.7283
  4.1782  2.4854  1.6690  1.4787  1.0221  1.0221  0.9854  0.9854

 Free energy of the ion-electron system (eV)
  ---------------------------------------------------
  alpha Z        PSCENC =         0.51957394
  Ewald energy   TEWEN  =      6109.65804665
  -Hartree energ DENC   =     -8105.32146715
  -exchange      EXHF   =         0.00000000
  -V(xc)+E(xc)   XCENC  =       214.38180107
  PAW double counting   =      4808.34221811    -4819.57833047
  entropy T*S    EENTRO =         0.00000000
  eigenvalues    EBANDS =      -763.13537036
  atomic energy  EATOM  =      2425.98333211
  Solvation  Ediel_sol  =         0.00000000
  ---------------------------------------------------
  free energy    TOTEN  =      -129.15019610 eV

  energy without entropy =     -129.15019610  energy(sigma->0) =     -129.15019610


--------------------------------------------------------------------------------------------------------




----------------------------------------- Iteration    1(  14)  ---------------------------------------


    POTLOK:  cpu time   18.3502: real time   18.3388
    SETDIJ:  cpu time    0.0280: real time    0.0283
     EDDAV:  cpu time  268.7481: real time  268.5646
       DOS:  cpu time    0.0010: real time    0.0005
    CHARGE:  cpu time   16.3875: real time   16.3762
    MIXING:  cpu time    0.9479: real time    0.9476
    --------------------------------------------
      LOOP:  cpu time  304.4657: real time  304.2589

 eigenvalue-minimisations  :   430
 total energy-change (2. order) :-0.7038667E-02  (-0.2142225E-03)
 number of electron      57.9999942 magnetization 
 augmentation part        2.5859664 magnetization 

 Broyden mixing:
  rms(total) = 0.37081E-02    rms(broyden)= 0.37038E-02
  rms(prec ) = 0.56662E-02
  weight for this iteration     100.00

 eigenvalues of (default mixing * dielectric matrix)
  average eigenvalue GAMMA=   1.8366
  5.0795  2.4251  2.2567  1.3356  1.2404  1.2404  1.0246  0.9637  0.9637

 Free energy of the ion-electron system (eV)
  ---------------------------------------------------
  alpha Z        PSCENC =         0.51957394
  Ewald energy   TEWEN  =      6109.65804665
  -Hartree energ DENC   =     -8109.17245737
  -exchange      EXHF   =         0.00000000
  -V(xc)+E(xc)   XCENC  =       214.41186535
  PAW double counting   =      4803.41395862    -4814.64794243
  entropy T*S    EENTRO =         0.00000000
  eigenvalues    EBANDS =      -759.32361164
  atomic energy  EATOM  =      2425.98333211
  Solvation  Ediel_sol  =         0.00000000
  ---------------------------------------------------
  free energy    TOTEN  =      -129.15723477 eV

  energy without entropy =     -129.15723477  energy(sigma->0) =     -129.15723477


--------------------------------------------------------------------------------------------------------




----------------------------------------- Iteration    1(  15)  ---------------------------------------


    POTLOK:  cpu time   18.3332: real time   18.3209
    SETDIJ:  cpu time    0.0280: real time    0.0284
     EDDAV:  cpu time  268.0612: real time  267.8772
       DOS:  cpu time    0.0000: real time    0.0005
    CHARGE:  cpu time   16.2835: real time   16.2724
    MIXING:  cpu time    1.0038: real time    1.0036
    --------------------------------------------
      LOOP:  cpu time  303.7108: real time  303.5059

 eigenvalue-minimisations  :   428
 total energy-change (2. order) :-0.7789300E-02  (-0.8553365E-04)
 number of electron      57.9999942 magnetization 
 augmentation part        2.5860167 magnetization 

 Broyden mixing:
  rms(total) = 0.24117E-02    rms(broyden)= 0.24102E-02
  rms(prec ) = 0.34768E-02
  weight for this iteration     100.00

 eigenvalues of (default mixing * dielectric matrix)
  average eigenvalue GAMMA=   1.9049
  5.6005  2.7875  2.3154  1.7397  1.5263  0.9695  1.0421  1.0421  1.0132  1.0132

 Free energy of the ion-electron system (eV)
  ---------------------------------------------------
  alpha Z        PSCENC =         0.51957394
  Ewald energy   TEWEN  =      6109.65804665
  -Hartree energ DENC   =     -8110.78639340
  -exchange      EXHF   =         0.00000000
  -V(xc)+E(xc)   XCENC  =       214.40882593
  PAW double counting   =      4802.64243667    -4813.87486828
  entropy T*S    EENTRO =         0.00000000
  eigenvalues    EBANDS =      -757.71597769
  atomic energy  EATOM  =      2425.98333211
  Solvation  Ediel_sol  =         0.00000000
  ---------------------------------------------------
  free energy    TOTEN  =      -129.16502407 eV

  energy without entropy =     -129.16502407  energy(sigma->0) =     -129.16502407


--------------------------------------------------------------------------------------------------------




----------------------------------------- Iteration    1(  16)  ---------------------------------------


    POTLOK:  cpu time   18.3472: real time   18.3355
    SETDIJ:  cpu time    0.0290: real time    0.0286
     EDDAV:  cpu time  224.0979: real time  223.9443
       DOS:  cpu time    0.0010: real time    0.0005
    CHARGE:  cpu time   16.2655: real time   16.2554
    MIXING:  cpu time    1.0348: real time    1.0341
    --------------------------------------------
      LOOP:  cpu time  259.7775: real time  259.6020

 eigenvalue-minimisations  :   342
 total energy-change (2. order) :-0.5486642E-02  (-0.4196892E-04)
 number of electron      57.9999942 magnetization 
 augmentation part        2.5859026 magnetization 

 Broyden mixing:
  rms(total) = 0.13392E-02    rms(broyden)= 0.13387E-02
  rms(prec ) = 0.19968E-02
  weight for this iteration     100.00

 eigenvalues of (default mixing * dielectric matrix)
  average eigenvalue GAMMA=   1.9616
  6.3852  3.1444  2.3379  1.9527  1.3473  1.3473  0.9937  1.0471  1.0471  0.9875
  0.9875

 Free energy of the ion-electron system (eV)
  ---------------------------------------------------
  alpha Z        PSCENC =         0.51957394
  Ewald energy   TEWEN  =      6109.65804665
  -Hartree energ DENC   =     -8111.39655807
  -exchange      EXHF   =         0.00000000
  -V(xc)+E(xc)   XCENC  =       214.40078376
  PAW double counting   =      4802.43467592    -4813.66703988
  entropy T*S    EENTRO =         0.00000000
  eigenvalues    EBANDS =      -757.10332515
  atomic energy  EATOM  =      2425.98333211
  Solvation  Ediel_sol  =         0.00000000
  ---------------------------------------------------
  free energy    TOTEN  =      -129.17051071 eV

  energy without entropy =     -129.17051071  energy(sigma->0) =     -129.17051071


--------------------------------------------------------------------------------------------------------




----------------------------------------- Iteration    1(  17)  ---------------------------------------


    POTLOK:  cpu time   18.3312: real time   18.3190
    SETDIJ:  cpu time    0.0290: real time    0.0282
     EDDAV:  cpu time  238.8287: real time  238.6660
       DOS:  cpu time    0.0000: real time    0.0005
    CHARGE:  cpu time   16.2475: real time   16.2357
    MIXING:  cpu time    1.0828: real time    1.0821
    --------------------------------------------
      LOOP:  cpu time  274.5203: real time  274.3344

 eigenvalue-minimisations  :   368
 total energy-change (2. order) :-0.2557631E-02  (-0.1190806E-04)
 number of electron      57.9999942 magnetization 
 augmentation part        2.5858991 magnetization 

 Broyden mixing:
  rms(total) = 0.85922E-03    rms(broyden)= 0.85890E-03
  rms(prec ) = 0.12787E-02
  weight for this iteration     100.00

 eigenvalues of (default mixing * dielectric matrix)
  average eigenvalue GAMMA=   2.0376
  7.0502  3.6753  2.2783  2.2783  1.5446  1.5446  1.0596  1.0596  1.0078  1.0078
  0.9728  0.9728

 Free energy of the ion-electron system (eV)
  ---------------------------------------------------
  alpha Z        PSCENC =         0.51957394
  Ewald energy   TEWEN  =      6109.65804665
  -Hartree energ DENC   =     -8111.70153831
  -exchange      EXHF   =         0.00000000
  -V(xc)+E(xc)   XCENC  =       214.39642809
  PAW double counting   =      4802.53977484    -4813.77174662
  entropy T*S    EENTRO =         0.00000000
  eigenvalues    EBANDS =      -756.79693904
  atomic energy  EATOM  =      2425.98333211
  Solvation  Ediel_sol  =         0.00000000
  ---------------------------------------------------
  free energy    TOTEN  =      -129.17306834 eV

  energy without entropy =     -129.17306834  energy(sigma->0) =     -129.17306834


--------------------------------------------------------------------------------------------------------




----------------------------------------- Iteration    1(  18)  ---------------------------------------


    POTLOK:  cpu time   18.2482: real time   18.2364
    SETDIJ:  cpu time    0.0280: real time    0.0283
     EDDAV:  cpu time  216.1021: real time  215.9541
       DOS:  cpu time    0.0000: real time    0.0005
    CHARGE:  cpu time   16.2455: real time   16.2344
    MIXING:  cpu time    1.1728: real time    1.1722
    --------------------------------------------
      LOOP:  cpu time  251.7987: real time  251.6292

 eigenvalue-minimisations  :   324
 total energy-change (2. order) :-0.1911463E-02  (-0.1356554E-04)
 number of electron      57.9999942 magnetization 
 augmentation part        2.5858828 magnetization 

 Broyden mixing:
  rms(total) = 0.53870E-03    rms(broyden)= 0.53854E-03
  rms(prec ) = 0.75686E-03
  weight for this iteration     100.00

 eigenvalues of (default mixing * dielectric matrix)
  average eigenvalue GAMMA=   2.0998
  7.5859  4.2460  2.4586  2.3692  1.7610  1.4365  1.4365  1.0773  1.0773  0.9678
  0.9678  0.9565  0.9565

 Free energy of the ion-electron system (eV)
  ---------------------------------------------------
  alpha Z        PSCENC =         0.51957394
  Ewald energy   TEWEN  =      6109.65804665
  -Hartree energ DENC   =     -8111.87450892
  -exchange      EXHF   =         0.00000000
  -V(xc)+E(xc)   XCENC  =       214.39310014
  PAW double counting   =      4802.80103079    -4814.03295618
  entropy T*S    EENTRO =         0.00000000
  eigenvalues    EBANDS =      -756.62259833
  atomic energy  EATOM  =      2425.98333211
  Solvation  Ediel_sol  =         0.00000000
  ---------------------------------------------------
  free energy    TOTEN  =      -129.17497980 eV

  energy without entropy =     -129.17497980  energy(sigma->0) =     -129.17497980


--------------------------------------------------------------------------------------------------------




----------------------------------------- Iteration    1(  19)  ---------------------------------------


    POTLOK:  cpu time   18.1942: real time   18.1822
    SETDIJ:  cpu time    0.0280: real time    0.0284
     EDDAV:  cpu time  238.6807: real time  238.5180
       DOS:  cpu time    0.0000: real time    0.0005
    CHARGE:  cpu time   16.2335: real time   16.2216
    MIXING:  cpu time    1.2138: real time    1.2137
    --------------------------------------------
      LOOP:  cpu time  274.3533: real time  274.1674

 eigenvalue-minimisations  :   368
 total energy-change (2. order) :-0.8996905E-03  (-0.5321776E-05)
 number of electron      57.9999942 magnetization 
 augmentation part        2.5858383 magnetization 

 Broyden mixing:
  rms(total) = 0.32046E-03    rms(broyden)= 0.32026E-03
  rms(prec ) = 0.44546E-03
  weight for this iteration     100.00

 eigenvalues of (default mixing * dielectric matrix)
  average eigenvalue GAMMA=   2.1407
  8.0922  4.7256  2.6068  2.6068  1.6469  1.6469  1.5425  1.0649  1.0649  0.9524
  1.0421  1.0421  0.9678  0.9678

 Free energy of the ion-electron system (eV)
  ---------------------------------------------------
  alpha Z        PSCENC =         0.51957394
  Ewald energy   TEWEN  =      6109.65804665
  -Hartree energ DENC   =     -8111.96378598
  -exchange      EXHF   =         0.00000000
  -V(xc)+E(xc)   XCENC  =       214.39272787
  PAW double counting   =      4803.01223065    -4814.24435053
  entropy T*S    EENTRO =         0.00000000
  eigenvalues    EBANDS =      -756.53365421
  atomic energy  EATOM  =      2425.98333211
  Solvation  Ediel_sol  =         0.00000000
  ---------------------------------------------------
  free energy    TOTEN  =      -129.17587949 eV

  energy without entropy =     -129.17587949  energy(sigma->0) =     -129.17587949


--------------------------------------------------------------------------------------------------------




----------------------------------------- Iteration    1(  20)  ---------------------------------------


    POTLOK:  cpu time   18.1972: real time   18.1853
    SETDIJ:  cpu time    0.0280: real time    0.0283
     EDDAV:  cpu time  237.7479: real time  237.5840
       DOS:  cpu time    0.0000: real time    0.0005
    CHARGE:  cpu time   16.1965: real time   16.1860
    MIXING:  cpu time    1.2898: real time    1.2892
    --------------------------------------------
      LOOP:  cpu time  273.4604: real time  273.2760

 eigenvalue-minimisations  :   366
 total energy-change (2. order) :-0.3932417E-03  (-0.1567662E-05)
 number of electron      57.9999942 magnetization 
 augmentation part        2.5858507 magnetization 

 Broyden mixing:
  rms(total) = 0.20126E-03    rms(broyden)= 0.20114E-03
  rms(prec ) = 0.27643E-03
  weight for this iteration     100.00

 eigenvalues of (default mixing * dielectric matrix)
  average eigenvalue GAMMA=   2.1465
  8.3048  5.1600  2.8524  2.5219  1.8870  1.7632  1.3004  1.3004  1.0458  1.0458
  0.9644  1.0606  1.0606  0.9652  0.9652

 Free energy of the ion-electron system (eV)
  ---------------------------------------------------
  alpha Z        PSCENC =         0.51957394
  Ewald energy   TEWEN  =      6109.65804665
  -Hartree energ DENC   =     -8111.98168279
  -exchange      EXHF   =         0.00000000
  -V(xc)+E(xc)   XCENC  =       214.39143491
  PAW double counting   =      4802.72831155    -4813.96030898
  entropy T*S    EENTRO =         0.00000000
  eigenvalues    EBANDS =      -756.51498013
  atomic energy  EATOM  =      2425.98333211
  Solvation  Ediel_sol  =         0.00000000
  ---------------------------------------------------
  free energy    TOTEN  =      -129.17627273 eV

  energy without entropy =     -129.17627273  energy(sigma->0) =     -129.17627273


--------------------------------------------------------------------------------------------------------




----------------------------------------- Iteration    1(  21)  ---------------------------------------


    POTLOK:  cpu time   18.2092: real time   18.1969
    SETDIJ:  cpu time    0.0280: real time    0.0283
     EDDAV:  cpu time  214.5084: real time  214.3614
       DOS:  cpu time    0.0010: real time    0.0005
    CHARGE:  cpu time   16.2605: real time   16.2502
    MIXING:  cpu time    1.3468: real time    1.3457
    --------------------------------------------
      LOOP:  cpu time  250.3559: real time  250.1865

 eigenvalue-minimisations  :   320
 total energy-change (2. order) :-0.1975976E-03  (-0.7267988E-06)
 number of electron      57.9999942 magnetization 
 augmentation part        2.5858351 magnetization 

 Broyden mixing:
  rms(total) = 0.12226E-03    rms(broyden)= 0.12220E-03
  rms(prec ) = 0.17118E-03
  weight for this iteration     100.00

 eigenvalues of (default mixing * dielectric matrix)
  average eigenvalue GAMMA=   2.2087
  8.4780  5.6774  3.3395  2.6267  2.3004  1.6419  1.6419  1.4400  1.1094  1.1094
  1.0607  1.0607  0.9651  0.9651  0.9915  0.9316

 Free energy of the ion-electron system (eV)
  ---------------------------------------------------
  alpha Z        PSCENC =         0.51957394
  Ewald energy   TEWEN  =      6109.65804665
  -Hartree energ DENC   =     -8111.99160717
  -exchange      EXHF   =         0.00000000
  -V(xc)+E(xc)   XCENC  =       214.39126909
  PAW double counting   =      4802.81003254    -4814.04205799
  entropy T*S    EENTRO =         0.00000000
  eigenvalues    EBANDS =      -756.50505950
  atomic energy  EATOM  =      2425.98333211
  Solvation  Ediel_sol  =         0.00000000
  ---------------------------------------------------
  free energy    TOTEN  =      -129.17647033 eV

  energy without entropy =     -129.17647033  energy(sigma->0) =     -129.17647033


--------------------------------------------------------------------------------------------------------




----------------------------------------- Iteration    1(  22)  ---------------------------------------


    POTLOK:  cpu time   18.2322: real time   18.2195
    SETDIJ:  cpu time    0.0280: real time    0.0285
     EDDAV:  cpu time  201.2384: real time  201.1002
       DOS:  cpu time    0.0000: real time    0.0005
    CHARGE:  cpu time   16.2375: real time   16.2261
    MIXING:  cpu time    1.4428: real time    1.4426
    --------------------------------------------
      LOOP:  cpu time  237.1799: real time  237.0204

 eigenvalue-minimisations  :   294
 total energy-change (2. order) :-0.1410098E-03  (-0.3591189E-06)
 number of electron      57.9999942 magnetization 
 augmentation part        2.5858375 magnetization 

 Broyden mixing:
  rms(total) = 0.95727E-04    rms(broyden)= 0.95675E-04
  rms(prec ) = 0.11562E-03
  weight for this iteration     100.00

 eigenvalues of (default mixing * dielectric matrix)
  average eigenvalue GAMMA=   2.2034
  8.5438  6.1024  3.5871  2.4959  2.4959  1.7281  1.7281  1.2753  1.2753  1.0484
  1.0484  1.1429  1.1429  0.9622  0.9622  0.9598  0.9598

 Free energy of the ion-electron system (eV)
  ---------------------------------------------------
  alpha Z        PSCENC =         0.51957394
  Ewald energy   TEWEN  =      6109.65804665
  -Hartree energ DENC   =     -8112.00731387
  -exchange      EXHF   =         0.00000000
  -V(xc)+E(xc)   XCENC  =       214.39105674
  PAW double counting   =      4802.73516259    -4813.96719812
  entropy T*S    EENTRO =         0.00000000
  eigenvalues    EBANDS =      -756.48927138
  atomic energy  EATOM  =      2425.98333211
  Solvation  Ediel_sol  =         0.00000000
  ---------------------------------------------------
  free energy    TOTEN  =      -129.17661134 eV

  energy without entropy =     -129.17661134  energy(sigma->0) =     -129.17661134


--------------------------------------------------------------------------------------------------------




----------------------------------------- Iteration    1(  23)  ---------------------------------------


    POTLOK:  cpu time   18.2742: real time   18.2628
    SETDIJ:  cpu time    0.0290: real time    0.0283
     EDDAV:  cpu time  238.8387: real time  238.6752
       DOS:  cpu time    0.0010: real time    0.0005
    --------------------------------------------
      LOOP:  cpu time  257.1449: real time  256.9703

 eigenvalue-minimisations  :   368
 total energy-change (2. order) :-0.3831637E-04  (-0.8900277E-07)
 number of electron      57.9999942 magnetization 
 augmentation part        2.5858375 magnetization 

 Free energy of the ion-electron system (eV)
  ---------------------------------------------------
  alpha Z        PSCENC =         0.51957394
  Ewald energy   TEWEN  =      6109.65804665
  -Hartree energ DENC   =     -8112.01467160
  -exchange      EXHF   =         0.00000000
  -V(xc)+E(xc)   XCENC  =       214.39102961
  PAW double counting   =      4802.75860002    -4813.99062856
  entropy T*S    EENTRO =         0.00000000
  eigenvalues    EBANDS =      -756.48193183
  atomic energy  EATOM  =      2425.98333211
  Solvation  Ediel_sol  =         0.00000000
  ---------------------------------------------------
  free energy    TOTEN  =      -129.17664966 eV

  energy without entropy =     -129.17664966  energy(sigma->0) =     -129.17664966


--------------------------------------------------------------------------------------------------------




 average (electrostatic) potential at core
  the test charge radii are     0.5201  0.6991  0.7089  0.7215
  (the norm of the test charge is              1.0000)
       1 -42.3807       2 -42.6911       3 -42.6509       4 -44.8148       5 -42.4070
       6 -41.6148       7 -41.9855       8 -42.0290       9 -43.0777      10 -41.6110
      11 -41.7058      12 -41.8273      13 -59.1686      14 -61.6066      15 -60.0470
      16 -58.5661      17 -60.7541      18 -58.9837      19 -74.7745      20 -73.7260
      21 -80.1755      22 -79.2458
 
 
 
 E-fermi :  -4.5392     XC(G=0):  -0.1516     alpha+bet : -0.0465


 k-point     1 :       0.2500    0.2500    0.2500
  band No.  band energies     occupation 
      1     -26.3519      2.00000
      2     -25.5547      2.00000
      3     -23.5882      2.00000
      4     -22.5694      2.00000
      5     -19.6871      2.00000
      6     -18.3124      2.00000
      7     -17.3973      2.00000
      8     -15.7841      2.00000
      9     -15.0157      2.00000
     10     -13.9304      2.00000
     11     -12.9724      2.00000
     12     -12.6375      2.00000
     13     -12.0827      2.00000
     14     -11.3795      2.00000
     15     -11.2283      2.00000
     16     -10.5620      2.00000
     17     -10.2938      2.00000
     18     -10.1652      2.00000
     19     -10.0443      2.00000
     20      -9.6365      2.00000
     21      -9.2876      2.00000
     22      -9.1933      2.00000
     23      -8.9400      2.00000
     24      -8.8052      2.00000
     25      -8.4960      2.00000
     26      -6.8343      2.00000
     27      -6.3655      2.00000
     28      -5.6451      2.00000
     29      -5.4804      2.00000
     30      -1.3410      0.00000
     31      -1.0128      0.00000
     32      -0.5273      0.00000
     33      -0.1995      0.00000
     34      -0.1740      0.00000
     35      -0.0736      0.00000
     36       0.0119      0.00000
     37       0.0930      0.00000
     38       0.1040      0.00000
     39       0.1108      0.00000
     40       0.1559      0.00000
     41       0.1760      0.00000

 k-point     2 :      -0.2500    0.2500    0.2500
  band No.  band energies     occupation 
      1     -26.3519      2.00000
      2     -25.5547      2.00000
      3     -23.5882      2.00000
      4     -22.5694      2.00000
      5     -19.6871      2.00000
      6     -18.3124      2.00000
      7     -17.3973      2.00000
      8     -15.7841      2.00000
      9     -15.0157      2.00000
     10     -13.9304      2.00000
     11     -12.9724      2.00000
     12     -12.6375      2.00000
     13     -12.0827      2.00000
     14     -11.3795      2.00000
     15     -11.2283      2.00000
     16     -10.5620      2.00000
     17     -10.2938      2.00000
     18     -10.1652      2.00000
     19     -10.0443      2.00000
     20      -9.6365      2.00000
     21      -9.2876      2.00000
     22      -9.1933      2.00000
     23      -8.9400      2.00000
     24      -8.8053      2.00000
     25      -8.4960      2.00000
     26      -6.8343      2.00000
     27      -6.3655      2.00000
     28      -5.6451      2.00000
     29      -5.4804      2.00000
     30      -1.3411      0.00000
     31      -1.0128      0.00000
     32      -0.5273      0.00000
     33      -0.1995      0.00000
     34      -0.1741      0.00000
     35      -0.0729      0.00000
     36       0.0130      0.00000
     37       0.0817      0.00000
     38       0.0989      0.00000
     39       0.1209      0.00000
     40       0.1651      0.00000
     41       0.1704      0.00000

 k-point     3 :       0.2500   -0.2500    0.2500
  band No.  band energies     occupation 
      1     -26.3519      2.00000
      2     -25.5547      2.00000
      3     -23.5882      2.00000
      4     -22.5694      2.00000
      5     -19.6871      2.00000
      6     -18.3124      2.00000
      7     -17.3973      2.00000
      8     -15.7841      2.00000
      9     -15.0157      2.00000
[...]
 augmentation part        2.5797745 magnetization 

 Free energy of the ion-electron system (eV)
  ---------------------------------------------------
  alpha Z        PSCENC =         0.51957394
  Ewald energy   TEWEN  =      6059.57850062
  -Hartree energ DENC   =     -8062.15636056
  -exchange      EXHF   =         0.00000000
  -V(xc)+E(xc)   XCENC  =       214.11481344
  PAW double counting   =      4773.70865101    -4784.91967146
  entropy T*S    EENTRO =         0.00000000
  eigenvalues    EBANDS =      -756.20842224
  atomic energy  EATOM  =      2425.98333211
  Solvation  Ediel_sol  =         0.00000000
  ---------------------------------------------------
  free energy    TOTEN  =      -129.37958314 eV

  energy without entropy =     -129.37958314  energy(sigma->0) =     -129.37958314


--------------------------------------------------------------------------------------------------------




 average (electrostatic) potential at core
  the test charge radii are     0.5201  0.6991  0.7089  0.7215
  (the norm of the test charge is              1.0000)
       1 -42.3538       2 -42.6182       3 -42.5878       4 -44.7261       5 -42.3550
       6 -41.7655       7 -42.0032       8 -42.0955       9 -43.3823      10 -41.6739
      11 -41.7820      12 -41.9088      13 -59.1288      14 -61.5151      15 -60.0683
      16 -58.6802      17 -60.8186      18 -59.0648      19 -74.7470      20 -73.9259
      21 -80.0192      22 -79.2736
 
 
 
 E-fermi :  -4.4994     XC(G=0):  -0.1303     alpha+bet : -0.0465


 k-point     1 :       0.2500    0.2500    0.2500
  band No.  band energies     occupation 
      1     -26.2450      2.00000
      2     -25.5528      2.00000
      3     -23.4991      2.00000
      4     -22.6489      2.00000
      5     -19.6448      2.00000
      6     -18.2468      2.00000
      7     -17.4708      2.00000
      8     -15.8295      2.00000
      9     -14.9446      2.00000
     10     -13.9992      2.00000
     11     -12.9893      2.00000
     12     -12.5322      2.00000
     13     -12.0090      2.00000
     14     -11.3469      2.00000
     15     -11.1821      2.00000
     16     -10.6222      2.00000
     17     -10.2797      2.00000
     18     -10.1015      2.00000
     19      -9.9901      2.00000
     20      -9.6204      2.00000
     21      -9.3863      2.00000
     22      -9.2694      2.00000
     23      -8.9888      2.00000
     24      -8.8281      2.00000
     25      -8.4881      2.00000
     26      -6.8051      2.00000
     27      -6.2838      2.00000
     28      -5.7889      2.00000
     29      -5.5110      2.00000
     30      -1.2041      0.00000
     31      -0.9474      0.00000
     32      -0.4858      0.00000
     33      -0.2350      0.00000
     34      -0.1674      0.00000
     35      -0.0489      0.00000
     36       0.0348      0.00000
     37       0.1194      0.00000
     38       0.1303      0.00000
     39       0.1332      0.00000
     40       0.1759      0.00000
     41       0.1952      0.00000

 k-point     2 :      -0.2500    0.2500    0.2500
  band No.  band energies     occupation 
      1     -26.2450      2.00000
      2     -25.5528      2.00000
      3     -23.4991      2.00000
      4     -22.6489      2.00000
      5     -19.6448      2.00000
      6     -18.2468      2.00000
      7     -17.4708      2.00000
      8     -15.8295      2.00000
      9     -14.9446      2.00000
     10     -13.9992      2.00000
     11     -12.9893      2.00000
     12     -12.5322      2.00000
     13     -12.0090      2.00000
     14     -11.3469      2.00000
     15     -11.1821      2.00000
     16     -10.6222      2.00000
     17     -10.2797      2.00000
     18     -10.1015      2.00000
     19      -9.9901      2.00000
     20      -9.6204      2.00000
     21      -9.3864      2.00000
     22      -9.2694      2.00000
     23      -8.9888      2.00000
     24      -8.8281      2.00000
     25      -8.4881      2.00000
     26      -6.8051      2.00000
     27      -6.2838      2.00000
     28      -5.7889      2.00000
     29      -5.5110      2.00000
     30      -1.2042      0.00000
     31      -0.9474      0.00000
     32      -0.4858      0.00000
     33      -0.2350      0.00000
     34      -0.1675      0.00000
     35      -0.0487      0.00000
     36       0.0381      0.00000
     37       0.1040      0.00000
     38       0.1259      0.00000
     39       0.1418      0.00000
     40       0.1861      0.00000
     41       0.1946      0.00000

 k-point     3 :       0.2500   -0.2500    0.2500
  band No.  band energies     occupation 
      1     -26.2450      2.00000
      2     -25.5528      2.00000
      3     -23.4991      2.00000
      4     -22.6489      2.00000
      5     -19.6448      2.00000
      6     -18.2469      2.00000
      7     -17.4708      2.00000
      8     -15.8295      2.00000
      9     -14.9446      2.00000
     10     -13.9992      2.00000
     11     -12.9893      2.00000
     12     -12.5322      2.00000
     13     -12.0090      2.00000
     14     -11.3469      2.00000
     15     -11.1821      2.00000
     16     -10.6222      2.00000
     17     -10.2797      2.00000
     18     -10.1015      2.00000
     19      -9.9901      2.00000
     20      -9.6204      2.00000
     21      -9.3864      2.00000
     22      -9.2694      2.00000
     23      -8.9888      2.00000
     24      -8.8281      2.00000
     25      -8.4881      2.00000
     26      -6.8051      2.00000
     27      -6.2838      2.00000
     28      -5.7889      2.00000
     29      -5.5110      2.00000
     30      -1.2041      0.00000
     31      -0.9474      0.00000
     32      -0.4858      0.00000
     33      -0.2350      0.00000
     34      -0.1674      0.00000
     35      -0.0497      0.00000
     36       0.0411      0.00000
     37       0.1007      0.00000
     38       0.1267      0.00000
     39       0.1410      0.00000
     40       0.1857      0.00000
     41       0.1962      0.00000

 k-point     4 :      -0.2500   -0.2500    0.2500
  band No.  band energies     occupation 
      1     -26.2450      2.00000
      2     -25.5528      2.00000
      3     -23.4991      2.00000
      4     -22.6489      2.00000
      5     -19.6447      2.00000
      6     -18.2468      2.00000
      7     -17.4708      2.00000
      8     -15.8295      2.00000
      9     -14.9446      2.00000
     10     -13.9992      2.00000
     11     -12.9893      2.00000
     12     -12.5322      2.00000
     13     -12.0090      2.00000
     14     -11.3469      2.00000
     15     -11.1821      2.00000
     16     -10.6222      2.00000
     17     -10.2797      2.00000
     18     -10.1015      2.00000
     19      -9.9901      2.00000
     20      -9.6204      2.00000
     21      -9.3864      2.00000
     22      -9.2694      2.00000
     23      -8.9888      2.00000
     24      -8.8281      2.00000
     25      -8.4881      2.00000
     26      -6.8051      2.00000
     27      -6.2838      2.00000
     28      -5.7889      2.00000
     29      -5.5110      2.00000
     30      -1.2042      0.00000
     31      -0.9474      0.00000
     32      -0.4858      0.00000
     33      -0.2350      0.00000
     34      -0.1674      0.00000
     35      -0.0491      0.00000
     36       0.0385      0.00000
     37       0.1050      0.00000
     38       0.1317      0.00000
     39       0.1406      0.00000
     40       0.1746      0.00000
     41       0.1976      0.00000


--------------------------------------------------------------------------------------------------------


 soft charge-density along one line, spin component           1
         0         1         2         3         4         5         6         7         8         9
 total charge-density along one line
 
 pseudopotential strength for first ion, spin component:           1
 -2.353  -4.056   0.002   0.000  -0.001
 -4.056  -6.907   0.005   0.000  -0.002
  0.002   0.005  -0.332   0.000  -0.002
  0.000   0.000   0.000  -0.336   0.000
 -0.001  -0.002  -0.002   0.000  -0.335
 total augmentation occupancy for first ion, spin component:           1
  3.532  -0.636  -0.403   0.005   0.184
 -0.636   0.129   0.074  -0.001  -0.033
 -0.403   0.074   0.048  -0.001  -0.018
  0.005  -0.001  -0.001   0.009   0.000
  0.184  -0.033  -0.018   0.000   0.016


------------------------ aborting loop because EDIFF is reached ----------------------------------------


    CHARGE:  cpu time   16.4165: real time   16.4030
    FORLOC:  cpu time    5.7981: real time    5.7933
    FORNL :  cpu time   60.1958: real time   60.1458
    STRESS:  cpu time  183.2141: real time  183.0602
    FORCOR:  cpu time   23.9134: real time   23.8941
    FORHAR:  cpu time   10.5884: real time   10.5788
    MIXING:  cpu time    0.7649: real time    0.7645
    OFIELD:  cpu time    0.0000: real time    0.0000

  FORCE on cell =-STRESS in cart. coord.  units (eV):
  Direction    XX          YY          ZZ          XY          YZ          ZX
  --------------------------------------------------------------------------------------
  Alpha Z     0.51957     0.51957     0.51957
  Ewald    3407.38660  2587.29695    64.89383   -54.12433   154.81261   -96.54275
  Hartree  3820.32074  3062.82685  1179.00681   -20.06976    75.09445  -112.38364
  E(xc)    -229.32949  -229.58011  -232.17576    -0.24920     0.44633     0.08213
  Local   -7821.54935 -6243.20545 -1880.46330    65.76633  -214.94204   213.20936
  n-local  -133.94142  -133.44144  -132.04082     0.74144    -1.06085    -0.09875
  augment    14.40708    14.41351    14.58016     0.11060    -0.53079    -0.18195
  Kinetic   938.35224   937.87520   981.80579     7.61473   -13.70875    -4.06875
  Fock        0.00000     0.00000     0.00000     0.00000     0.00000     0.00000
  -------------------------------------------------------------------------------------
  Total      -3.83403    -3.29493    -3.87372    -0.21020     0.11097     0.01565
  in kB      -0.22751    -0.19552    -0.22987    -0.01247     0.00658     0.00093
  external pressure =       -0.22 kB  Pullay stress =        0.00 kB


 VOLUME and BASIS-vectors are now :
 -----------------------------------------------------------------------------
  energy-cutoff  :      400.00
  volume of cell :    27000.00
      direct lattice vectors                 reciprocal lattice vectors
    30.000000000  0.000000000  0.000000000     0.033333333  0.000000000  0.000000000
     0.000000000 30.000000000  0.000000000     0.000000000  0.033333333  0.000000000
     0.000000000  0.000000000 30.000000000     0.000000000  0.000000000  0.033333333

  length of vectors
    30.000000000 30.000000000 30.000000000     0.033333333  0.033333333  0.033333333


 FORCES acting on ions
    electron-ion (+dipol)            ewald-force                    non-local-force                 convergence-correction
 -----------------------------------------------------------------------------------------------
   0.620E+02 -.596E+02 0.829E+01   -.644E+02 0.647E+02 -.837E+01   0.237E+01 -.515E+01 0.666E-01   0.363E-04 0.191E-04 0.358E-05
   0.459E+02 0.249E+02 0.658E+02   -.467E+02 -.273E+02 -.707E+02   0.783E+00 0.236E+01 0.489E+01   0.153E-04 0.374E-04 0.153E-04
   0.665E+02 0.349E+02 -.413E+02   -.692E+02 -.379E+02 0.450E+02   0.265E+01 0.298E+01 -.374E+01   0.222E-04 0.337E-04 -.875E-05
   0.593E+02 0.799E+02 0.530E+02   -.628E+02 -.854E+02 -.565E+02   0.351E+01 0.549E+01 0.353E+01   -.267E-04 0.576E-04 0.567E-05
   0.918E+00 0.245E+02 -.972E+02   -.113E+01 -.247E+02 0.103E+03   0.225E+00 0.218E+00 -.555E+01   -.704E-04 0.500E-04 -.885E-05
   -.599E+02 0.646E+02 -.141E+02   0.652E+02 -.662E+02 0.156E+02   -.533E+01 0.157E+01 -.146E+01   -.896E-04 0.883E-05 -.503E-05
   -.350E+01 0.403E+02 0.788E+02   0.347E+01 -.402E+02 -.843E+02   0.452E-01 -.114E+00 0.546E+01   -.706E-04 0.320E-04 0.119E-04
   0.361E+02 0.803E+02 -.180E+02   -.397E+02 -.840E+02 0.198E+02   0.358E+01 0.374E+01 -.177E+01   -.381E-04 0.272E-04 -.630E-05
   0.409E+02 -.666E+02 -.114E+02   -.473E+02 0.691E+02 0.133E+02   0.642E+01 -.247E+01 -.196E+01   -.836E-04 0.697E-04 0.269E-05
   -.862E+02 -.821E+01 0.121E+00   0.912E+02 0.555E+01 0.752E+00   -.503E+01 0.267E+01 -.859E+00   -.394E-04 0.997E-04 -.940E-05
   -.173E+02 -.428E+02 0.737E+02   0.170E+02 0.443E+02 -.790E+02   0.281E+00 -.142E+01 0.532E+01   -.447E-04 0.722E-04 -.202E-04
   -.195E+02 -.798E+02 -.296E+02   0.194E+02 0.845E+02 0.327E+02   0.159E+00 -.466E+01 -.309E+01   -.344E-04 0.653E-04 -.103E-04
   0.221E+03 -.490E+01 0.420E+02   -.222E+03 0.592E+01 -.422E+02   0.792E+00 -.101E+01 0.233E+00   0.708E-04 0.137E-03 0.457E-05
   0.175E+03 0.147E+01 0.221E+02   -.179E+03 -.141E+01 -.230E+02   0.486E+01 -.754E-01 0.988E+00   -.789E-04 0.212E-03 -.177E-05
   -.121E+02 0.106E+03 -.989E+02   0.170E+02 -.107E+03 0.101E+03   -.493E+01 0.148E+01 -.181E+01   -.312E-03 0.187E-03 -.445E-04
   -.247E+02 0.233E+03 0.364E+02   0.261E+02 -.234E+03 -.364E+02   -.139E+01 0.114E+01 0.404E-01   -.267E-03 0.145E-03 -.500E-05
   -.210E+02 0.159E+02 -.191E+02   0.179E+02 -.181E+02 0.199E+02   0.315E+01 0.218E+01 -.832E+00   -.354E-03 0.270E-03 -.324E-04
   -.146E+03 -.185E+03 0.602E+02   0.151E+03 0.188E+03 -.614E+02   -.451E+01 -.285E+01 0.123E+01   -.122E-03 0.356E-03 -.191E-04
   0.111E+03 0.136E+03 0.886E+02   -.106E+03 -.134E+03 -.922E+02   -.449E+01 -.187E+01 0.352E+01   -.181E-03 0.234E-03 -.809E-04
   -.153E+02 -.195E+03 0.426E+02   0.120E+02 0.197E+03 -.462E+02   0.328E+01 -.259E+01 0.356E+01   -.252E-03 0.329E-03 -.207E-04
   0.667E+02 -.341E+03 -.214E+03   -.519E+02 0.384E+03 0.240E+03   -.148E+02 -.429E+02 -.255E+02   -.196E-03 0.267E-03 0.204E-04
   -.423E+03 0.161E+03 -.106E+02   0.471E+03 -.183E+03 0.986E+01   -.482E+02 0.220E+02 0.657E+00   -.221E-03 0.335E-03 -.603E-04
 -----------------------------------------------------------------------------------------------
   0.566E+02 0.193E+02 0.171E+02   0.114E-12 0.000E+00 0.355E-14   -.566E+02 -.193E+02 -.171E+02   -.234E-02 0.304E-02 -.269E-03
 
 
 POSITION                                       TOTAL-FORCE (eV/Angst)
 -----------------------------------------------------------------------------------
     11.32198     16.33804     14.91271         0.021658      0.013686     -0.008556
     11.64321     14.85711     13.95368         0.003469      0.004263     -0.001578
     11.25783     14.73402     15.68536        -0.015784      0.022117     -0.004128
     13.52188     13.63735     14.50374         0.015942      0.013779     -0.036021
     15.28246     13.95665     16.60026         0.012422      0.027334     -0.020033
     16.62897     12.28885     15.22855        -0.008290     -0.020164      0.033664
     15.59109     12.64014     13.83545         0.015991     -0.050885      0.020581
     14.88501     11.87194     15.29334        -0.008508      0.000284      0.027013
     15.37365     16.57712     15.19820        -0.000901     -0.006965     -0.022428
     18.32936     16.63493     14.72989        -0.007637      0.009651      0.012202
     17.30090     17.42062     13.50017        -0.009114      0.021743      0.020214
     17.32071     18.04942     15.17358        -0.024405     -0.000133      0.020533
     11.77996     15.34337     14.93076         0.004856      0.006898     -0.002138
     13.24124     15.46401     15.31989        -0.003858     -0.019552      0.007293
     15.33552     13.99888     15.49568         0.004567      0.005544     -0.019117
     15.62277     12.60539     14.93649         0.001253     -0.012193      0.019892
     16.55041     14.91298     15.16342         0.041103     -0.030461     -0.035174
     17.36733     17.13649     14.56353        -0.004467      0.005458      0.013233
     14.00994     14.39025     14.98304         0.005196      0.006228     -0.012849
     16.30068     16.22024     14.92552        -0.009966      0.009392     -0.006201
     13.68561     16.46207     15.91226         0.001345     -0.016454      0.051909
     17.68319     14.40878     15.14394        -0.034872      0.010432     -0.058313
 -----------------------------------------------------------------------------------
    total drift:                               -0.004461     -0.005905      0.029326


--------------------------------------------------------------------------------------------------------



  FREE ENERGIE OF THE ION-ELECTRON SYSTEM (eV)
  ---------------------------------------------------
  free  energy   TOTEN  =      -129.37958314 eV

  energy  without entropy=     -129.37958314  energy(sigma->0) =     -129.37958314
 
 d Force = 0.5778028E-04[ 0.506E-04, 0.650E-04]  d Energy = 0.5786230E-04-0.820E-07
 d Force = 0.2634641E-01[ 0.263E-01, 0.264E-01]  d Ewald  = 0.2634640E-01 0.551E-08


--------------------------------------------------------------------------------------------------------


    POTLOK:  cpu time   20.9968: real time   20.9799


--------------------------------------------------------------------------------------------------------


 NEB: the previous image is higher in energy: F
 NEB: the next image is higher in energy    : T
 NEB: only next energy greater

 NEB: Tangent
 ----------------------------------------------
     -0.05794     -0.08278     -0.02291
     -0.03196     -0.08035     -0.01557
      0.00007     -0.07832     -0.00855
     -0.03935     -0.05670      0.07363
     -0.00191     -0.23098     -0.06974
      0.07248      0.08331     -0.28512
      0.08233      0.27495     -0.23698
      0.09417      0.01545     -0.40911
     -0.04234     -0.00594     -0.02616
     -0.00770      0.01088      0.24257
      0.06627      0.08670      0.22938
     -0.02894     -0.01131      0.26024
     -0.03045     -0.06924     -0.02111
     -0.02634     -0.01708     -0.05241
     -0.00074     -0.03581     -0.04098
      0.06847      0.09167     -0.26123
     -0.01594      0.02204      0.14986
      0.00619      0.02527      0.21153
     -0.02021     -0.03049      0.00720
     -0.01192      0.00732      0.08147
     -0.04319      0.03643     -0.14167
     -0.01782      0.04998      0.32646

 NEB: forces: par spring, perp REAL, dneb     0.036406    0.145332    0.000000
 NEB: distance to prev, next image, angle between     1.163509    1.170790  162.403423
 NEB: projections on to tangent (spring, REAL)     0.036406   -0.075311

 stress matrix after NEB project (eV)
     -3.83403     -0.21020      0.01565
     -0.21020     -3.29493      0.11097
      0.01565      0.11097     -3.87372
  FORCES: max atom, RMS     0.056804    0.031942
  FORCE total and by dimension    0.149823    0.049607
  Stress total and by dimension    6.377737    3.873719
 OPT: skip step - force has converged


--------------------------------------------------------------------------------------------------------


  
 reached required accuracy - stopping structural energy minimisation
     LOOP+:  cpu time 1816.5378: real time 1816.1986
    4ORBIT:  cpu time    0.0000: real time    0.0000

 total amount of memory used by VASP on root node  4333702. kBytes
========================================================================

   base      :      30000. kBytes
   nonlr-proj:       2397. kBytes
   fftplans  :     924480. kBytes
   grid      :    2089440. kBytes
   one-center:         67. kBytes
   wavefun   :    1287318. kBytes
 
  
  
 General timing and accounting informations for this job:
 ========================================================
  
                  Total CPU time used (sec):   123695.133
                            User time (sec):   122919.011
                          System time (sec):      776.125
                         Elapsed time (sec):   123693.238
  
                   Maximum memory used (kb):     5901352.
                   Average memory used (kb):           0.
  
                          Minor page faults:    183265876
                          Major page faults:            9
                 Voluntary context switches:         7782
