 vasp.5.4.1 24Jun15 (build Jan 13 2020 12:58:22) complex                        
  
 POSCAR found type information on POSCAR  H  C  N  O 
 06/POSCAR found :  4 types and      22 ions
 scaLAPACK will be used
 LDA part: xc-table for Pade appr. of Perdew
 POSCAR found type information on POSCAR  H  C  N  O 
 00/POSCAR found :  4 types and      22 ions
 POSCAR found type information on POSCAR  H  C  N  O 
 16/POSCAR found :  4 types and      22 ions
 Jacobian:    50.2178792621697     
 POSCAR, INCAR and KPOINTS ok, starting setup
 WARNING: small aliasing (wrap around) errors must be expected
 FFT: planning ...
 WAVECAR not read
 entering main loop
       N       E                     dE             d eps       ncg     rms          rms(c)
DAV:   1     0.610090134552E+03    0.61009E+03   -0.79902E+03   392   0.485E+02
DAV:   2     0.263441372923E+03   -0.34665E+03   -0.33598E+03   595   0.909E+01
DAV:   3    -0.514857989078E+02   -0.31493E+03   -0.30647E+03   512   0.111E+02
DAV:   4    -0.137196728401E+03   -0.85711E+02   -0.85565E+02   396   0.779E+01
DAV:   5    -0.141682389380E+03   -0.44857E+01   -0.44747E+01   464   0.211E+01    0.196E+01
DAV:   6    -0.131497624262E+03    0.10185E+02   -0.23879E+01   413   0.198E+01    0.100E+01
DAV:   7    -0.129722322392E+03    0.17753E+01   -0.45680E+00   424   0.832E+00    0.514E+00
DAV:   8    -0.129230087949E+03    0.49223E+00   -0.87240E-01   447   0.409E+00    0.151E+00
DAV:   9    -0.129162555572E+03    0.67532E-01   -0.97983E-02   456   0.152E+00    0.565E-01
DAV:  10    -0.129150361077E+03    0.12194E-01   -0.23800E-02   444   0.797E-01    0.261E-01
DAV:  11    -0.129144461111E+03    0.59000E-02   -0.76060E-03   438   0.450E-01    0.161E-01
DAV:  12    -0.129144217248E+03    0.24386E-03   -0.53495E-03   412   0.354E-01    0.974E-02
DAV:  13    -0.129150196100E+03   -0.59789E-02   -0.41323E-03   416   0.321E-01    0.583E-02
DAV:  14    -0.129157234766E+03   -0.70387E-02   -0.21422E-03   430   0.224E-01    0.371E-02
DAV:  15    -0.129165024066E+03   -0.77893E-02   -0.85534E-04   428   0.112E-01    0.241E-02
DAV:  16    -0.129170510709E+03   -0.54866E-02   -0.41969E-04   342   0.644E-02    0.134E-02
DAV:  17    -0.129173068340E+03   -0.25576E-02   -0.11908E-04   368   0.362E-02    0.859E-03
DAV:  18    -0.129174979802E+03   -0.19115E-02   -0.13566E-04   324   0.318E-02    0.539E-03
DAV:  19    -0.129175879493E+03   -0.89969E-03   -0.53218E-05   368   0.199E-02    0.320E-03
DAV:  20    -0.129176272735E+03   -0.39324E-03   -0.15677E-05   366   0.131E-02    0.201E-03
DAV:  21    -0.129176470332E+03   -0.19760E-03   -0.72680E-06   320   0.781E-03    0.122E-03
DAV:  22    -0.129176611342E+03   -0.14101E-03   -0.35912E-06   294   0.617E-03    0.957E-04
DAV:  23    -0.129176649658E+03   -0.38316E-04   -0.89003E-07   368   0.326E-03
   1 F= -.12917665E+03 E0= -.12917665E+03  d E =-.129177E+03
damped:  g(F)=  0.000E+00 g(S)=  0.000E+00 dE (1.order)= 0.000E+00
 bond charge predicted
       N       E                     dE             d eps       ncg     rms          rms(c)
DAV:   1    -0.129182523902E+03   -0.59126E-02   -0.27854E-01   340   0.282E+00    0.125E-01
DAV:   2    -0.129183160364E+03   -0.63646E-03   -0.90100E-03   464   0.440E-01    0.817E-02
DAV:   3    -0.129183089276E+03    0.71088E-04   -0.21707E-04   392   0.822E-02    0.505E-02
DAV:   4    -0.129183064510E+03    0.24766E-04   -0.18383E-04   334   0.755E-02    0.113E-02
DAV:   5    -0.129183066608E+03   -0.20978E-05   -0.41187E-05   368   0.336E-02    0.740E-03
DAV:   6    -0.129183069541E+03   -0.29332E-05   -0.58764E-06   240   0.130E-02
   2 F= -.12918307E+03 E0= -.12918307E+03  d E =-.641988E-02
damped:  g(F)=  0.000E+00 g(S)=  0.000E+00 dE (1.order)= 0.000E+00
 bond charge predicted
       N       E                     dE             d eps       ncg     rms          rms(c)
DAV:   1    -0.129188489928E+03   -0.54233E-02   -0.48313E-01   331   0.366E+00    0.145E-01
DAV:   2    -0.129189391429E+03   -0.90150E-03   -0.11901E-02   375   0.499E-01    0.884E-02
DAV:   3    -0.129189355740E+03    0.35689E-04   -0.33211E-04   400   0.980E-02    0.528E-02
DAV:   4    -0.129189390085E+03   -0.34345E-04   -0.16580E-04   298   0.741E-02    0.114E-02
DAV:   5    -0.129189400727E+03   -0.10643E-04   -0.39054E-05   272   0.331E-02    0.700E-03
DAV:   6    -0.129189408584E+03   -0.78569E-05   -0.78998E-06   264   0.153E-02
   3 F= -.12918941E+03 E0= -.12918941E+03  d E =-.633904E-02
damped:  g(F)=  0.000E+00 g(S)=  0.000E+00 dE (1.order)= 0.000E+00
 bond charge predicted
       N       E                     dE             d eps       ncg     rms          rms(c)
DAV:   1    -0.129198128403E+03   -0.87277E-02   -0.72076E-01   332   0.442E+00    0.179E-01
DAV:   2    -0.129199475255E+03   -0.13469E-02   -0.18018E-02   338   0.610E-01    0.117E-01
DAV:   3    -0.129199413825E+03    0.61430E-04   -0.55921E-04   430   0.129E-01    0.724E-02
DAV:   4    -0.129199477114E+03   -0.63289E-04   -0.32237E-04   361   0.987E-02    0.179E-02
DAV:   5    -0.129199489945E+03   -0.12831E-04   -0.57460E-05   368   0.405E-02    0.964E-03
DAV:   6    -0.129199493348E+03   -0.34029E-05   -0.69952E-06   304   0.140E-02
   4 F= -.12919949E+03 E0= -.12919949E+03  d E =-.100848E-01
damped:  g(F)=  0.000E+00 g(S)=  0.000E+00 dE (1.order)= 0.000E+00
 bond charge predicted
       N       E                     dE             d eps       ncg     rms          rms(c)
DAV:   1    -0.129206141956E+03   -0.66520E-02   -0.11230E+00   332   0.554E+00    0.229E-01
DAV:   2    -0.129208213727E+03   -0.20718E-02   -0.28840E-02   367   0.785E-01    0.144E-01
DAV:   3    -0.129208103504E+03    0.11022E-03   -0.90185E-04   464   0.164E-01    0.893E-02
DAV:   4    -0.129208199667E+03   -0.96163E-04   -0.47222E-04   447   0.123E-01    0.235E-02
DAV:   5    -0.129208218066E+03   -0.18399E-04   -0.99789E-05   336   0.545E-02    0.124E-02
DAV:   6    -0.129208223664E+03   -0.55980E-05   -0.12007E-05   304   0.186E-02
   5 F= -.12920822E+03 E0= -.12920822E+03  d E =-.873032E-02
damped:  g(F)=  0.000E+00 g(S)=  0.000E+00 dE (1.order)= 0.000E+00
 bond charge predicted
       N       E                     dE             d eps       ncg     rms          rms(c)
DAV:   1    -0.129213838861E+03   -0.56208E-02   -0.13618E+00   331   0.602E+00    0.249E-01
DAV:   2    -0.129216445159E+03   -0.26063E-02   -0.33767E-02   364   0.822E-01    0.144E-01
DAV:   3    -0.129216390146E+03    0.55013E-04   -0.88539E-04   446   0.156E-01    0.855E-02
DAV:   4    -0.129216578837E+03   -0.18869E-03   -0.42742E-04   419   0.117E-01    0.199E-02
DAV:   5    -0.129216599067E+03   -0.20230E-04   -0.86333E-05   336   0.490E-02    0.111E-02
DAV:   6    -0.129216605985E+03   -0.69177E-05   -0.94608E-06   260   0.157E-02
   6 F= -.12921661E+03 E0= -.12921661E+03  d E =-.838232E-02
damped:  g(F)=  0.000E+00 g(S)=  0.000E+00 dE (1.order)= 0.000E+00
 bond charge predicted
       N       E                     dE             d eps       ncg     rms          rms(c)
DAV:   1    -0.129222045243E+03   -0.54462E-02   -0.15457E+00   328   0.649E+00    0.256E-01
DAV:   2    -0.129224890141E+03   -0.28449E-02   -0.36551E-02   363   0.867E-01    0.156E-01
DAV:   3    -0.129224847780E+03    0.42360E-04   -0.89299E-04   463   0.156E-01    0.915E-02
DAV:   4    -0.129225053994E+03   -0.20621E-03   -0.38982E-04   419   0.114E-01    0.183E-02
DAV:   5    -0.129225076046E+03   -0.22052E-04   -0.72872E-05   304   0.447E-02    0.118E-02
DAV:   6    -0.129225085522E+03   -0.94757E-05   -0.10474E-05   266   0.172E-02
   7 F= -.12922509E+03 E0= -.12922509E+03  d E =-.847954E-02
damped:  g(F)=  0.000E+00 g(S)=  0.000E+00 dE (1.order)= 0.000E+00
 bond charge predicted
       N       E                     dE             d eps       ncg     rms          rms(c)
DAV:   1    -0.129230902229E+03   -0.58262E-02   -0.19670E+00   330   0.733E+00    0.280E-01
DAV:   2    -0.129234394581E+03   -0.34924E-02   -0.44415E-02   380   0.958E-01    0.186E-01
DAV:   3    -0.129234333541E+03    0.61040E-04   -0.10765E-03   462   0.173E-01    0.112E-01
DAV:   4    -0.129234606180E+03   -0.27264E-03   -0.54920E-04   435   0.133E-01    0.200E-02
DAV:   5    -0.129234632320E+03   -0.26140E-04   -0.99816E-05   368   0.508E-02    0.138E-02
DAV:   6    -0.129234641576E+03   -0.92558E-05   -0.10166E-05   316   0.179E-02
   8 F= -.12923464E+03 E0= -.12923464E+03  d E =-.955605E-02
damped:  g(F)=  0.000E+00 g(S)=  0.000E+00 dE (1.order)= 0.000E+00
 bond charge predicted
       N       E                     dE             d eps       ncg     rms          rms(c)
DAV:   1    -0.129242160746E+03   -0.75284E-02   -0.26244E+00   328   0.840E+00    0.328E-01
DAV:   2    -0.129246721630E+03   -0.45609E-02   -0.58834E-02   396   0.110E+00    0.213E-01
DAV:   3    -0.129246595176E+03    0.12645E-03   -0.11109E-03   429   0.188E-01    0.124E-01
DAV:   4    -0.129247002533E+03   -0.40736E-03   -0.79083E-04   414   0.155E-01    0.237E-02
DAV:   5    -0.129247033407E+03   -0.30875E-04   -0.14921E-04   336   0.633E-02    0.155E-02
DAV:   6    -0.129247043411E+03   -0.10004E-04   -0.13484E-05   326   0.194E-02
   9 F= -.12924704E+03 E0= -.12924704E+03  d E =-.124018E-01
damped:  g(F)=  0.000E+00 g(S)=  0.000E+00 dE (1.order)= 0.000E+00
 bond charge predicted
       N       E                     dE             d eps       ncg     rms          rms(c)
DAV:   1    -0.129253069400E+03   -0.60360E-02   -0.37457E+00   328   0.100E+01    0.388E-01
DAV:   2    -0.129259643370E+03   -0.65740E-02   -0.83719E-02   396   0.130E+00    0.257E-01
DAV:   3    -0.129259404623E+03    0.23875E-03   -0.14369E-03   437   0.213E-01    0.148E-01
DAV:   4    -0.129259943480E+03   -0.53886E-03   -0.10473E-03   431   0.181E-01    0.256E-02
DAV:   5    -0.129259981575E+03   -0.38095E-04   -0.19421E-04   392   0.714E-02    0.172E-02
DAV:   6    -0.129259993900E+03   -0.12325E-04   -0.13744E-05   286   0.197E-02
  10 F= -.12925999E+03 E0= -.12925999E+03  d E =-.129505E-01
damped:  g(F)=  0.000E+00 g(S)=  0.000E+00 dE (1.order)= 0.000E+00
 bond charge predicted
       N       E                     dE             d eps       ncg     rms          rms(c)
DAV:   1    -0.129263102201E+03   -0.31206E-02   -0.56230E+00   328   0.123E+01    0.474E-01
DAV:   2    -0.129273310240E+03   -0.10208E-01   -0.12948E-01   428   0.162E+00    0.322E-01
DAV:   3    -0.129272813231E+03    0.49701E-03   -0.24850E-03   462   0.273E-01    0.187E-01
DAV:   4    -0.129273455313E+03   -0.64208E-03   -0.15050E-03   436   0.218E-01    0.344E-02
DAV:   5    -0.129273515368E+03   -0.60056E-04   -0.27281E-04   400   0.851E-02    0.223E-02
DAV:   6    -0.129273537666E+03   -0.22298E-04   -0.25876E-05   358   0.280E-02
  11 F= -.12927354E+03 E0= -.12927354E+03  d E =-.135438E-01
damped:  g(F)=  0.000E+00 g(S)=  0.000E+00 dE (1.order)= 0.000E+00
 bond charge predicted
       N       E                     dE             d eps       ncg     rms          rms(c)
DAV:   1    -0.129267933231E+03    0.55821E-02   -0.83528E+00   328   0.151E+01    0.607E-01
DAV:   2    -0.129284471566E+03   -0.16538E-01   -0.22072E-01   395   0.214E+00    0.417E-01
DAV:   3    -0.129283311337E+03    0.11602E-02   -0.47360E-03   464   0.383E-01    0.259E-01
DAV:   4    -0.129283772655E+03   -0.46132E-03   -0.33409E-03   430   0.316E-01    0.569E-02
DAV:   5    -0.129283866852E+03   -0.94197E-04   -0.71153E-04   464   0.136E-01    0.335E-02
DAV:   6    -0.129283892014E+03   -0.25163E-04   -0.48562E-05   368   0.381E-02
  12 F= -.12928389E+03 E0= -.12928389E+03  d E =-.103543E-01
damped:  g(F)=  0.000E+00 g(S)=  0.000E+00 dE (1.order)= 0.000E+00
 bond charge predicted
       N       E                     dE             d eps       ncg     rms          rms(c)
DAV:   1    -0.129291604958E+03   -0.77381E-02   -0.40246E-01   334   0.331E+00    0.214E-01
DAV:   2    -0.129292979970E+03   -0.13750E-02   -0.19076E-02   460   0.625E-01    0.127E-01
DAV:   3    -0.129292810630E+03    0.16934E-03   -0.53480E-04   464   0.128E-01    0.751E-02
DAV:   4    -0.129292749366E+03    0.61264E-04   -0.35023E-04   424   0.985E-02    0.181E-02
DAV:   5    -0.129292756257E+03   -0.68904E-05   -0.63728E-05   367   0.419E-02    0.931E-03
DAV:   6    -0.129292763831E+03   -0.75745E-05   -0.90627E-06   368   0.160E-02
  13 F= -.12929276E+03 E0= -.12929276E+03  d E =-.887182E-02
damped:  g(F)=  0.000E+00 g(S)=  0.000E+00 dE (1.order)= 0.000E+00
 bond charge predicted
       N       E                     dE             d eps       ncg     rms          rms(c)
DAV:   1    -0.129288143624E+03    0.46126E-02   -0.53649E-01   328   0.383E+00    0.241E-01
DAV:   2    -0.129289769510E+03   -0.16259E-02   -0.24882E-02   428   0.721E-01    0.145E-01
DAV:   3    -0.129289444242E+03    0.32527E-03   -0.70703E-04   464   0.149E-01    0.861E-02
DAV:   4    -0.129289243597E+03    0.20065E-03   -0.48200E-04   426   0.118E-01    0.212E-02
DAV:   5    -0.129289228910E+03    0.14687E-04   -0.94555E-05   400   0.525E-02    0.120E-02
DAV:   6    -0.129289240370E+03   -0.11460E-04   -0.11592E-05   310   0.185E-02
  14 F= -.12928924E+03 E0= -.12928924E+03  d E =0.352346E-02
damped:  g(F)=  0.000E+00 g(S)=  0.000E+00 dE (1.order)= 0.000E+00
 bond charge predicted
       N       E                     dE             d eps       ncg     rms          rms(c)
DAV:   1    -0.129291535267E+03   -0.23064E-02   -0.18092E-02   379   0.704E-01    0.459E-02
DAV:   2    -0.129291623348E+03   -0.88082E-04   -0.81791E-04   448   0.129E-01    0.268E-02
DAV:   3    -0.129291638922E+03   -0.15573E-04   -0.22078E-05   314   0.274E-02    0.150E-02
DAV:   4    -0.129291671839E+03   -0.32917E-04   -0.18638E-05   290   0.225E-02    0.296E-03
DAV:   5    -0.129291687153E+03   -0.15314E-04   -0.42038E-06   360   0.991E-03    0.170E-03
DAV:   6    -0.129291696613E+03   -0.94607E-05   -0.72834E-07   234   0.401E-03
  15 F= -.12929170E+03 E0= -.12929170E+03  d E =-.245624E-02
damped:  g(F)=  0.000E+00 g(S)=  0.000E+00 dE (1.order)= 0.000E+00
 bond charge predicted
       N       E                     dE             d eps       ncg     rms          rms(c)
DAV:   1    -0.129294354985E+03   -0.26678E-02   -0.57467E-02   330   0.126E+00    0.789E-02
DAV:   2    -0.129294540189E+03   -0.18520E-03   -0.26603E-03   426   0.234E-01    0.477E-02
DAV:   3    -0.129294510438E+03    0.29751E-04   -0.70706E-05   351   0.486E-02    0.276E-02
DAV:   4    -0.129294494549E+03    0.15889E-04   -0.65705E-05   296   0.429E-02    0.587E-03
DAV:   5    -0.129294494362E+03    0.18727E-06   -0.14495E-05   360   0.198E-02    0.345E-03
DAV:   6    -0.129294495511E+03   -0.11498E-05   -0.22678E-06   222   0.786E-03
  16 F= -.12929450E+03 E0= -.12929450E+03  d E =-.279890E-02
damped:  g(F)=  0.000E+00 g(S)=  0.000E+00 dE (1.order)= 0.000E+00
 bond charge predicted
       N       E                     dE             d eps       ncg     rms          rms(c)
DAV:   1    -0.129295519258E+03   -0.10249E-02   -0.84392E-02   330   0.153E+00    0.926E-02
DAV:   2    -0.129295762936E+03   -0.24368E-03   -0.38667E-03   456   0.283E-01    0.574E-02
DAV:   3    -0.129295704289E+03    0.58647E-04   -0.10244E-04   368   0.583E-02    0.336E-02
DAV:   4    -0.129295666336E+03    0.37953E-04   -0.95921E-05   344   0.520E-02    0.732E-03
DAV:   5    -0.129295667051E+03   -0.71459E-06   -0.21129E-05   312   0.242E-02    0.426E-03
DAV:   6    -0.129295671808E+03   -0.47567E-05   -0.37797E-06   304   0.102E-02
  17 F= -.12929567E+03 E0= -.12929567E+03  d E =-.117630E-02
damped:  g(F)=  0.000E+00 g(S)=  0.000E+00 dE (1.order)= 0.000E+00
 bond charge predicted
       N       E                     dE             d eps       ncg     rms          rms(c)
DAV:   1    -0.129295108116E+03    0.55894E-03   -0.65092E-02   334   0.135E+00    0.741E-02
DAV:   2    -0.129295287745E+03   -0.17963E-03   -0.27985E-03   414   0.241E-01    0.483E-02
DAV:   3    -0.129295249428E+03    0.38317E-04   -0.70901E-05   368   0.484E-02    0.290E-02
DAV:   4    -0.129295226961E+03    0.22467E-04   -0.67020E-05   270   0.445E-02    0.630E-03
DAV:   5    -0.129295230353E+03   -0.33920E-05   -0.16977E-05   248   0.214E-02    0.364E-03
DAV:   6    -0.129295236880E+03   -0.65266E-05   -0.34582E-06   300   0.977E-03
  18 F= -.12929524E+03 E0= -.12929524E+03  d E =0.434928E-03
damped:  g(F)=  0.000E+00 g(S)=  0.000E+00 dE (1.order)= 0.000E+00
 bond charge predicted
       N       E                     dE             d eps       ncg     rms          rms(c)
DAV:   1    -0.129295426055E+03   -0.19570E-03   -0.28774E-04   364   0.880E-02    0.496E-03
DAV:   2    -0.129295433514E+03   -0.74593E-05   -0.13738E-05   272   0.191E-02    0.303E-03
DAV:   3    -0.129295438939E+03   -0.54249E-05   -0.14335E-06   204   0.615E-03    0.195E-03
DAV:   4    -0.129295447642E+03   -0.87030E-05   -0.73664E-07   316   0.366E-03    0.682E-04
DAV:   5    -0.129295451339E+03   -0.36969E-05   -0.14952E-07   272   0.171E-03    0.358E-04
DAV:   6    -0.129295454743E+03   -0.34041E-05   -0.10554E-07   234   0.109E-03
  19 F= -.12929545E+03 E0= -.12929545E+03  d E =-.217863E-03
damped:  g(F)=  0.000E+00 g(S)=  0.000E+00 dE (1.order)= 0.000E+00
 bond charge predicted
       N       E                     dE             d eps       ncg     rms          rms(c)
DAV:   1    -0.129295779650E+03   -0.32831E-03   -0.11237E-03   374   0.175E-01    0.106E-02
DAV:   2    -0.129295784408E+03   -0.47575E-05   -0.45793E-05   302   0.321E-02    0.611E-03
DAV:   3    -0.129295785646E+03   -0.12378E-05   -0.47547E-06   252   0.104E-02    0.340E-03
DAV:   4    -0.129295787231E+03   -0.15852E-05   -0.98053E-07   260   0.518E-03    0.113E-03
DAV:   5    -0.129295788405E+03   -0.11746E-05   -0.30476E-07   304   0.289E-03    0.429E-04
DAV:   6    -0.129295788956E+03   -0.55085E-06   -0.43395E-08   240   0.131E-03
  20 F= -.12929579E+03 E0= -.12929579E+03  d E =-.334213E-03
damped:  g(F)=  0.000E+00 g(S)=  0.000E+00 dE (1.order)= 0.000E+00
 bond charge predicted
       N       E                     dE             d eps       ncg     rms          rms(c)
DAV:   1    -0.129296202017E+03   -0.41361E-03   -0.23313E-03   366   0.252E-01    0.152E-02
DAV:   2    -0.129296208879E+03   -0.68626E-05   -0.10067E-04   312   0.461E-02    0.897E-03
DAV:   3    -0.129296207896E+03    0.98324E-06   -0.46047E-06   256   0.114E-02    0.539E-03
DAV:   4    -0.129296207134E+03    0.76209E-06   -0.30304E-06   272   0.887E-03    0.135E-03
DAV:   5    -0.129296207143E+03   -0.94433E-08   -0.67896E-07   272   0.474E-03    0.724E-04
DAV:   6    -0.129296207274E+03   -0.13013E-06   -0.11023E-07   272   0.206E-03
  21 F= -.12929621E+03 E0= -.12929621E+03  d E =-.418317E-03
damped:  g(F)=  0.000E+00 g(S)=  0.000E+00 dE (1.order)= 0.000E+00
 bond charge predicted
       N       E                     dE             d eps       ncg     rms          rms(c)
DAV:   1    -0.129296647562E+03   -0.44042E-03   -0.36891E-03   344   0.317E-01    0.189E-02
DAV:   2    -0.129296656711E+03   -0.91488E-05   -0.14986E-04   272   0.577E-02    0.110E-02
DAV:   3    -0.129296655286E+03    0.14251E-05   -0.11294E-05   272   0.163E-02    0.668E-03
DAV:   4    -0.129296653703E+03    0.15825E-05   -0.57818E-06   216   0.121E-02    0.166E-03
DAV:   5    -0.129296653648E+03    0.55196E-07   -0.13838E-06   272   0.614E-03    0.925E-04
DAV:   6    -0.129296653832E+03   -0.18356E-06   -0.38947E-07   206   0.301E-03
  22 F= -.12929665E+03 E0= -.12929665E+03  d E =-.446558E-03
damped:  g(F)=  0.000E+00 g(S)=  0.000E+00 dE (1.order)= 0.000E+00
 bond charge predicted
       N       E                     dE             d eps       ncg     rms          rms(c)
DAV:   1    -0.129297062440E+03   -0.40879E-03   -0.49236E-03   334   0.366E-01    0.213E-02
DAV:   2    -0.129297075789E+03   -0.13349E-04   -0.20739E-04   333   0.662E-02    0.127E-02
DAV:   3    -0.129297073101E+03    0.26888E-05   -0.93196E-06   256   0.161E-02    0.766E-03
DAV:   4    -0.129297070886E+03    0.22142E-05   -0.58626E-06   238   0.126E-02    0.182E-03
DAV:   5    -0.129297070909E+03   -0.22442E-07   -0.14369E-06   230   0.656E-03    0.974E-04
DAV:   6    -0.129297071281E+03   -0.37200E-06   -0.32301E-07   212   0.291E-03
  23 F= -.12929707E+03 E0= -.12929707E+03  d E =-.417449E-03
damped:  g(F)=  0.000E+00 g(S)=  0.000E+00 dE (1.order)= 0.000E+00
 bond charge predicted
       N       E                     dE             d eps       ncg     rms          rms(c)
DAV:   1    -0.129297411611E+03   -0.34070E-03   -0.57544E-03   332   0.397E-01    0.222E-02
DAV:   2    -0.129297426395E+03   -0.14784E-04   -0.22582E-04   267   0.701E-02    0.136E-02
DAV:   3    -0.129297424279E+03    0.21165E-05   -0.13044E-05   170   0.178E-02    0.828E-03
DAV:   4    -0.129297422540E+03    0.17386E-05   -0.82428E-06   230   0.147E-02    0.195E-03
DAV:   5    -0.129297422708E+03   -0.16734E-06   -0.19576E-06   184   0.739E-03    0.111E-03
DAV:   6    -0.129297423171E+03   -0.46355E-06   -0.53293E-07   201   0.348E-03
  24 F= -.12929742E+03 E0= -.12929742E+03  d E =-.351890E-03
damped:  g(F)=  0.000E+00 g(S)=  0.000E+00 dE (1.order)= 0.000E+00
 bond charge predicted
       N       E                     dE             d eps       ncg     rms          rms(c)
DAV:   1    -0.129297718881E+03   -0.29617E-03   -0.72889E-03   333   0.447E-01    0.233E-02
DAV:   2    -0.129297738015E+03   -0.19134E-04   -0.27917E-04   330   0.763E-02    0.147E-02
DAV:   3    -0.129297734829E+03    0.31865E-05   -0.85352E-06   186   0.167E-02    0.898E-03
DAV:   4    -0.129297732589E+03    0.22399E-05   -0.74936E-06   217   0.148E-02    0.195E-03
DAV:   5    -0.129297732806E+03   -0.21713E-06   -0.17603E-06   184   0.726E-03    0.112E-03
DAV:   6    -0.129297733366E+03   -0.56047E-06   -0.35530E-07   200   0.316E-03
  25 F= -.12929773E+03 E0= -.12929773E+03  d E =-.310195E-03
damped:  g(F)=  0.000E+00 g(S)=  0.000E+00 dE (1.order)= 0.000E+00
 bond charge predicted
       N       E                     dE             d eps       ncg     rms          rms(c)
DAV:   1    -0.129298020626E+03   -0.28782E-03   -0.83426E-03   332   0.477E-01    0.220E-02
DAV:   2    -0.129298039935E+03   -0.19309E-04   -0.27112E-04   265   0.760E-02    0.141E-02
DAV:   3    -0.129298038023E+03    0.19117E-05   -0.12031E-05   165   0.185E-02    0.875E-03
DAV:   4    -0.129298036806E+03    0.12179E-05   -0.76606E-06   199   0.150E-02    0.191E-03
DAV:   5    -0.129298037152E+03   -0.34638E-06   -0.18681E-06   164   0.719E-03    0.115E-03
DAV:   6    -0.129298037743E+03   -0.59079E-06   -0.43808E-07   200   0.332E-03
  26 F= -.12929804E+03 E0= -.12929804E+03  d E =-.304376E-03
damped:  g(F)=  0.000E+00 g(S)=  0.000E+00 dE (1.order)= 0.000E+00
 bond charge predicted
       N       E                     dE             d eps       ncg     rms          rms(c)
DAV:   1    -0.129298412645E+03   -0.37549E-03   -0.93405E-03   332   0.500E-01    0.193E-02
DAV:   2    -0.129298431155E+03   -0.18510E-04   -0.24403E-04   266   0.714E-02    0.128E-02
DAV:   3    -0.129298430390E+03    0.76475E-06   -0.97328E-06   164   0.165E-02    0.803E-03
DAV:   4    -0.129298430674E+03   -0.28351E-06   -0.59665E-06   234   0.136E-02    0.168E-03
DAV:   5    -0.129298431084E+03   -0.41047E-06   -0.15702E-06   164   0.641E-03    0.111E-03
DAV:   6    -0.129298431625E+03   -0.54040E-06   -0.37408E-07   200   0.296E-03
  27 F= -.12929843E+03 E0= -.12929843E+03  d E =-.393882E-03
damped:  g(F)=  0.000E+00 g(S)=  0.000E+00 dE (1.order)= 0.000E+00
 bond charge predicted
       N       E                     dE             d eps       ncg     rms          rms(c)
DAV:   1    -0.129299014300E+03   -0.58322E-03   -0.11667E-02   336   0.551E-01    0.190E-02
DAV:   2    -0.129299033856E+03   -0.19556E-04   -0.24518E-04   315   0.704E-02    0.124E-02
DAV:   3    -0.129299034147E+03   -0.29137E-06   -0.91299E-06   202   0.156E-02    0.752E-03
DAV:   4    -0.129299036028E+03   -0.18807E-05   -0.48189E-06   240   0.124E-02    0.140E-03
DAV:   5    -0.129299036484E+03   -0.45632E-06   -0.14478E-06   185   0.578E-03    0.106E-03
DAV:   6    -0.129299036943E+03   -0.45860E-06   -0.33183E-07   209   0.255E-03
  28 F= -.12929904E+03 E0= -.12929904E+03  d E =-.605318E-03
damped:  g(F)=  0.000E+00 g(S)=  0.000E+00 dE (1.order)= 0.000E+00
 bond charge predicted
       N       E                     dE             d eps       ncg     rms          rms(c)
DAV:   1    -0.129299898219E+03   -0.86174E-03   -0.17303E-02   336   0.673E-01    0.229E-02
DAV:   2    -0.129299927351E+03   -0.29132E-04   -0.36932E-04   330   0.862E-02    0.152E-02
DAV:   3    -0.129299927389E+03   -0.37607E-07   -0.12564E-05   264   0.186E-02    0.931E-03
DAV:   4    -0.129299929931E+03   -0.25421E-05   -0.73738E-06   201   0.151E-02    0.189E-03
DAV:   5    -0.129299930376E+03   -0.44493E-06   -0.19094E-06   272   0.705E-03    0.111E-03
DAV:   6    -0.129299930605E+03   -0.22904E-06   -0.32393E-07   240   0.286E-03
  29 F= -.12929993E+03 E0= -.12929993E+03  d E =-.893662E-03
damped:  g(F)=  0.000E+00 g(S)=  0.000E+00 dE (1.order)= 0.000E+00
 bond charge predicted
       N       E                     dE             d eps       ncg     rms          rms(c)
DAV:   1    -0.129301020436E+03   -0.10901E-02   -0.28249E-02   334   0.868E-01    0.310E-02
DAV:   2    -0.129301073566E+03   -0.53131E-04   -0.69998E-04   395   0.118E-01    0.221E-02
DAV:   3    -0.129301069551E+03    0.40156E-05   -0.10207E-05   272   0.194E-02    0.140E-02
DAV:   4    -0.129301070785E+03   -0.12345E-05   -0.16027E-05   264   0.216E-02    0.319E-03
DAV:   5    -0.129301070953E+03   -0.16747E-06   -0.34673E-06   272   0.102E-02    0.180E-03
DAV:   6    -0.129301071193E+03   -0.24057E-06   -0.50005E-07   208   0.380E-03
  30 F= -.12930107E+03 E0= -.12930107E+03  d E =-.114059E-02
damped:  g(F)=  0.000E+00 g(S)=  0.000E+00 dE (1.order)= 0.000E+00
 bond charge predicted
       N       E                     dE             d eps       ncg     rms          rms(c)
DAV:   1    -0.129302231515E+03   -0.11606E-02   -0.45132E-02   335   0.110E+00    0.402E-02
DAV:   2    -0.129302318154E+03   -0.86639E-04   -0.11613E-03   366   0.153E-01    0.290E-02
DAV:   3    -0.129302311763E+03    0.63909E-05   -0.23381E-05   272   0.272E-02    0.186E-02
DAV:   4    -0.129302312485E+03   -0.72122E-06   -0.34224E-05   318   0.307E-02    0.472E-03
DAV:   5    -0.129302312747E+03   -0.26189E-06   -0.64443E-06   264   0.138E-02    0.272E-03
DAV:   6    -0.129302313387E+03   -0.64085E-06   -0.11084E-06   208   0.559E-03
  31 F= -.12930231E+03 E0= -.12930231E+03  d E =-.124219E-02
damped:  g(F)=  0.000E+00 g(S)=  0.000E+00 dE (1.order)= 0.000E+00
 bond charge predicted
       N       E                     dE             d eps       ncg     rms          rms(c)
DAV:   1    -0.129303487946E+03   -0.11752E-02   -0.65409E-02   332   0.132E+00    0.462E-02
DAV:   2    -0.129303607106E+03   -0.11916E-03   -0.15653E-03   332   0.177E-01    0.331E-02
DAV:   3    -0.129303600381E+03    0.67245E-05   -0.29471E-05   262   0.305E-02    0.210E-02
DAV:   4    -0.129303604916E+03   -0.45349E-05   -0.42258E-05   303   0.343E-02    0.514E-03
DAV:   5    -0.129303605721E+03   -0.80492E-06   -0.80118E-06   240   0.153E-02    0.315E-03
DAV:   6    -0.129303606965E+03   -0.12434E-05   -0.13883E-06   220   0.624E-03
  32 F= -.12930361E+03 E0= -.12930361E+03  d E =-.129358E-02
damped:  g(F)=  0.000E+00 g(S)=  0.000E+00 dE (1.order)= 0.000E+00
 bond charge predicted
       N       E                     dE             d eps       ncg     rms          rms(c)
DAV:   1    -0.129305042402E+03   -0.14367E-02   -0.89486E-02   332   0.153E+00    0.512E-02
DAV:   2    -0.129305193289E+03   -0.15089E-03   -0.19035E-03   355   0.193E-01    0.352E-02
DAV:   3    -0.129305189566E+03    0.37223E-05   -0.31290E-05   245   0.314E-02    0.218E-02
DAV:   4    -0.129305201982E+03   -0.12416E-04   -0.42524E-05   282   0.344E-02    0.473E-03
DAV:   5    -0.129305203231E+03   -0.12489E-05   -0.80016E-06   245   0.149E-02    0.339E-03
DAV:   6    -0.129305204660E+03   -0.14296E-05   -0.12733E-06   217   0.605E-03
  33 F= -.12930520E+03 E0= -.12930520E+03  d E =-.159770E-02
damped:  g(F)=  0.000E+00 g(S)=  0.000E+00 dE (1.order)= 0.000E+00
 bond charge predicted
       N       E                     dE             d eps       ncg     rms          rms(c)
DAV:   1    -0.129307117566E+03   -0.19143E-02   -0.13072E-01   329   0.184E+00    0.621E-02
DAV:   2    -0.129307342773E+03   -0.22521E-03   -0.28014E-03   364   0.234E-01    0.423E-02
DAV:   3    -0.129307338465E+03    0.43084E-05   -0.54776E-05   360   0.368E-02    0.259E-02
DAV:   4    -0.129307353811E+03   -0.15346E-04   -0.42710E-05   264   0.383E-02    0.457E-03
DAV:   5    -0.129307355468E+03   -0.16567E-05   -0.10416E-05   272   0.167E-02    0.342E-03
DAV:   6    -0.129307356480E+03   -0.10123E-05   -0.12642E-06   238   0.593E-03
  34 F= -.12930736E+03 E0= -.12930736E+03  d E =-.215182E-02
damped:  g(F)=  0.000E+00 g(S)=  0.000E+00 dE (1.order)= 0.000E+00
 bond charge predicted
       N       E                     dE             d eps       ncg     rms          rms(c)
DAV:   1    -0.129309488824E+03   -0.21334E-02   -0.20126E-01   330   0.229E+00    0.794E-02
DAV:   2    -0.129309856057E+03   -0.36723E-03   -0.46196E-03   355   0.302E-01    0.549E-02
DAV:   3    -0.129309842754E+03    0.13303E-04   -0.93401E-05   360   0.481E-02    0.342E-02
DAV:   4    -0.129309856501E+03   -0.13747E-04   -0.78066E-05   304   0.511E-02    0.620E-03
DAV:   5    -0.129309858605E+03   -0.21040E-05   -0.18400E-05   272   0.222E-02    0.452E-03
DAV:   6    -0.129309859744E+03   -0.11392E-05   -0.23198E-06   240   0.778E-03
  35 F= -.12930986E+03 E0= -.12930986E+03  d E =-.250326E-02
damped:  g(F)=  0.000E+00 g(S)=  0.000E+00 dE (1.order)= 0.000E+00
 bond charge predicted
       N       E                     dE             d eps       ncg     rms          rms(c)
DAV:   1    -0.129312053033E+03   -0.21944E-02   -0.29054E-01   330   0.274E+00    0.936E-02
DAV:   2    -0.129312562333E+03   -0.50930E-03   -0.63895E-03   365   0.354E-01    0.640E-02
DAV:   3    -0.129312547892E+03    0.14441E-04   -0.12648E-04   352   0.555E-02    0.394E-02
DAV:   4    -0.129312574533E+03   -0.26641E-04   -0.10097E-04   297   0.586E-02    0.717E-03
DAV:   5    -0.129312577910E+03   -0.33770E-05   -0.24526E-05   272   0.257E-02    0.530E-03
DAV:   6    -0.129312580148E+03   -0.22377E-05   -0.31958E-06   224   0.926E-03
  36 F= -.12931258E+03 E0= -.12931258E+03  d E =-.272040E-02
damped:  g(F)=  0.000E+00 g(S)=  0.000E+00 dE (1.order)= 0.000E+00
 bond charge predicted
       N       E                     dE             d eps       ncg     rms          rms(c)
DAV:   1    -0.129315312343E+03   -0.27344E-02   -0.40061E-01   330   0.321E+00    0.108E-01
DAV:   2    -0.129315987411E+03   -0.67507E-03   -0.84495E-03   362   0.405E-01    0.735E-02
DAV:   3    -0.129315976549E+03    0.10861E-04   -0.16705E-04   367   0.644E-02    0.447E-02
DAV:   4    -0.129316027199E+03   -0.50649E-04   -0.12596E-04   320   0.657E-02    0.846E-03
DAV:   5    -0.129316031383E+03   -0.41840E-05   -0.30445E-05   272   0.286E-02    0.604E-03
DAV:   6    -0.129316033858E+03   -0.24756E-05   -0.47145E-06   256   0.107E-02
  37 F= -.12931603E+03 E0= -.12931603E+03  d E =-.345371E-02
damped:  g(F)=  0.000E+00 g(S)=  0.000E+00 dE (1.order)= 0.000E+00
 bond charge predicted
       N       E                     dE             d eps       ncg     rms          rms(c)
DAV:   1    -0.129318942099E+03   -0.29107E-02   -0.58382E-01   328   0.389E+00    0.133E-01
DAV:   2    -0.129319949871E+03   -0.10078E-02   -0.12793E-02   340   0.501E-01    0.921E-02
DAV:   3    -0.129319923879E+03    0.25992E-04   -0.26568E-04   368   0.822E-02    0.571E-02
DAV:   4    -0.129319990460E+03   -0.66581E-04   -0.20518E-04   307   0.832E-02    0.112E-02
DAV:   5    -0.129319996144E+03   -0.56841E-05   -0.48925E-05   272   0.366E-02    0.745E-03
DAV:   6    -0.129319999545E+03   -0.34010E-05   -0.77669E-06   280   0.135E-02
  38 F= -.12932000E+03 E0= -.12932000E+03  d E =-.396569E-02
damped:  g(F)=  0.000E+00 g(S)=  0.000E+00 dE (1.order)= 0.000E+00
 bond charge predicted
       N       E                     dE             d eps       ncg     rms          rms(c)
DAV:   1    -0.129323002077E+03   -0.30059E-02   -0.81091E-01   328   0.457E+00    0.156E-01
DAV:   2    -0.129324356032E+03   -0.13540E-02   -0.17044E-02   366   0.575E-01    0.105E-01
DAV:   3    -0.129324334023E+03    0.22009E-04   -0.36209E-04   430   0.919E-02    0.639E-02
DAV:   4    -0.129324437461E+03   -0.10344E-03   -0.21034E-04   325   0.858E-02    0.121E-02
DAV:   5    -0.129324447159E+03   -0.96978E-05   -0.55093E-05   272   0.386E-02    0.853E-03
DAV:   6    -0.129324451719E+03   -0.45602E-05   -0.79233E-06   292   0.137E-02
  39 F= -.12932445E+03 E0= -.12932445E+03  d E =-.445217E-02
damped:  g(F)=  0.000E+00 g(S)=  0.000E+00 dE (1.order)= 0.000E+00
 bond charge predicted
       N       E                     dE             d eps       ncg     rms          rms(c)
DAV:   1    -0.129327576229E+03   -0.31291E-02   -0.11418E+00   328   0.543E+00    0.188E-01
DAV:   2    -0.129329540824E+03   -0.19646E-02   -0.24625E-02   364   0.692E-01    0.127E-01
DAV:   3    -0.129329498481E+03    0.42343E-04   -0.52426E-04   414   0.109E-01    0.775E-02
DAV:   4    -0.129329631501E+03   -0.13302E-03   -0.33751E-04   401   0.105E-01    0.148E-02
DAV:   5    -0.129329641900E+03   -0.10399E-04   -0.71599E-05   272   0.438E-02    0.105E-02
DAV:   6    -0.129329647094E+03   -0.51938E-05   -0.10382E-05   316   0.160E-02
  40 F= -.12932965E+03 E0= -.12932965E+03  d E =-.519538E-02
damped:  g(F)=  0.000E+00 g(S)=  0.000E+00 dE (1.order)= 0.000E+00
 bond charge predicted
       N       E                     dE             d eps       ncg     rms          rms(c)
DAV:   1    -0.129332541994E+03   -0.29001E-02   -0.15433E+00   328   0.630E+00    0.221E-01
DAV:   2    -0.129335108309E+03   -0.25663E-02   -0.32350E-02   364   0.791E-01    0.147E-01
DAV:   3    -0.129335068233E+03    0.40075E-04   -0.70968E-04   461   0.127E-01    0.887E-02
DAV:   4    -0.129335267516E+03   -0.19928E-03   -0.40094E-04   429   0.114E-01    0.176E-02
DAV:   5    -0.129335282972E+03   -0.15456E-04   -0.89665E-05   304   0.487E-02    0.122E-02
DAV:   6    -0.129335289845E+03   -0.68726E-05   -0.12129E-05   294   0.163E-02
  41 F= -.12933529E+03 E0= -.12933529E+03  d E =-.564275E-02
damped:  g(F)=  0.000E+00 g(S)=  0.000E+00 dE (1.order)= 0.000E+00
 bond charge predicted
       N       E                     dE             d eps       ncg     rms          rms(c)
DAV:   1    -0.129337592271E+03   -0.23093E-02   -0.21108E+00   328   0.738E+00    0.266E-01
DAV:   2    -0.129341176831E+03   -0.35846E-02   -0.45292E-02   364   0.940E-01    0.179E-01
DAV:   3    -0.129341093932E+03    0.82899E-04   -0.10461E-03   462   0.157E-01    0.110E-01
DAV:   4    -0.129341348049E+03   -0.25412E-03   -0.58090E-04   428   0.135E-01    0.229E-02
DAV:   5    -0.129341373696E+03   -0.25648E-04   -0.13265E-04   336   0.585E-02    0.146E-02
DAV:   6    -0.129341381874E+03   -0.81775E-05   -0.12384E-05   272   0.177E-02
  42 F= -.12934138E+03 E0= -.12934138E+03  d E =-.609203E-02
damped:  g(F)=  0.000E+00 g(S)=  0.000E+00 dE (1.order)= 0.000E+00
 bond charge predicted
       N       E                     dE             d eps       ncg     rms          rms(c)
DAV:   1    -0.129343021917E+03   -0.16482E-02   -0.28381E+00   328   0.857E+00    0.309E-01
DAV:   2    -0.129347854255E+03   -0.48323E-02   -0.60527E-02   372   0.109E+00    0.207E-01
DAV:   3    -0.129347765170E+03    0.89085E-04   -0.13482E-03   462   0.175E-01    0.125E-01
DAV:   4    -0.129348103367E+03   -0.33820E-03   -0.76682E-04   428   0.157E-01    0.236E-02
DAV:   5    -0.129348130291E+03   -0.26924E-04   -0.17068E-04   336   0.663E-02    0.165E-02
DAV:   6    -0.129348139892E+03   -0.96009E-05   -0.14588E-05   316   0.193E-02
  43 F= -.12934814E+03 E0= -.12934814E+03  d E =-.675802E-02
damped:  g(F)=  0.000E+00 g(S)=  0.000E+00 dE (1.order)= 0.000E+00
 bond charge predicted
       N       E                     dE             d eps       ncg     rms          rms(c)
DAV:   1    -0.129348474178E+03   -0.34389E-03   -0.37856E+00   328   0.989E+00    0.364E-01
DAV:   2    -0.129354859478E+03   -0.63853E-02   -0.80197E-02   364   0.125E+00    0.241E-01
DAV:   3    -0.129354748077E+03    0.11140E-03   -0.17821E-03   461   0.204E-01    0.146E-01
DAV:   4    -0.129355217270E+03   -0.46919E-03   -0.97669E-04   430   0.176E-01    0.282E-02
DAV:   5    -0.129355259408E+03   -0.42138E-04   -0.21347E-04   336   0.744E-02    0.186E-02
DAV:   6    -0.129355272130E+03   -0.12722E-04   -0.19339E-05   334   0.222E-02
  44 F= -.12935527E+03 E0= -.12935527E+03  d E =-.713224E-02
damped:  g(F)=  0.000E+00 g(S)=  0.000E+00 dE (1.order)= 0.000E+00
 bond charge predicted
       N       E                     dE             d eps       ncg     rms          rms(c)
DAV:   1    -0.129353140040E+03    0.21194E-02   -0.52653E+00   328   0.117E+01    0.427E-01
DAV:   2    -0.129362272768E+03   -0.91327E-02   -0.11405E-01   367   0.149E+00    0.282E-01
DAV:   3    -0.129362104857E+03    0.16791E-03   -0.23869E-03   461   0.235E-01    0.171E-01
DAV:   4    -0.129362780677E+03   -0.67582E-03   -0.13536E-03   428   0.210E-01    0.313E-02
DAV:   5    -0.129362833879E+03   -0.53202E-04   -0.30690E-04   400   0.873E-02    0.221E-02
DAV:   6    -0.129362850558E+03   -0.16680E-04   -0.18302E-05   304   0.230E-02
  45 F= -.12936285E+03 E0= -.12936285E+03  d E =-.757843E-02
damped:  g(F)=  0.000E+00 g(S)=  0.000E+00 dE (1.order)= 0.000E+00
 bond charge predicted
       N       E                     dE             d eps       ncg     rms          rms(c)
DAV:   1    -0.129355438102E+03    0.73958E-02   -0.71741E+00   328   0.137E+01    0.505E-01
DAV:   2    -0.129368712974E+03   -0.13275E-01   -0.16451E-01   364   0.179E+00    0.336E-01
DAV:   3    -0.129368345604E+03    0.36737E-03   -0.34449E-03   464   0.291E-01    0.210E-01
DAV:   4    -0.129369174207E+03   -0.82860E-03   -0.18537E-03   428   0.247E-01    0.395E-02
DAV:   5    -0.129369286718E+03   -0.11251E-03   -0.44811E-04   464   0.103E-01    0.264E-02
DAV:   6    -0.129369306626E+03   -0.19908E-04   -0.19635E-05   288   0.247E-02
  46 F= -.12936931E+03 E0= -.12936931E+03  d E =-.645607E-02
damped:  g(F)=  0.000E+00 g(S)=  0.000E+00 dE (1.order)= 0.000E+00
 bond charge predicted
       N       E                     dE             d eps       ncg     rms          rms(c)
DAV:   1    -0.129339838271E+03    0.29448E-01   -0.10470E+01   328   0.168E+01    0.657E-01
DAV:   2    -0.129363033589E+03   -0.23195E-01   -0.29112E-01   339   0.244E+00    0.460E-01
DAV:   3    -0.129361593852E+03    0.14397E-02   -0.68677E-03   464   0.419E-01    0.287E-01
DAV:   4    -0.129361740614E+03   -0.14676E-03   -0.46239E-03   425   0.384E-01    0.552E-02
DAV:   5    -0.129361873174E+03   -0.13256E-03   -0.10151E-03   464   0.156E-01    0.403E-02
DAV:   6    -0.129361904754E+03   -0.31580E-04   -0.47706E-05   352   0.372E-02
  47 F= -.12936190E+03 E0= -.12936190E+03  d E =0.740187E-02
damped:  g(F)=  0.000E+00 g(S)=  0.000E+00 dE (1.order)= 0.000E+00
 bond charge predicted
       N       E                     dE             d eps       ncg     rms          rms(c)
DAV:   1    -0.129374640324E+03   -0.12767E-01   -0.13801E+00   332   0.622E+00    0.404E-01
DAV:   2    -0.129379356502E+03   -0.47162E-02   -0.65759E-02   427   0.117E+00    0.237E-01
DAV:   3    -0.129378680057E+03    0.67644E-03   -0.19331E-03   456   0.246E-01    0.136E-01
DAV:   4    -0.129378361518E+03    0.31854E-03   -0.11683E-03   400   0.181E-01    0.331E-02
DAV:   5    -0.129378346532E+03    0.14985E-04   -0.22564E-04   432   0.754E-02    0.176E-02
DAV:   6    -0.129378352383E+03   -0.58509E-05   -0.19133E-05   366   0.236E-02
  48 F= -.12937835E+03 E0= -.12937835E+03  d E =-.164476E-01
damped:  g(F)=  0.000E+00 g(S)=  0.000E+00 dE (1.order)= 0.000E+00
 bond charge predicted
       N       E                     dE             d eps       ncg     rms          rms(c)
DAV:   1    -0.129378579770E+03   -0.23324E-03   -0.19767E-03   431   0.223E-01    0.158E-02
DAV:   2    -0.129378602750E+03   -0.22980E-04   -0.67542E-05   400   0.375E-02    0.865E-03
DAV:   3    -0.129378619072E+03   -0.16322E-04   -0.42061E-06   344   0.110E-02    0.461E-03
DAV:   4    -0.129378642126E+03   -0.23054E-04   -0.22292E-06   359   0.708E-03    0.122E-03
DAV:   5    -0.129378655651E+03   -0.13525E-04   -0.76042E-07   368   0.356E-03    0.817E-04
DAV:   6    -0.129378671416E+03   -0.15765E-04   -0.72023E-07   291   0.300E-03
  49 F= -.12937867E+03 E0= -.12937867E+03  d E =-.319033E-03
damped:  g(F)=  0.000E+00 g(S)=  0.000E+00 dE (1.order)= 0.000E+00
 bond charge predicted
       N       E                     dE             d eps       ncg     rms          rms(c)
DAV:   1    -0.129378937942E+03   -0.28229E-03   -0.61945E-03   364   0.402E-01    0.253E-02
DAV:   2    -0.129378961332E+03   -0.23390E-04   -0.26653E-04   432   0.722E-02    0.148E-02
DAV:   3    -0.129378961667E+03   -0.33525E-06   -0.76476E-06   202   0.158E-02    0.840E-03
DAV:   4    -0.129378965110E+03   -0.34424E-05   -0.73329E-06   329   0.133E-02    0.197E-03
DAV:   5    -0.129378966845E+03   -0.17357E-05   -0.15763E-06   272   0.707E-03    0.109E-03
DAV:   6    -0.129378967707E+03   -0.86109E-06   -0.27892E-07   270   0.282E-03
  50 F= -.12937897E+03 E0= -.12937897E+03  d E =-.296291E-03
damped:  g(F)=  0.000E+00 g(S)=  0.000E+00 dE (1.order)= 0.000E+00
 bond charge predicted
       N       E                     dE             d eps       ncg     rms          rms(c)
DAV:   1    -0.129379090996E+03   -0.12415E-03   -0.84738E-03   333   0.474E-01    0.283E-02
DAV:   2    -0.129379115753E+03   -0.24757E-04   -0.35538E-04   377   0.837E-02    0.170E-02
DAV:   3    -0.129379111566E+03    0.41873E-05   -0.99262E-06   247   0.181E-02    0.981E-03
DAV:   4    -0.129379109330E+03    0.22359E-05   -0.96773E-06   305   0.155E-02    0.235E-03
DAV:   5    -0.129379109308E+03    0.21640E-07   -0.20728E-06   272   0.832E-03    0.130E-03
DAV:   6    -0.129379109591E+03   -0.28329E-06   -0.38047E-07   272   0.334E-03
  51 F= -.12937911E+03 E0= -.12937911E+03  d E =-.141885E-03
damped:  g(F)=  0.000E+00 g(S)=  0.000E+00 dE (1.order)= 0.000E+00
 bond charge predicted
       N       E                     dE             d eps       ncg     rms          rms(c)
DAV:   1    -0.129379162923E+03   -0.53615E-04   -0.63250E-03   344   0.414E-01    0.208E-02
DAV:   2    -0.129379177285E+03   -0.14362E-04   -0.21438E-04   296   0.678E-02    0.129E-02
DAV:   3    -0.129379175974E+03    0.13104E-05   -0.14176E-05   272   0.179E-02    0.771E-03
DAV:   4    -0.129379175498E+03    0.47650E-06   -0.75375E-06   224   0.135E-02    0.189E-03
DAV:   5    -0.129379175813E+03   -0.31540E-06   -0.17601E-06   272   0.680E-03    0.103E-03
DAV:   6    -0.129379176338E+03   -0.52476E-06   -0.52384E-07   206   0.337E-03
  52 F= -.12937918E+03 E0= -.12937918E+03  d E =-.667464E-04
damped:  g(F)=  0.000E+00 g(S)=  0.000E+00 dE (1.order)= 0.000E+00
 bond charge predicted
       N       E                     dE             d eps       ncg     rms          rms(c)
DAV:   1    -0.129379206650E+03   -0.30837E-04   -0.55051E-05   287   0.389E-02    0.212E-03
DAV:   2    -0.129379207583E+03   -0.93258E-06   -0.35754E-06   238   0.102E-02    0.142E-03
DAV:   3    -0.129379208172E+03   -0.58948E-06   -0.33814E-07   204   0.306E-03    0.959E-04
DAV:   4    -0.129379209301E+03   -0.11291E-05   -0.11257E-07   268   0.185E-03    0.285E-04
DAV:   5    -0.129379209759E+03   -0.45800E-06    0.28373E-08   248   0.803E-04    0.160E-04
DAV:   6    -0.129379210258E+03   -0.49861E-06    0.50065E-08   201   0.455E-04
  53 F= -.12937921E+03 E0= -.12937921E+03  d E =-.339201E-04
damped:  g(F)=  0.000E+00 g(S)=  0.000E+00 dE (1.order)= 0.000E+00
 bond charge predicted
       N       E                     dE             d eps       ncg     rms          rms(c)
DAV:   1    -0.129379263630E+03   -0.53870E-04   -0.20954E-04   302   0.750E-02    0.398E-03
DAV:   2    -0.129379264689E+03   -0.10594E-05   -0.10528E-05   242   0.165E-02    0.257E-03
DAV:   3    -0.129379264967E+03   -0.27825E-06   -0.10343E-06   256   0.533E-03    0.164E-03
DAV:   4    -0.129379265385E+03   -0.41773E-06   -0.25123E-07   208   0.299E-03    0.451E-04
DAV:   5    -0.129379265572E+03   -0.18733E-06   -0.30703E-09   264   0.147E-03    0.245E-04
DAV:   6    -0.129379265728E+03   -0.15529E-06    0.59023E-08   220   0.781E-04
  54 F= -.12937927E+03 E0= -.12937927E+03  d E =-.554696E-04
damped:  g(F)=  0.000E+00 g(S)=  0.000E+00 dE (1.order)= 0.000E+00
 bond charge predicted
       N       E                     dE             d eps       ncg     rms          rms(c)
DAV:   1    -0.129379332503E+03   -0.66931E-04   -0.42712E-04   372   0.107E-01    0.648E-03
DAV:   2    -0.129379333452E+03   -0.94873E-06   -0.16416E-05   221   0.191E-02    0.376E-03
DAV:   3    -0.129379333331E+03    0.12104E-06   -0.17503E-06   272   0.653E-03    0.201E-03
DAV:   4    -0.129379333174E+03    0.15730E-06   -0.45499E-07   204   0.350E-03    0.612E-04
DAV:   5    -0.129379333150E+03    0.23716E-07   -0.84939E-08   272   0.194E-03    0.279E-04
DAV:   6    -0.129379333193E+03   -0.43462E-07    0.17247E-08   206   0.963E-04
  55 F= -.12937933E+03 E0= -.12937933E+03  d E =-.674660E-04
damped:  g(F)=  0.000E+00 g(S)=  0.000E+00 dE (1.order)= 0.000E+00
 bond charge predicted
       N       E                     dE             d eps       ncg     rms          rms(c)
DAV:   1    -0.129379402581E+03   -0.69431E-04   -0.64664E-04   352   0.131E-01    0.783E-03
DAV:   2    -0.129379403872E+03   -0.12907E-05   -0.24654E-05   205   0.234E-02    0.460E-03
DAV:   3    -0.129379403597E+03    0.27515E-06   -0.26701E-06   264   0.797E-03    0.249E-03
DAV:   4    -0.129379403298E+03    0.29903E-06   -0.73111E-07   202   0.428E-03    0.756E-04
DAV:   5    -0.129379403261E+03    0.36333E-07   -0.17430E-07   232   0.238E-03    0.345E-04
DAV:   6    -0.129379403339E+03   -0.77433E-07   -0.19078E-08   178   0.118E-03
  56 F= -.12937940E+03 E0= -.12937940E+03  d E =-.701451E-04
damped:  g(F)=  0.000E+00 g(S)=  0.000E+00 dE (1.order)= 0.000E+00
 bond charge predicted
       N       E                     dE             d eps       ncg     rms          rms(c)
DAV:   1    -0.129379466940E+03   -0.63678E-04   -0.80852E-04   340   0.147E-01    0.851E-03
DAV:   2    -0.129379468642E+03   -0.17024E-05   -0.30151E-05   210   0.260E-02    0.506E-03
DAV:   3    -0.129379468370E+03    0.27183E-06   -0.32572E-06   208   0.879E-03    0.276E-03
DAV:   4    -0.129379468090E+03    0.27995E-06   -0.90553E-07   167   0.473E-03    0.834E-04
DAV:   5    -0.129379468100E+03   -0.98244E-08   -0.22887E-07   189   0.262E-03    0.380E-04
DAV:   6    -0.129379468224E+03   -0.12354E-06   -0.40469E-08   178   0.131E-03
  57 F= -.12937947E+03 E0= -.12937947E+03  d E =-.648850E-04
damped:  g(F)=  0.000E+00 g(S)=  0.000E+00 dE (1.order)= 0.000E+00
 bond charge predicted
       N       E                     dE             d eps       ncg     rms          rms(c)
DAV:   1    -0.129379523625E+03   -0.55524E-04   -0.86049E-04   332   0.153E-01    0.835E-03
DAV:   2    -0.129379525455E+03   -0.18304E-05   -0.30573E-05   203   0.262E-02    0.506E-03
DAV:   3    -0.129379525252E+03    0.20326E-06   -0.32584E-06   164   0.881E-03    0.281E-03
DAV:   4    -0.129379525064E+03    0.18742E-06   -0.90823E-07   164   0.476E-03    0.830E-04
DAV:   5    -0.129379525128E+03   -0.63607E-07   -0.23211E-07   164   0.261E-03    0.378E-04
DAV:   6    -0.129379525279E+03   -0.15131E-06   -0.43080E-08   165   0.131E-03
  58 F= -.12937953E+03 E0= -.12937953E+03  d E =-.570556E-04
damped:  g(F)=  0.000E+00 g(S)=  0.000E+00 dE (1.order)= 0.000E+00
 bond charge predicted
       N       E                     dE             d eps       ncg     rms          rms(c)
DAV:   1    -0.129379581080E+03   -0.55952E-04   -0.97959E-04   333   0.164E-01    0.817E-03
DAV:   2    -0.129379583083E+03   -0.20035E-05   -0.31444E-05   203   0.268E-02    0.508E-03
DAV:   3    -0.129379582968E+03    0.11485E-06   -0.32586E-06   164   0.888E-03    0.288E-03
DAV:   4    -0.129379582890E+03    0.77783E-07   -0.90897E-07   164   0.483E-03    0.807E-04
DAV:   5    -0.129379582984E+03   -0.93931E-07   -0.23245E-07   164   0.260E-03    0.374E-04
DAV:   6    -0.129379583141E+03   -0.15723E-06   -0.43136E-08   165   0.129E-03
  59 F= -.12937958E+03 E0= -.12937958E+03  d E =-.578623E-04
damped:  g(F)=  0.000E+00 g(S)=  0.000E+00 dE (1.order)= 0.000E+00
 reached required accuracy - stopping structural energy minimisation
