unknown system                          
           1
    30.000000    0.000000    0.000000
     0.000000   30.000000    0.000000
     0.000000    0.000000   30.000000
   H    C    N    O 
  12   6   2   2
Direct configuration=     1
   0.37712637  0.54457774  0.50045498
   0.38516091  0.49609482  0.46604683
   0.38020401  0.49036978  0.52487747
   0.45090482  0.45489568  0.48381195
   0.50482713  0.46413051  0.55417807
   0.55651495  0.41361889  0.50543739
   0.51723348  0.42273520  0.46200151
   0.49983219  0.39504909  0.51120106
   0.51311285  0.55334174  0.51187301
   0.61067832  0.55181922  0.48643475
   0.57035368  0.57234269  0.44787372
   0.57984186  0.60182088  0.49823696
   0.39315901  0.51193019  0.49811705
   0.44244783  0.51770448  0.50628434
   0.51016840  0.46702416  0.51786550
   0.52152366  0.42143983  0.49837926
   0.55141907  0.49699514  0.51024863
   0.57820792  0.56839972  0.48355282
   0.46775437  0.48106721  0.49733321
   0.54462815  0.54102326  0.50475134
   0.45730384  0.55303970  0.52203087
   0.58857878  0.47882137  0.50875494
Direct configuration=     2
   0.37706323  0.54457817  0.50040434
   0.38519143  0.49608888  0.46603194
   0.38012415  0.49037864  0.52484545
   0.45083145  0.45487642  0.48379770
   0.50487635  0.46414352  0.55422651
   0.55644634  0.41359323  0.50543555
   0.51732188  0.42274823  0.46191568
   0.49975260  0.39498906  0.51126436
   0.51310605  0.55331735  0.51174646
   0.61067215  0.55185481  0.48649637
   0.57038642  0.57237579  0.44783585
   0.57984486  0.60183128  0.49836689
   0.39309026  0.51193581  0.49811413
   0.44241763  0.51770738  0.50634947
   0.51017494  0.46696625  0.51785319
   0.52146666  0.42131176  0.49832952
   0.55148860  0.49706380  0.51021931
   0.57827806  0.56849507  0.48354646
   0.46781489  0.48111660  0.49741774
   0.54468041  0.54096504  0.50471605
   0.45723814  0.55298305  0.52212604
   0.58871660  0.47892160  0.50870568
Direct configuration=     3
   0.37696832  0.54458294  0.50033036
   0.38523316  0.49607860  0.46600777
   0.38000230  0.49038647  0.52480397
   0.45078483  0.45493438  0.48382227
   0.50495576  0.46415544  0.55427526
   0.55636024  0.41354744  0.50543351
   0.51744342  0.42275884  0.46180214
   0.49963826  0.39490011  0.51134101
   0.51312500  0.55326521  0.51155879
   0.61068190  0.55190645  0.48658481
   0.57044127  0.57243067  0.44780163
   0.57984796  0.60185891  0.49855852
   0.39301904  0.51193639  0.49810430
   0.44235307  0.51766277  0.50642912
   0.51022244  0.46690224  0.51786209
   0.52138317  0.42117809  0.49825898
   0.55165264  0.49701827  0.51018400
   0.57834346  0.56859077  0.48354077
   0.46780045  0.48108019  0.49746705
   0.54471150  0.54101127  0.50464671
   0.45716717  0.55296943  0.52229042
   0.58885008  0.47908756  0.50863960
Direct configuration=     4
   0.37684475  0.54458719  0.50023210
   0.38528328  0.49606095  0.46597128
   0.37983395  0.49039011  0.52475439
   0.45075893  0.45504595  0.48387716
   0.50507010  0.46415937  0.55430997
   0.55626282  0.41347115  0.50542889
   0.51758856  0.42276119  0.46167200
   0.49950005  0.39479211  0.51140632
   0.51315522  0.55319305  0.51131564
   0.61071808  0.55197448  0.48670043
   0.57052871  0.57251812  0.44778590
   0.57985355  0.60190229  0.49880318
   0.39295423  0.51193081  0.49808664
   0.44227842  0.51760989  0.50654356
   0.51031013  0.46683055  0.51788260
   0.52128060  0.42106985  0.49818276
   0.55180641  0.49695272  0.51013485
   0.57837784  0.56868332  0.48354479
   0.46771847  0.48099315  0.49749955
   0.54474358  0.54110100  0.50454550
   0.45707449  0.55295195  0.52250244
   0.58904671  0.47926426  0.50856077
Direct configuration=     5
   0.37670398  0.54457936  0.50011088
   0.38533978  0.49603411  0.46592200
   0.37962272  0.49039065  0.52469412
   0.45070563  0.45511984  0.48391903
   0.50521891  0.46414964  0.55432472
   0.55615482  0.41335830  0.50541926
   0.51774262  0.42275135  0.46154307
   0.49935855  0.39468939  0.51143119
   0.51316654  0.55312135  0.51103203
   0.61077196  0.55206304  0.48683852
   0.57065407  0.57264747  0.44779482
   0.57986213  0.60194594  0.49907724
   0.39288914  0.51192367  0.49806602
   0.44221555  0.51758735  0.50670466
   0.51040166  0.46675522  0.51788156
   0.52117844  0.42099111  0.49812014
   0.55188641  0.49698906  0.51005612
   0.57839254  0.56879015  0.48357504
   0.46765652  0.48097323  0.49759055
   0.54480154  0.54110578  0.50442870
   0.45694863  0.55286981  0.52273049
   0.58932136  0.47940899  0.50847743
Direct configuration=     6
   0.37655744  0.54455051  0.49996834
   0.38540377  0.49599902  0.46586379
   0.37937556  0.49039223  0.52461757
   0.45061421  0.45512923  0.48393596
   0.50540312  0.46412219  0.55431675
   0.55603714  0.41320806  0.50540592
   0.51789205  0.42272599  0.46143734
   0.49923070  0.39461753  0.51139351
   0.51315696  0.55305439  0.51071833
   0.61082362  0.55218146  0.48699184
   0.57081638  0.57282511  0.44783268
   0.57986765  0.60197567  0.49936171
   0.39281642  0.51191382  0.49804779
   0.44214063  0.51756199  0.50689032
   0.51046965  0.46670529  0.51784307
   0.52109777  0.42093212  0.49807257
   0.55200197  0.49706036  0.50994102
   0.57842845  0.56891243  0.48364712
   0.46765657  0.48104109  0.49776227
   0.54484903  0.54102542  0.50430134
   0.45681717  0.55275841  0.52298524
   0.58954303  0.47955423  0.50839918
Direct configuration=     7
   0.37639917  0.54449438  0.49978914
   0.38548618  0.49595431  0.46579780
   0.37906833  0.49039901  0.52451003
   0.45053294  0.45515154  0.48397182
   0.50565098  0.46407176  0.55427705
   0.55590640  0.41300116  0.50539483
   0.51803945  0.42267674  0.46136742
   0.49911290  0.39459171  0.51126880
   0.51313865  0.55297181  0.51034722
   0.61087006  0.55235169  0.48717286
   0.57103690  0.57308151  0.44791897
   0.57986102  0.60199175  0.49968042
   0.39272321  0.51188492  0.49802708
   0.44201486  0.51749835  0.50710473
   0.51053222  0.46671441  0.51777462
   0.52104223  0.42088725  0.49801973
   0.55221672  0.49704238  0.50978753
   0.57851267  0.56904062  0.48377657
   0.46766043  0.48107808  0.49796545
   0.54484251  0.54096260  0.50412911
   0.45669773  0.55267973  0.52332649
   0.58966141  0.47972316  0.50832078
Direct configuration=     8
   0.37623763  0.54441393  0.49957139
   0.38559277  0.49589983  0.46572888
   0.37869395  0.49040938  0.52436939
   0.45052683  0.45525907  0.48406964
   0.50597587  0.46400383  0.55419738
   0.55578186  0.41272942  0.50540115
   0.51817192  0.42259791  0.46134024
   0.49900029  0.39462418  0.51104608
   0.51309709  0.55286462  0.50992835
   0.61093714  0.55256707  0.48738746
   0.57133192  0.57343526  0.44807947
   0.57983545  0.60200624  0.50004035
   0.39260667  0.51181977  0.49799507
   0.44188454  0.51745660  0.50738278
   0.51062674  0.46677084  0.51769769
   0.52101609  0.42087461  0.49794769
   0.55230049  0.49699067  0.50960864
   0.57860287  0.56916068  0.48394709
   0.46757182  0.48098151  0.49812624
   0.54481802  0.54097018  0.50387565
   0.45656861  0.55260539  0.52374841
   0.58983813  0.47981087  0.50823276
Direct configuration=     9
   0.37608009  0.54431375  0.49930980
   0.38573342  0.49582598  0.46564637
   0.37823583  0.49041161  0.52420273
   0.45053634  0.45532739  0.48416985
   0.50639010  0.46393450  0.55408634
   0.55568459  0.41238499  0.50544677
   0.51827655  0.42248944  0.46132250
   0.49886550  0.39472057  0.51073233
   0.51300062  0.55275072  0.50947117
   0.61106773  0.55280522  0.48765034
   0.57172386  0.57391520  0.44832266
   0.57978269  0.60203372  0.50045455
   0.39248806  0.51174171  0.49795698
   0.44179823  0.51742398  0.50772916
   0.51074231  0.46678955  0.51759130
   0.52104528  0.42090914  0.49787515
   0.55224058  0.49701190  0.50937608
   0.57865870  0.56930598  0.48413080
   0.46744265  0.48096842  0.49834225
   0.54482208  0.54094018  0.50352549
   0.45640409  0.55245361  0.52423885
   0.59000930  0.47979795  0.50813224
Direct configuration=    10
   0.37593320  0.54421512  0.49900834
   0.38591788  0.49572819  0.46554281
   0.37770189  0.49040185  0.52401758
   0.45050541  0.45528772  0.48422711
   0.50688289  0.46388523  0.55397445
   0.55562355  0.41198863  0.50555200
   0.51835898  0.42236332  0.46126070
   0.49867468  0.39487353  0.51037932
   0.51290947  0.55263195  0.50897958
   0.61123361  0.55306323  0.48795861
   0.57219740  0.57452923  0.44857544
   0.57968753  0.60207949  0.50093144
   0.39240994  0.51167714  0.49793449
   0.44163099  0.51728221  0.50807110
   0.51082935  0.46677403  0.51744780
   0.52112396  0.42093655  0.49780915
   0.55244770  0.49694954  0.50905836
   0.57877570  0.56949113  0.48433957
   0.46741329  0.48108203  0.49867014
   0.54471456  0.54087224  0.50309476
   0.45626543  0.55231161  0.52485395
   0.58980464  0.47983571  0.50801782
Direct configuration=    11
   0.37582047  0.54414448  0.49867541
   0.38616278  0.49562153  0.46544902
   0.37712072  0.49039940  0.52379899
   0.45057748  0.45537083  0.48435284
   0.50744205  0.46388286  0.55388110
   0.55558625  0.41156708  0.50573576
   0.51844642  0.42222744  0.46114111
   0.49840229  0.39506122  0.51005238
   0.51279900  0.55251005  0.50848035
   0.61140777  0.55333892  0.48831307
   0.57275083  0.57528182  0.44877396
   0.57954665  0.60214972  0.50148652
   0.39232658  0.51157849  0.49790584
   0.44149061  0.51733411  0.50856097
   0.51095769  0.46679228  0.51734148
   0.52117581  0.42088212  0.49769958
   0.55207053  0.49713563  0.50869751
   0.57892618  0.56970801  0.48458547
   0.46734742  0.48086848  0.49888293
   0.54464359  0.54077849  0.50252059
   0.45605289  0.55201571  0.52552297
   0.59000238  0.47961548  0.50783691
Direct configuration=    12
   0.37582982  0.54414821  0.49867054
   0.38617891  0.49562174  0.46545260
   0.37711870  0.49040384  0.52379296
   0.45056456  0.45534598  0.48433689
   0.50745091  0.46389608  0.55389266
   0.55557450  0.41156819  0.50574984
   0.51845311  0.42222398  0.46113551
   0.49837827  0.39506080  0.51007497
   0.51281057  0.55251499  0.50847696
   0.61140450  0.55333854  0.48832003
   0.57276547  0.57530118  0.44877043
   0.57953516  0.60215008  0.50150187
   0.39232123  0.51158701  0.49790870
   0.44148763  0.51723027  0.50853381
   0.51095046  0.46679182  0.51734067
   0.52118297  0.42086613  0.49769613
   0.55223692  0.49700611  0.50868555
   0.57893110  0.56971522  0.48457080
   0.46734469  0.48091783  0.49890609
   0.54461933  0.54083094  0.50248785
   0.45607421  0.55205654  0.52556780
   0.58984322  0.47968862  0.50782218
Direct configuration=    13
   0.37585175  0.54415895  0.49866005
   0.38621265  0.49562168  0.46546002
   0.37711235  0.49041285  0.52378018
   0.45054992  0.45531033  0.48431249
   0.50747011  0.46392545  0.55391510
   0.55555231  0.41156840  0.50578123
   0.51846835  0.42221641  0.46112271
   0.49832909  0.39506144  0.51012082
   0.51282385  0.55252870  0.50847242
   0.61139837  0.55333871  0.48833655
   0.57280084  0.57534756  0.44875901
   0.57951239  0.60215097  0.50153522
   0.39231316  0.51159769  0.49791185
   0.44149737  0.51710411  0.50851767
   0.51094209  0.46678471  0.51734093
   0.52118405  0.42083364  0.49769027
   0.55241477  0.49686301  0.50865614
   0.57893510  0.56973655  0.48454271
   0.46733966  0.48097287  0.49893710
   0.54459732  0.54088254  0.50241992
   0.45609107  0.55207708  0.52563588
   0.58965940  0.47977038  0.50778673
Direct configuration=    14
   0.37585443  0.54416085  0.49865904
   0.38621552  0.49562150  0.46546038
   0.37711103  0.49041350  0.52377920
   0.45055256  0.45531263  0.48431317
   0.50747201  0.46392860  0.55391632
   0.55555110  0.41156749  0.50578480
   0.51846994  0.42221524  0.46112167
   0.49832526  0.39506202  0.51012449
   0.51282256  0.55253055  0.50847263
   0.61139786  0.55333921  0.48833821
   0.57280525  0.57535333  0.44875649
   0.57951075  0.60215101  0.50153818
   0.39231420  0.51159662  0.49791143
   0.44150065  0.51711955  0.50852767
   0.51094327  0.46678262  0.51734162
   0.52117972  0.42083136  0.49769077
   0.55237625  0.49688933  0.50865227
   0.57893405  0.56973969  0.48454135
   0.46734017  0.48096173  0.49893414
   0.54460245  0.54087118  0.50241421
   0.45608560  0.55206150  0.52563510
   0.58969135  0.47975449  0.50778190
Direct configuration=    15
   0.37585991  0.54416477  0.49865710
   0.38622136  0.49562132  0.46546110
   0.37710845  0.49041498  0.52377728
   0.45055748  0.45531675  0.48431402
   0.50747584  0.46393538  0.55391898
   0.55554839  0.41156555  0.50579251
   0.51847293  0.42221230  0.46112015
   0.49831729  0.39506316  0.51013278
   0.51282066  0.55253416  0.50847295
   0.61139672  0.55334018  0.48834098
   0.57281380  0.57536462  0.44875103
   0.57950735  0.60215106  0.50154358
   0.39231640  0.51159489  0.49791076
   0.44150634  0.51714672  0.50854610
   0.51094531  0.46677881  0.51734300
   0.52117142  0.42082658  0.49769231
   0.55230815  0.49693600  0.50864423
   0.57893234  0.56974559  0.48453818
   0.46734124  0.48094115  0.49892883
   0.54461120  0.54085077  0.50240242
   0.45607601  0.55203290  0.52563509
   0.58974728  0.47972633  0.50777172
Direct configuration=    16
   0.37586851  0.54417077  0.49865397
   0.38623081  0.49562104  0.46546211
   0.37710440  0.49041738  0.52377432
   0.45056396  0.45532149  0.48431432
   0.50748202  0.46394610  0.55392329
   0.55554361  0.41156259  0.50580474
   0.51847756  0.42220749  0.46111812
   0.49830434  0.39506497  0.51014618
   0.51281949  0.55253942  0.50847300
   0.61139467  0.55334182  0.48834516
   0.57282706  0.57538230  0.44874259
   0.57950160  0.60215104  0.50155217
   0.39231993  0.51159306  0.49791008
   0.44151273  0.51717804  0.50857018
   0.51094765  0.46677359  0.51734490
   0.52115977  0.42081898  0.49769486
   0.55222664  0.49699178  0.50863142
   0.57893080  0.56975401  0.48453310
   0.46734268  0.48091384  0.49892249
   0.54462035  0.54082586  0.50238321
   0.45606460  0.55199574  0.52563907
   0.58981259  0.47969263  0.50775590
Direct configuration=    17
   0.37588071  0.54417885  0.49864926
   0.38624483  0.49562056  0.46546331
   0.37709863  0.49042084  0.52377010
   0.45057059  0.45532455  0.48431272
   0.50749117  0.46396127  0.55392955
   0.55553577  0.41155857  0.50582215
   0.51848410  0.42220045  0.46111577
   0.49828514  0.39506764  0.51016555
   0.51282127  0.55254614  0.50847212
   0.61139124  0.55334443  0.48835108
   0.57284581  0.57540764  0.44873102
   0.57949254  0.60215082  0.50156493
   0.39232505  0.51159221  0.49790987
   0.44151681  0.51719974  0.50859470
   0.51094932  0.46676761  0.51734703
   0.52114596  0.42080820  0.49769858
   0.55215907  0.49703694  0.50861304
   0.57893076  0.56976441  0.48452588
   0.46734407  0.48088519  0.49891762
   0.54462443  0.54080481  0.50235437
   0.45605551  0.55195824  0.52565281
   0.58986278  0.47966475  0.50773386
Direct configuration=    18
   0.37588132  0.54417917  0.49864898
   0.38624561  0.49562052  0.46546333
   0.37709834  0.49042103  0.52376990
   0.45057047  0.45532404  0.48431228
   0.50749169  0.46396200  0.55392986
   0.55553520  0.41155838  0.50582300
   0.51848441  0.42220007  0.46111577
   0.49828407  0.39506778  0.51016654
   0.51282188  0.55254635  0.50847192
   0.61139101  0.55334461  0.48835136
   0.57284673  0.57540893  0.44873054
   0.57949195  0.60215077  0.50156564
   0.39232530  0.51159246  0.49790998
   0.44151625  0.51719705  0.50859433
   0.51094913  0.46676755  0.51734703
   0.52114576  0.42080770  0.49769880
   0.55216334  0.49703370  0.50861213
   0.57893107  0.56976467  0.48452553
   0.46734402  0.48088556  0.49891810
   0.54462324  0.54080613  0.50235268
   0.45605622  0.55195887  0.52565480
   0.58985857  0.47966652  0.50773284
Direct configuration=    19
   0.37588253  0.54417979  0.49864843
   0.38624718  0.49562045  0.46546336
   0.37709775  0.49042140  0.52376948
   0.45057024  0.45532304  0.48431141
   0.50749271  0.46396345  0.55393048
   0.55553406  0.41155801  0.50582471
   0.51848502  0.42219929  0.46111577
   0.49828194  0.39506808  0.51016851
   0.51282309  0.55254678  0.50847152
   0.61139054  0.55334496  0.48835194
   0.57284857  0.57541150  0.44872959
   0.57949078  0.60215068  0.50156708
   0.39232580  0.51159295  0.49791019
   0.44151518  0.51719179  0.50859363
   0.51094877  0.46676741  0.51734702
   0.52114532  0.42080672  0.49769924
   0.55217162  0.49702739  0.50861029
   0.57893166  0.56976520  0.48452482
   0.46734391  0.48088625  0.49891904
   0.54462091  0.54080871  0.50234930
   0.45605760  0.55196005  0.52565876
   0.58985038  0.47966997  0.50773078
Direct configuration=    20
   0.37588436  0.54418073  0.49864759
   0.38624954  0.49562033  0.46546341
   0.37709686  0.49042195  0.52376885
   0.45056992  0.45532156  0.48431012
   0.50749426  0.46396564  0.55393140
   0.55553235  0.41155744  0.50582729
   0.51848596  0.42219813  0.46111576
   0.49827873  0.39506852  0.51017146
   0.51282483  0.55254745  0.50847094
   0.61138984  0.55334549  0.48835282
   0.57285137  0.57541539  0.44872816
   0.57948902  0.60215052  0.50156925
   0.39232655  0.51159366  0.49791051
   0.44151367  0.51718418  0.50859273
   0.51094824  0.46676718  0.51734701
   0.52114464  0.42080523  0.49769990
   0.55218343  0.49701836  0.50860750
   0.57893249  0.56976604  0.48452376
   0.46734373  0.48088719  0.49892043
   0.54461753  0.54081237  0.50234421
   0.45605957  0.55196157  0.52566461
   0.58983862  0.47967490  0.50772766
Direct configuration=    21
   0.37588684  0.54418199  0.49864646
   0.38625272  0.49562016  0.46546348
   0.37709565  0.49042269  0.52376799
   0.45056955  0.45531963  0.48430841
   0.50749636  0.46396859  0.55393262
   0.55553006  0.41155666  0.50583076
   0.51848722  0.42219657  0.46111575
   0.49827444  0.39506913  0.51017539
   0.51282706  0.55254839  0.50847017
   0.61138893  0.55334621  0.48835403
   0.57285519  0.57542067  0.44872624
   0.57948666  0.60215032  0.50157219
   0.39232754  0.51159456  0.49791090
   0.44151182  0.51717457  0.50859181
   0.51094757  0.46676683  0.51734699
   0.52114364  0.42080325  0.49770080
   0.55219799  0.49700717  0.50860373
   0.57893354  0.56976723  0.48452234
   0.46734349  0.48088824  0.49892223
   0.54461327  0.54081685  0.50233735
   0.45606201  0.55196313  0.52567229
   0.58982393  0.47968101  0.50772345
Direct configuration=    22
   0.37589004  0.54418362  0.49864501
   0.38625677  0.49561994  0.46546357
   0.37709409  0.49042363  0.52376688
   0.45056917  0.45531725  0.48430631
   0.50749903  0.46397234  0.55393415
   0.55552715  0.41155562  0.50583517
   0.51848884  0.42219459  0.46111574
   0.49826899  0.39506992  0.51018034
   0.51282968  0.55254963  0.50846923
   0.61138781  0.55334712  0.48835561
   0.57286012  0.57542747  0.44872383
   0.57948368  0.60215005  0.50157596
   0.39232877  0.51159561  0.49791137
   0.44150980  0.51716342  0.50859116
   0.51094680  0.46676631  0.51734698
   0.52114226  0.42080075  0.49770195
   0.55221426  0.49699457  0.50859887
   0.57893471  0.56976883  0.48452055
   0.46734319  0.48088920  0.49892439
   0.54460834  0.54082182  0.50232861
   0.45606475  0.55196426  0.52568170
   0.58980720  0.47968787  0.50771804
Direct configuration=    23
   0.37589402  0.54418563  0.49864321
   0.38626176  0.49561966  0.46546369
   0.37709212  0.49042479  0.52376550
   0.45056885  0.45531448  0.48430380
   0.50750234  0.46397697  0.55393598
   0.55552360  0.41155430  0.50584063
   0.51849086  0.42219214  0.46111573
   0.49826231  0.39507092  0.51018636
   0.51283258  0.55255125  0.50846813
   0.61138648  0.55334824  0.48835762
   0.57286631  0.57543594  0.44872087
   0.57948003  0.60214970  0.50158065
   0.39233025  0.51159678  0.49791187
   0.44150781  0.51715133  0.50859114
   0.51094597  0.46676557  0.51734697
   0.52114037  0.42079769  0.49770339
   0.55223080  0.49698156  0.50859282
   0.57893593  0.56977095  0.48451834
   0.46734281  0.48088981  0.49892684
   0.54460300  0.54082680  0.50231783
   0.45606758  0.55196438  0.52569277
   0.58978960  0.47969491  0.50771129
Direct configuration=    24
   0.37589940  0.54418833  0.49864079
   0.38626841  0.49561927  0.46546385
   0.37708945  0.49042635  0.52376364
   0.45056865  0.45531102  0.48430061
   0.50750677  0.46398314  0.55393834
   0.55551889  0.41155244  0.50584792
   0.51849356  0.42218888  0.46111575
   0.49825347  0.39507229  0.51019425
   0.51283594  0.55255354  0.50846675
   0.61138480  0.55334973  0.48836038
   0.57287473  0.57544739  0.44871698
   0.57947522  0.60214923  0.50158694
   0.39233215  0.51159812  0.49791243
   0.44150594  0.51713784  0.50859234
   0.51094505  0.46676444  0.51734697
   0.52113758  0.42079368  0.49770534
   0.55224728  0.49696816  0.50858468
   0.57893720  0.56977398  0.48451542
   0.46734232  0.48088971  0.49892980
   0.54459705  0.54083165  0.50230346
   0.45607050  0.55196256  0.52570667
   0.58977095  0.47970206  0.50770216
Direct configuration=    25
   0.37590643  0.54419185  0.49863766
   0.38627695  0.49561877  0.46546406
   0.37708593  0.49042836  0.52376122
   0.45056872  0.45530691  0.48429671
   0.50751250  0.46399109  0.55394127
   0.55551288  0.41154992  0.50585734
   0.51849705  0.42218464  0.46111585
   0.49824220  0.39507410  0.51020423
   0.51283958  0.55255665  0.50846509
   0.61138277  0.55335165  0.48836404
   0.57288579  0.57546231  0.44871204
   0.57946909  0.60214860  0.50159508
   0.39233451  0.51159955  0.49791301
   0.44150455  0.51712399  0.50859553
   0.51094411  0.46676280  0.51734697
   0.52113362  0.42078859  0.49770793
   0.55226096  0.49695623  0.50857406
   0.57893835  0.56977815  0.48451168
   0.46734169  0.48088833  0.49893315
   0.54459092  0.54083550  0.50228495
   0.45607315  0.55195755  0.52572345
   0.58975348  0.47970822  0.50769023
Direct configuration=    26
   0.37591527  0.54419625  0.49863374
   0.38628754  0.49561814  0.46546431
   0.37708146  0.49043088  0.52375817
   0.45056919  0.45530224  0.48429212
   0.50751964  0.46400097  0.55394473
   0.55550546  0.41154661  0.50586908
   0.51850140  0.42217933  0.46111610
   0.49822834  0.39507642  0.51021639
   0.51284329  0.55256072  0.50846317
   0.61138040  0.55335405  0.48836868
   0.57289979  0.57548108  0.44870598
   0.57946155  0.60214777  0.50160523
   0.39233734  0.51160098  0.49791355
   0.44150402  0.51711098  0.50860147
   0.51094324  0.46676057  0.51734699
   0.52112827  0.42078239  0.49771125
   0.55226887  0.49694780  0.50856071
   0.57893921  0.56978365  0.48450707
   0.46734091  0.48088506  0.49893677
   0.54458514  0.54083746  0.50226194
   0.45607511  0.55194820  0.52574299
   0.58973969  0.47971219  0.50767518
Direct configuration=    27
   0.37592617  0.54420162  0.49862893
   0.38630036  0.49561736  0.46546460
   0.37707590  0.49043396  0.52375444
   0.45057023  0.45529710  0.48428684
   0.50752835  0.46401297  0.55394871
   0.55549649  0.41154235  0.50588341
   0.51850667  0.42217280  0.46111661
   0.49821167  0.39507936  0.51023085
   0.51284688  0.55256585  0.50846097
   0.61137768  0.55335701  0.48837443
   0.57291713  0.57550417  0.44869875
   0.57945248  0.60214670  0.50161759
   0.39234068  0.51160229  0.49791401
   0.44150466  0.51709984  0.50861090
   0.51094251  0.46675771  0.51734700
   0.52112127  0.42077503  0.49771543
   0.55226827  0.49694471  0.50854430
   0.57893963  0.56979067  0.48450151
   0.46733995  0.48087925  0.49894051
   0.54458009  0.54083670  0.50223396
   0.45607607  0.55193337  0.52576535
   0.58973186  0.47971286  0.50765660
Direct configuration=    28
   0.37593946  0.54420811  0.49862307
   0.38631579  0.49561640  0.46546488
   0.37706903  0.49043771  0.52374990
   0.45057202  0.45529149  0.48428083
   0.50753893  0.46402740  0.55395319
   0.55548572  0.41153690  0.50590074
   0.51851299  0.42216480  0.46111757
   0.49819182  0.39508304  0.51024783
   0.51285026  0.55257220  0.50845842
   0.61137460  0.55336067  0.48838149
   0.57293841  0.57553236  0.44869024
   0.57944161  0.60214533  0.50163257
   0.39234461  0.51160345  0.49791435
   0.44150666  0.51709125  0.50862456
   0.51094199  0.46675417  0.51734697
   0.52111236  0.42076643  0.49772067
   0.55225694  0.49694835  0.50852429
   0.57893950  0.56979946  0.48449490
   0.46733872  0.48087022  0.49894432
   0.54457593  0.54083258  0.50220019
   0.45607582  0.55191196  0.52579095
   0.58973174  0.47970936  0.50763387
Direct configuration=    29
   0.37595570  0.54421593  0.49861586
   0.38633439  0.49561521  0.46546510
   0.37706048  0.49044229  0.52374439
   0.45057471  0.45528533  0.48427393
   0.50755181  0.46404472  0.55395813
   0.55547268  0.41152990  0.50592175
   0.51852055  0.42215496  0.46111926
   0.49816812  0.39508771  0.51026770
   0.51285353  0.55257995  0.50845533
   0.61137103  0.55336528  0.48839017
   0.57296460  0.57556688  0.44868032
   0.57942847  0.60214350  0.50165080
   0.39234928  0.51160439  0.49791456
   0.44151000  0.51708512  0.50864308
   0.51094166  0.46675002  0.51734684
   0.52110120  0.42075642  0.49772733
   0.55223413  0.49695911  0.50849979
   0.57893882  0.56981031  0.48448706
   0.46733707  0.48085725  0.49894826
   0.54457233  0.54082486  0.50215920
   0.45607445  0.55188307  0.52582097
   0.58973969  0.47970138  0.50760606
Direct configuration=    30
   0.37597576  0.54422536  0.49860686
   0.38635713  0.49561370  0.46546516
   0.37704968  0.49044797  0.52373762
   0.45057841  0.45527827  0.48426579
   0.50756777  0.46406568  0.55396349
   0.55545662  0.41152074  0.50594748
   0.51852966  0.42214267  0.46112222
   0.49813952  0.39509377  0.51029102
   0.51285711  0.55258930  0.50845134
   0.61136675  0.55337128  0.48840098
   0.57299721  0.57560973  0.44866878
   0.57941224  0.60214103  0.50167339
   0.39235500  0.51160516  0.49791465
   0.44151414  0.51707957  0.50866675
   0.51094140  0.46674547  0.51734645
   0.52108750  0.42074473  0.49773594
   0.55220226  0.49697494  0.50846939
   0.57893786  0.56982353  0.48447780
   0.46733474  0.48083981  0.49895267
   0.54456799  0.54081436  0.50210872
   0.45607267  0.55184650  0.52585785
   0.58975311  0.47968996  0.50757169
Direct configuration=    31
   0.37600060  0.54423669  0.49859546
   0.38638514  0.49561175  0.46546485
   0.37703590  0.49045505  0.52372928
   0.45058299  0.45526959  0.48425585
   0.50758771  0.46409108  0.55396912
   0.55543657  0.41150867  0.50597916
   0.51854061  0.42212718  0.46112723
   0.49810474  0.39510171  0.51031833
   0.51286191  0.55260032  0.50844582
   0.61136145  0.55337929  0.48841450
   0.57303802  0.57566328  0.44865555
   0.57939186  0.60213757  0.50170168
   0.39236217  0.51160597  0.49791473
   0.44151769  0.51706984  0.50869473
   0.51094089  0.46674105  0.51734550
   0.52107128  0.42073103  0.49774709
   0.55217000  0.49698944  0.50843131
   0.57893723  0.56983926  0.48446702
   0.46733130  0.48081828  0.49895840
   0.54456011  0.54080377  0.50204590
   0.45607223  0.55180389  0.52590550
   0.58976390  0.47967873  0.50752918
Direct configuration=    32
   0.37603065  0.54424987  0.49858125
   0.38641900  0.49560925  0.46546392
   0.37701866  0.49046373  0.52371921
   0.45058799  0.45525835  0.48424353
   0.50761217  0.46412109  0.55397470
   0.55541198  0.41149314  0.50601730
   0.51855347  0.42210809  0.46113501
   0.49806324  0.39511188  0.51034941
   0.51286880  0.55261280  0.50843817
   0.61135489  0.55338981  0.48843109
   0.57308797  0.57572885  0.44864095
   0.57936661  0.60213285  0.50173654
   0.39237104  0.51160710  0.49791494
   0.44151906  0.51704993  0.50872513
   0.51093972  0.46673737  0.51734363
   0.52105308  0.42071557  0.49776118
   0.55214921  0.49699403  0.50838464
   0.57893768  0.56985728  0.48445498
   0.46732642  0.48079444  0.49896655
   0.54454565  0.54079678  0.50196911
   0.45607530  0.55175853  0.52596726
   0.58976150  0.47967264  0.50747782
Direct configuration=    33
   0.37606649  0.54426480  0.49856368
   0.38645937  0.49560603  0.46546209
   0.37699730  0.49047419  0.52370719
   0.45059294  0.45524343  0.48422823
   0.50764184  0.46415589  0.55397973
   0.55538230  0.41147332  0.50606247
   0.51856836  0.42208501  0.46114630
   0.49801447  0.39512472  0.51038371
   0.51287801  0.55262663  0.50842774
   0.61134704  0.55340336  0.48845144
   0.57314848  0.57580822  0.44862555
   0.57933572  0.60212649  0.50177922
   0.39238177  0.51160861  0.49791526
   0.44151754  0.51701589  0.50875720
   0.51093762  0.46673485  0.51734030
   0.52103325  0.42069876  0.49777864
   0.55214724  0.49698341  0.50832821
   0.57893941  0.56987770  0.48444216
   0.46731974  0.48076987  0.49897836
   0.54452268  0.54079546  0.50187637
   0.45608330  0.55171164  0.52604599
   0.58973899  0.47967502  0.50741663
Direct configuration=    34
   0.37610945  0.54428144  0.49854160
   0.38650762  0.49560170  0.46545883
   0.37697044  0.49048678  0.52369260
   0.45059764  0.45522342  0.48420918
   0.50767811  0.46419594  0.55398325
   0.55534660  0.41144763  0.50611582
   0.51858569  0.42205735  0.46116207
   0.49795727  0.39514107  0.51042005
   0.51288846  0.55264218  0.50841361
   0.61133798  0.55342091  0.48847719
   0.57322280  0.57590543  0.44861037
   0.57929773  0.60211787  0.50183240
   0.39239445  0.51161015  0.49791542
   0.44151414  0.51696807  0.50879336
   0.51093467  0.46673352  0.51733460
   0.52101140  0.42068090  0.49780061
   0.55216100  0.49695982  0.50825951
   0.57894195  0.56990150  0.48442928
   0.46731077  0.48074478  0.49899504
   0.54449135  0.54079821  0.50176374
   0.45609613  0.55165928  0.52614453
   0.58969807  0.47968529  0.50734354
Direct configuration=    35
   0.37616128  0.54429971  0.49851337
   0.38656538  0.49559568  0.46545349
   0.37693596  0.49050197  0.52367457
   0.45060263  0.45519755  0.48418614
   0.50772280  0.46424167  0.55398371
   0.55530397  0.41141359  0.50617873
   0.51860611  0.42202460  0.46118339
   0.49789036  0.39516205  0.51045600
   0.51289681  0.55266013  0.50839479
   0.61132821  0.55344367  0.48851113