   6   6   0   0
  0.4500000E+04  0.3000000E-08  0.3000000E-08  0.3000000E-08  0.0000000E+00
  1.000000000000000E-004
  CAR 
 unknown system                          
      2.02591328    -25.75144763  301     -6.39952451      1.00000000
    -25.751  0.0000E+00  0.0000E+00
    -25.659  0.0000E+00  0.0000E+00
    -25.566  0.0000E+00  0.0000E+00
    -25.474  0.0000E+00  0.0000E+00
    -25.381  0.0000E+00  0.0000E+00
    -25.288  0.0000E+00  0.0000E+00
    -25.196  0.0000E+00  0.0000E+00
    -25.103  0.0000E+00  0.0000E+00
    -25.011  0.0000E+00  0.0000E+00
    -24.918  0.3997E-17  0.3701E-18
    -24.826  0.1103E-14  0.1025E-15
    -24.733  0.1398E-12  0.1305E-13
    -24.640  0.1162E-10  0.1089E-11
    -24.548  0.6340E-09  0.5979E-10
    -24.455  0.2271E-07  0.2163E-08
    -24.363  0.5349E-06  0.5169E-07
    -24.270  0.8289E-05  0.8192E-06
    -24.177  0.8461E-04  0.8653E-05
    -24.085  0.5694E-03  0.6138E-04
    -23.992  0.2529E-02  0.2955E-03
    -23.900  0.7419E-02  0.9825E-03
    -23.807  0.1438E-01  0.2314E-02
    -23.714  0.1844E-01  0.4021E-02
    -23.622  0.1563E-01  0.5468E-02
    -23.529  0.8759E-02  0.6279E-02
    -23.437  0.3245E-02  0.6580E-02
    -23.344  0.7940E-03  0.6653E-02
    -23.251  0.1283E-03  0.6665E-02
    -23.159  0.1366E-04  0.6667E-02
    -23.066  0.9587E-06  0.6667E-02
    -22.974  0.4428E-07  0.6667E-02
    -22.881  0.1345E-08  0.6667E-02
    -22.789  0.2682E-10  0.6667E-02
    -22.696  0.3511E-12  0.6667E-02
    -22.603  0.3014E-14  0.6667E-02
    -22.511  0.1599E-16  0.6667E-02
    -22.418  0.0000E+00  0.6667E-02
    -22.326  0.0000E+00  0.6667E-02
    -22.233  0.0000E+00  0.6667E-02
    -22.140  0.0000E+00  0.6667E-02
    -22.048  0.0000E+00  0.6667E-02
    -21.955  0.0000E+00  0.6667E-02
    -21.863  0.0000E+00  0.6667E-02
    -21.770  0.0000E+00  0.6667E-02
    -21.677  0.0000E+00  0.6667E-02
    -21.585  0.0000E+00  0.6667E-02
    -21.492  0.0000E+00  0.6667E-02
    -21.400  0.0000E+00  0.6667E-02
    -21.307  0.0000E+00  0.6667E-02
    -21.214  0.0000E+00  0.6667E-02
    -21.122  0.0000E+00  0.6667E-02
    -21.029  0.0000E+00  0.6667E-02
    -20.937  0.0000E+00  0.6667E-02
    -20.844  0.0000E+00  0.6667E-02
    -20.752  0.0000E+00  0.6667E-02
    -20.659  0.0000E+00  0.6667E-02
    -20.566  0.0000E+00  0.6667E-02
    -20.474  0.0000E+00  0.6667E-02
    -20.381  0.0000E+00  0.6667E-02
    -20.289  0.0000E+00  0.6667E-02
    -20.196  0.0000E+00  0.6667E-02
    -20.103  0.0000E+00  0.6667E-02
    -20.011  0.0000E+00  0.6667E-02
    -19.918  0.0000E+00  0.6667E-02
    -19.826  0.0000E+00  0.6667E-02
    -19.733  0.0000E+00  0.6667E-02
    -19.640  0.0000E+00  0.6667E-02
    -19.548  0.0000E+00  0.6667E-02
    -19.455  0.0000E+00  0.6667E-02
    -19.363  0.0000E+00  0.6667E-02
    -19.270  0.0000E+00  0.6667E-02
    -19.177  0.3997E-17  0.6667E-02
    -19.085  0.5396E-15  0.6667E-02
    -18.992  0.7266E-13  0.6667E-02
    -18.900  0.6409E-11  0.6667E-02
    -18.807  0.3709E-09  0.6667E-02
    -18.715  0.1409E-07  0.6667E-02
    -18.622  0.3520E-06  0.6667E-02
    -18.529  0.5785E-05  0.6667E-02
    -18.437  0.6261E-04  0.6673E-02
    -18.344  0.4468E-03  0.6714E-02
    -18.252  0.2103E-02  0.6909E-02
    -18.159  0.6540E-02  0.7515E-02
    -18.066  0.1344E-01  0.8759E-02
    -17.974  0.1826E-01  0.1045E-01
    -17.881  0.1640E-01  0.1197E-01
    -17.789  0.9741E-02  0.1287E-01
    -17.696  0.3825E-02  0.1322E-01
    -17.603  0.9921E-03  0.1332E-01
    -17.511  0.1699E-03  0.1333E-01
    -17.418  0.1919E-04  0.1333E-01
    -17.326  0.1428E-05  0.1333E-01
    -17.233  0.6993E-07  0.1333E-01
    -17.140  0.2253E-08  0.1333E-01
    -17.048  0.4767E-10  0.1333E-01
    -16.955  0.6621E-12  0.1333E-01
    -16.863  0.6035E-14  0.1333E-01
    -16.770  0.3197E-16  0.1333E-01
    -16.678  0.0000E+00  0.1333E-01
    -16.585  0.0000E+00  0.1333E-01
    -16.492  0.0000E+00  0.1333E-01
    -16.400  0.0000E+00  0.1333E-01
    -16.307  0.0000E+00  0.1333E-01
    -16.215  0.0000E+00  0.1333E-01
    -16.122  0.0000E+00  0.1333E-01
    -16.029  0.0000E+00  0.1333E-01
    -15.937  0.0000E+00  0.1333E-01
    -15.844  0.0000E+00  0.1333E-01
    -15.752  0.0000E+00  0.1333E-01
    -15.659  0.0000E+00  0.1333E-01
    -15.566  0.0000E+00  0.1333E-01
    -15.474  0.0000E+00  0.1333E-01
    -15.381  0.0000E+00  0.1333E-01
    -15.289  0.0000E+00  0.1333E-01
    -15.196  0.0000E+00  0.1333E-01
    -15.103  0.0000E+00  0.1333E-01
    -15.011  0.0000E+00  0.1333E-01
    -14.918  0.0000E+00  0.1333E-01
    -14.826  0.0000E+00  0.1333E-01
    -14.733  0.0000E+00  0.1333E-01
    -14.641  0.0000E+00  0.1333E-01
    -14.548  0.0000E+00  0.1333E-01
    -14.455  0.0000E+00  0.1333E-01
    -14.363  0.0000E+00  0.1333E-01
    -14.270  0.0000E+00  0.1333E-01
    -14.178  0.0000E+00  0.1333E-01
    -14.085  0.0000E+00  0.1333E-01
    -13.992  0.0000E+00  0.1333E-01
    -13.900  0.0000E+00  0.1333E-01
    -13.807  0.0000E+00  0.1333E-01
    -13.715  0.0000E+00  0.1333E-01
    -13.622  0.0000E+00  0.1333E-01
    -13.529  0.0000E+00  0.1333E-01
    -13.437  0.0000E+00  0.1333E-01
    -13.344  0.7994E-17  0.1333E-01
    -13.252  0.1347E-14  0.1333E-01
    -13.159  0.1682E-12  0.1333E-01
    -13.066  0.1375E-10  0.1333E-01
    -12.974  0.7373E-09  0.1333E-01
    -12.881  0.2597E-07  0.1333E-01
    -12.789  0.6016E-06  0.1333E-01
    -12.696  0.9168E-05  0.1333E-01
    -12.603  0.9203E-04  0.1334E-01
    -12.511  0.6092E-03  0.1340E-01
    -12.418  0.2661E-02  0.1365E-01
    -12.326  0.7678E-02  0.1436E-01
    -12.233  0.1464E-01  0.1571E-01
    -12.141  0.1846E-01  0.1742E-01
    -12.048  0.1541E-01  0.1885E-01
    -11.955  0.8626E-02  0.1965E-01
    -11.863  0.3946E-02  0.2001E-01
    -11.770  0.4170E-02  0.2040E-01
    -11.678  0.9192E-02  0.2125E-01
    -11.585  0.1590E-01  0.2272E-01
    -11.492  0.1840E-01  0.2443E-01
    -11.400  0.1412E-01  0.2573E-01
    -11.307  0.7407E-02  0.2642E-01
    -11.215  0.3846E-02  0.2677E-01
    -11.122  0.5590E-02  0.2729E-01
    -11.029  0.1167E-01  0.2837E-01
    -10.937  0.1755E-01  0.3000E-01
    -10.844  0.1755E-01  0.3162E-01
    -10.752  0.1161E-01  0.3270E-01
    -10.659  0.5080E-02  0.3317E-01
    -10.566  0.1468E-02  0.3330E-01
    -10.474  0.2802E-03  0.3333E-01
    -10.381  0.3528E-04  0.3333E-01
    -10.289  0.2928E-05  0.3333E-01
    -10.196  0.1648E-06  0.3333E-01
    -10.104  0.1425E-06  0.3333E-01
    -10.011  0.2556E-05  0.3333E-01
     -9.918  0.3146E-04  0.3334E-01
     -9.826  0.2551E-03  0.3336E-01
     -9.733  0.1365E-02  0.3349E-01
     -9.641  0.4821E-02  0.3393E-01
     -9.548  0.1125E-01  0.3497E-01
     -9.455  0.1736E-01  0.3658E-01
     -9.363  0.1771E-01  0.3822E-01
     -9.270  0.1195E-01  0.3933E-01
     -9.178  0.5330E-02  0.3982E-01
     -9.085  0.1571E-02  0.3997E-01
     -8.992  0.3070E-03  0.4000E-01
     -8.900  0.5819E-04  0.4000E-01
     -8.807  0.1715E-03  0.4002E-01
     -8.715  0.9844E-03  0.4011E-01
     -8.622  0.3803E-02  0.4046E-01
     -8.529  0.9705E-02  0.4136E-01
     -8.437  0.1637E-01  0.4288E-01
     -8.344  0.1826E-01  0.4457E-01
     -8.252  0.1347E-01  0.4581E-01
     -8.159  0.6571E-02  0.4642E-01
     -8.067  0.2118E-02  0.4662E-01
     -7.974  0.4517E-03  0.4666E-01
     -7.881  0.7616E-04  0.4667E-01
     -7.789  0.1278E-03  0.4668E-01
     -7.696  0.7629E-03  0.4675E-01
     -7.604  0.3149E-02  0.4704E-01
     -7.511  0.8588E-02  0.4784E-01
     -7.418  0.1548E-01  0.4927E-01
     -7.326  0.1845E-01  0.5098E-01
     -7.233  0.1455E-01  0.5233E-01
     -7.141  0.7581E-02  0.5303E-01
     -7.048  0.2611E-02  0.5327E-01
     -6.955  0.5940E-03  0.5332E-01
     -6.863  0.8918E-04  0.5333E-01
     -6.770  0.8829E-05  0.5333E-01
     -6.678  0.5757E-06  0.5333E-01
     -6.585  0.2470E-07  0.5333E-01
     -6.492  0.6968E-09  0.5333E-01
     -6.400  0.1291E-10  0.5333E-01
     -6.307  0.1569E-12  0.5333E-01
     -6.215  0.1255E-14  0.5333E-01
     -6.122  0.7994E-17  0.5333E-01
     -6.030  0.0000E+00  0.5333E-01
     -5.937  0.0000E+00  0.5333E-01
     -5.844  0.0000E+00  0.5333E-01
     -5.752  0.0000E+00  0.5333E-01
     -5.659  0.0000E+00  0.5333E-01
     -5.567  0.0000E+00  0.5333E-01
     -5.474  0.0000E+00  0.5333E-01
     -5.381  0.0000E+00  0.5333E-01
     -5.289  0.0000E+00  0.5333E-01
     -5.196  0.0000E+00  0.5333E-01
     -5.104  0.0000E+00  0.5333E-01
     -5.011  0.0000E+00  0.5333E-01
     -4.918  0.0000E+00  0.5333E-01
     -4.826  0.0000E+00  0.5333E-01
     -4.733  0.0000E+00  0.5333E-01
     -4.641  0.0000E+00  0.5333E-01
     -4.548  0.0000E+00  0.5333E-01
     -4.455  0.0000E+00  0.5333E-01
     -4.363  0.0000E+00  0.5333E-01
     -4.270  0.0000E+00  0.5333E-01
     -4.178  0.2278E-15  0.5333E-01
     -4.085  0.3260E-13  0.5333E-01
     -3.993  0.3089E-11  0.5333E-01
     -3.900  0.1920E-09  0.5333E-01
     -3.807  0.7835E-08  0.5333E-01
     -3.715  0.2101E-06  0.5333E-01
     -3.622  0.3707E-05  0.5333E-01
     -3.530  0.4306E-04  0.5334E-01
     -3.437  0.3297E-03  0.5337E-01
     -3.344  0.1665E-02  0.5352E-01
     -3.252  0.5555E-02  0.5404E-01
     -3.159  0.1225E-01  0.5517E-01
     -3.067  0.1784E-01  0.5682E-01
     -2.974  0.1719E-01  0.5841E-01
     -2.881  0.1096E-01  0.5943E-01
     -2.789  0.4614E-02  0.5986E-01
     -2.696  0.1284E-02  0.5998E-01
     -2.604  0.2359E-03  0.6000E-01
     -2.511  0.2860E-04  0.6000E-01
     -2.418  0.2284E-05  0.6000E-01
     -2.326  0.1201E-06  0.6000E-01
     -2.233  0.4154E-08  0.6000E-01
     -2.141  0.9441E-10  0.6000E-01
     -2.048  0.1408E-11  0.6000E-01
     -1.956  0.1378E-13  0.6000E-01
     -1.863  0.8793E-16  0.6000E-01
     -1.770  0.3917E-15  0.6000E-01
     -1.678  0.5379E-13  0.6000E-01
     -1.585  0.4875E-11  0.6000E-01
     -1.493  0.2898E-09  0.6000E-01
     -1.400  0.1131E-07  0.6000E-01
     -1.307  0.2902E-06  0.6000E-01
     -1.215  0.4899E-05  0.6000E-01
     -1.122  0.5446E-04  0.6001E-01
     -1.030  0.3993E-03  0.6004E-01
     -0.937  0.1934E-02  0.6022E-01
     -0.844  0.6213E-02  0.6080E-01
     -0.752  0.1339E-01  0.6204E-01
     -0.659  0.2005E-01  0.6389E-01
     -0.567  0.2287E-01  0.6601E-01
     -0.474  0.2320E-01  0.6816E-01
     -0.381  0.2237E-01  0.7023E-01
     -0.289  0.1864E-01  0.7195E-01
     -0.196  0.1371E-01  0.7322E-01
     -0.104  0.1302E-01  0.7443E-01
     -0.011  0.1683E-01  0.7599E-01
      0.081  0.1861E-01  0.7771E-01
      0.174  0.1429E-01  0.7904E-01
      0.267  0.7305E-02  0.7971E-01
      0.359  0.2471E-02  0.7994E-01
      0.452  0.5523E-03  0.7999E-01
      0.544  0.8146E-04  0.8000E-01
      0.637  0.7921E-05  0.8000E-01
      0.730  0.5074E-06  0.8000E-01
      0.822  0.2139E-07  0.8000E-01
      0.915  0.5926E-09  0.8000E-01
      1.007  0.1078E-10  0.8000E-01
      1.100  0.1288E-12  0.8000E-01
      1.193  0.1011E-14  0.8000E-01
      1.285  0.0000E+00  0.8000E-01
      1.378  0.0000E+00  0.8000E-01
      1.470  0.0000E+00  0.8000E-01
      1.563  0.0000E+00  0.8000E-01
      1.656  0.0000E+00  0.8000E-01
      1.748  0.0000E+00  0.8000E-01
      1.841  0.0000E+00  0.8000E-01
      1.933  0.0000E+00  0.8000E-01
      2.026  0.0000E+00  0.8000E-01
