    6    6  300    1
  0.4500000E+04  0.3000000E-08  0.3000000E-08  0.3000000E-08  0.0000000E+00
  1.000000000000000E-004
  CAR 
 unknown system                          
     16      4     12
 
  0.2500000E+00  0.2500000E+00  0.2500000E+00  0.2500000E+00
    1      -23.751448   1.000000
    2      -17.997792   1.000000
    3      -12.181241   1.000000
    4      -11.552198   1.000000
    5      -10.936698   1.000000
    6       -9.450912   1.000000
    7       -8.412409   1.000000
    8       -7.379077   1.000000
    9       -3.074914   0.000000
   10       -0.677321   0.000000
   11       -0.399424   0.000000
   12        0.025913   0.000000
 
 -0.2500000E+00  0.2500000E+00  0.2500000E+00  0.2500000E+00
    1      -23.751446   1.000000
    2      -17.997791   1.000000
    3      -12.181245   1.000000
    4      -11.552198   1.000000
    5      -10.936698   1.000000
    6       -9.450916   1.000000
    7       -8.412415   1.000000
    8       -7.379063   1.000000
    9       -3.074897   0.000000
   10       -0.677308   0.000000
   11       -0.399423   0.000000
   12        0.022711   0.000000
 
  0.2500000E+00 -0.2500000E+00  0.2500000E+00  0.2500000E+00
    1      -23.751447   1.000000
    2      -17.997791   1.000000
    3      -12.181244   1.000000
    4      -11.552203   1.000000
    5      -10.936700   1.000000
    6       -9.450907   1.000000
    7       -8.412419   1.000000
    8       -7.379075   1.000000
    9       -3.074910   0.000000
   10       -0.677323   0.000000
   11       -0.399424   0.000000
   12        0.024235   0.000000
 
 -0.2500000E+00 -0.2500000E+00  0.2500000E+00  0.2500000E+00
    1      -23.751447   1.000000
    2      -17.997790   1.000000
    3      -12.181244   1.000000
    4      -11.552203   1.000000
    5      -10.936699   1.000000
    6       -9.450908   1.000000
    7       -8.412422   1.000000
    8       -7.379074   1.000000
    9       -3.074910   0.000000
   10       -0.677321   0.000000
   11       -0.399424   0.000000
   12        0.024099   0.000000
