       N       E                     dE             d eps       ncg     rms          rms(c)
DAV:   1     0.109323481424E+03    0.10932E+03   -0.21260E+03   160   0.366E+02
DAV:   2     0.172493106015E+01   -0.10760E+03   -0.10416E+03   192   0.982E+01
DAV:   3    -0.339203549726E+02   -0.35645E+02   -0.35351E+02   128   0.919E+01
DAV:   4    -0.371754675961E+02   -0.32551E+01   -0.31939E+01   104   0.316E+01
DAV:   5    -0.372816493342E+02   -0.10618E+00   -0.10577E+00   160   0.538E+00    0.104E+01
DAV:   6    -0.348503321514E+02    0.24313E+01   -0.41091E+00   120   0.137E+01    0.570E+00
DAV:   7    -0.342425339872E+02    0.60780E+00   -0.16262E+00   128   0.885E+00    0.229E+00
DAV:   8    -0.341661454367E+02    0.76389E-01   -0.16617E-01   128   0.390E+00    0.972E-01
DAV:   9    -0.341466812105E+02    0.19464E-01   -0.33982E-02   128   0.164E+00    0.277E-01
DAV:  10    -0.341450238130E+02    0.16574E-02   -0.64474E-03   128   0.731E-01    0.128E-01
DAV:  11    -0.341453573248E+02   -0.33351E-03   -0.96632E-04   108   0.260E-01    0.867E-02
DAV:  12    -0.341488058785E+02   -0.34486E-02   -0.21599E-03   108   0.316E-01    0.410E-02
DAV:  13    -0.341528200483E+02   -0.40142E-02   -0.11555E-03   160   0.192E-01    0.303E-02
DAV:  14    -0.341566216217E+02   -0.38016E-02   -0.38612E-04   116   0.115E-01    0.172E-02
DAV:  15    -0.341592410634E+02   -0.26194E-02   -0.23760E-04   128   0.746E-02    0.102E-02
DAV:  16    -0.341611590782E+02   -0.19180E-02   -0.18672E-04   124   0.653E-02    0.624E-03
DAV:  17    -0.341622078070E+02   -0.10487E-02   -0.55859E-05    88   0.412E-02    0.318E-03
DAV:  18    -0.341626322885E+02   -0.42448E-03   -0.37846E-05    92   0.280E-02    0.191E-03
DAV:  19    -0.341628207780E+02   -0.18849E-03   -0.15755E-05    88   0.178E-02    0.995E-04
DAV:  20    -0.341629046118E+02   -0.83834E-04   -0.51601E-06    80   0.121E-02
   1 F= -.34162905E+02 E0= -.34162905E+02  d E =-.341629E+02
       N       E                     dE             d eps       ncg     rms          rms(c)
DAV:   1    -0.341629516433E+02   -0.13087E-03   -0.33050E-06    76   0.126E-02    0.484E-04
DAV:   2    -0.341629591321E+02   -0.74888E-05   -0.68622E-07    96   0.494E-03    0.302E-04
DAV:   3    -0.341629682422E+02   -0.91101E-05   -0.19353E-07    84   0.228E-03    0.188E-04
DAV:   4    -0.341629751369E+02   -0.68947E-05   -0.61301E-08    80   0.136E-03    0.136E-04
DAV:   5    -0.341629845259E+02   -0.93889E-05   -0.26820E-08    64   0.974E-04    0.756E-05
DAV:   6    -0.341629885012E+02   -0.39753E-05   -0.12517E-08    92   0.665E-04
   2 F= -.34162989E+02 E0= -.34162989E+02  d E =-.838893E-04
       N       E                     dE             d eps       ncg     rms          rms(c)
DAV:   1    -0.341630133137E+02   -0.28788E-04   -0.48574E-06    64   0.206E-02    0.556E-04
DAV:   2    -0.341630135779E+02   -0.26418E-06   -0.24144E-07    96   0.491E-03    0.330E-04
DAV:   3    -0.341630138633E+02   -0.28549E-06   -0.37906E-08    88   0.150E-03    0.155E-04
DAV:   4    -0.341630141069E+02   -0.24352E-06   -0.18314E-08    72   0.727E-04    0.508E-05
DAV:   5    -0.341630142391E+02   -0.13223E-06   -0.13996E-08    48   0.379E-04    0.347E-05
DAV:   6    -0.341630143977E+02   -0.15855E-06   -0.13612E-08    84   0.242E-04
   3 F= -.34163014E+02 E0= -.34163014E+02  d E =-.258965E-04
       N       E                     dE             d eps       ncg     rms          rms(c)
DAV:   1    -0.341630538034E+02   -0.39564E-04   -0.10606E-05    52   0.304E-02    0.826E-04
DAV:   2    -0.341630538776E+02   -0.74220E-07   -0.51548E-07    48   0.722E-03    0.488E-04
DAV:   3    -0.341630539416E+02   -0.63946E-07   -0.73327E-08    48   0.218E-03    0.218E-04
DAV:   4    -0.341630539941E+02   -0.52546E-07   -0.28344E-08    60   0.102E-03    0.706E-05
DAV:   5    -0.341630540252E+02   -0.31101E-07   -0.18334E-08    52   0.507E-04    0.476E-05
DAV:   6    -0.341630540607E+02   -0.35448E-07   -0.16112E-08    60   0.298E-04
   4 F= -.34163054E+02 E0= -.34163054E+02  d E =-.396630E-04
       N       E                     dE             d eps       ncg     rms          rms(c)
DAV:   1    -0.341631153216E+02   -0.61296E-04   -0.18733E-05    48   0.406E-02    0.111E-03
DAV:   2    -0.341631153899E+02   -0.68344E-07   -0.90742E-07    48   0.962E-03    0.653E-04
DAV:   3    -0.341631154261E+02   -0.36179E-07   -0.13092E-07    48   0.295E-03    0.288E-04
DAV:   4    -0.341631154460E+02   -0.19902E-07   -0.48742E-08    60   0.139E-03    0.992E-05
DAV:   5    -0.341631154576E+02   -0.11613E-07   -0.30997E-08    48   0.693E-04    0.620E-05
DAV:   6    -0.341631154690E+02   -0.11437E-07   -0.27323E-08    48   0.411E-04
   5 F= -.34163115E+02 E0= -.34163115E+02  d E =-.614084E-04
       N       E                     dE             d eps       ncg     rms          rms(c)
DAV:   1    -0.341632052715E+02   -0.89814E-04   -0.30258E-05    48   0.517E-02    0.145E-03
DAV:   2    -0.341632053628E+02   -0.91242E-07   -0.14618E-06    48   0.122E-02    0.843E-04
DAV:   3    -0.341632054009E+02   -0.38147E-07   -0.21032E-07    48   0.376E-03    0.371E-04
DAV:   4    -0.341632054122E+02   -0.11304E-07   -0.74524E-08    48   0.178E-03    0.132E-04
DAV:   5    -0.341632054159E+02   -0.36539E-08   -0.42719E-08    48   0.895E-04    0.815E-05
DAV:   6    -0.341632054193E+02   -0.33743E-08   -0.33102E-08    48   0.535E-04
   6 F= -.34163205E+02 E0= -.34163205E+02  d E =-.899502E-04
       N       E                     dE             d eps       ncg     rms          rms(c)
DAV:   1    -0.341633300218E+02   -0.12461E-03   -0.45369E-05    48   0.634E-02    0.183E-03
DAV:   2    -0.341633301480E+02   -0.12617E-06   -0.21637E-06    48   0.150E-02    0.105E-03
DAV:   3    -0.341633302010E+02   -0.53028E-07   -0.29822E-07    48   0.459E-03    0.466E-04
DAV:   4    -0.341633302139E+02   -0.12963E-07   -0.98252E-08    48   0.218E-03    0.167E-04
DAV:   5    -0.341633302171E+02   -0.31512E-08   -0.50902E-08    48   0.110E-03    0.105E-04
DAV:   6    -0.341633302195E+02   -0.24334E-08   -0.36232E-08    48   0.661E-04
   7 F= -.34163330E+02 E0= -.34163330E+02  d E =-.124800E-03
       N       E                     dE             d eps       ncg     rms          rms(c)
DAV:   1    -0.341635138241E+02   -0.18361E-03   -0.79796E-05    48   0.841E-02    0.246E-03
DAV:   2    -0.341635140362E+02   -0.21203E-06   -0.37377E-06    48   0.198E-02    0.140E-03
DAV:   3    -0.341635141269E+02   -0.90758E-07   -0.49854E-07    48   0.606E-03    0.602E-04
DAV:   4    -0.341635141484E+02   -0.21505E-07   -0.14934E-07    48   0.288E-03    0.217E-04
DAV:   5    -0.341635141541E+02   -0.56943E-08   -0.67498E-08    48   0.145E-03    0.136E-04
DAV:   6    -0.341635141585E+02   -0.43685E-08   -0.41935E-08    48   0.876E-04
   8 F= -.34163514E+02 E0= -.34163514E+02  d E =-.183939E-03
       N       E                     dE             d eps       ncg     rms          rms(c)
DAV:   1    -0.341637722697E+02   -0.25812E-03   -0.14796E-04    96   0.112E-01    0.337E-03
DAV:   2    -0.341637721491E+02    0.12058E-06   -0.17436E-06    60   0.114E-02    0.198E-03
DAV:   3    -0.341637722565E+02   -0.10743E-06   -0.27425E-07    48   0.463E-03    0.540E-04
DAV:   4    -0.341637722745E+02   -0.17934E-07   -0.89898E-08    48   0.211E-03    0.238E-04
DAV:   5    -0.341637722814E+02   -0.69404E-08   -0.46117E-08    48   0.108E-03    0.118E-04
DAV:   6    -0.341637722895E+02   -0.80859E-08   -0.34041E-08    48   0.628E-04
   9 F= -.34163772E+02 E0= -.34163772E+02  d E =-.258131E-03
       N       E                     dE             d eps       ncg     rms          rms(c)
DAV:   1    -0.341641216293E+02   -0.34935E-03   -0.25446E-04    96   0.147E-01    0.441E-03
DAV:   2    -0.341641214305E+02    0.19874E-06   -0.29417E-06    56   0.148E-02    0.260E-03
DAV:   3    -0.341641216148E+02   -0.18433E-06   -0.43346E-07    48   0.598E-03    0.683E-04
DAV:   4    -0.341641216457E+02   -0.30810E-07   -0.12633E-07    48   0.268E-03    0.305E-04
DAV:   5    -0.341641216580E+02   -0.12340E-07   -0.55419E-08    48   0.137E-03    0.147E-04
DAV:   6    -0.341641216712E+02   -0.13217E-07   -0.35974E-08    48   0.793E-04
  10 F= -.34164122E+02 E0= -.34164122E+02  d E =-.349382E-03
       N       E                     dE             d eps       ncg     rms          rms(c)
DAV:   1    -0.341645761875E+02   -0.45453E-03   -0.42078E-04    96   0.189E-01    0.580E-03
DAV:   2    -0.341645758385E+02    0.34898E-06   -0.49919E-06    64   0.194E-02    0.342E-03
DAV:   3    -0.341645761438E+02   -0.30524E-06   -0.72921E-07    48   0.782E-03    0.100E-03
DAV:   4    -0.341645762046E+02   -0.60834E-07   -0.19765E-07    48   0.356E-03    0.436E-04
DAV:   5    -0.341645762203E+02   -0.15710E-07   -0.73165E-08    48   0.178E-03    0.222E-04
DAV:   6    -0.341645762394E+02   -0.19071E-07   -0.41378E-08    48   0.103E-03
  11 F= -.34164576E+02 E0= -.34164576E+02  d E =-.454568E-03
       N       E                     dE             d eps       ncg     rms          rms(c)
DAV:   1    -0.341651294533E+02   -0.55323E-03   -0.65775E-04    96   0.237E-01    0.712E-03
DAV:   2    -0.341651290356E+02    0.41776E-06   -0.81983E-06    64   0.249E-02    0.420E-03
DAV:   3    -0.341651294100E+02   -0.37441E-06   -0.14485E-06    48   0.110E-02    0.116E-03
DAV:   4    -0.341651294923E+02   -0.82310E-07   -0.34450E-07    48   0.493E-03    0.622E-04
DAV:   5    -0.341651295234E+02   -0.31148E-07   -0.10346E-07    48   0.245E-03    0.210E-04
DAV:   6    -0.341651295521E+02   -0.28706E-07   -0.51475E-08    48   0.136E-03
  12 F= -.34165130E+02 E0= -.34165130E+02  d E =-.553313E-03
       N       E                     dE             d eps       ncg     rms          rms(c)
DAV:   1    -0.341651134477E+02    0.16076E-04   -0.61779E-05    48   0.725E-02    0.341E-03
DAV:   2    -0.341651135139E+02   -0.66215E-07   -0.28179E-06    48   0.170E-02    0.185E-03
DAV:   3    -0.341651135512E+02   -0.37325E-07   -0.29642E-07    48   0.531E-03    0.102E-03
DAV:   4    -0.341651136221E+02   -0.70883E-07   -0.18160E-07    48   0.367E-03    0.339E-04
DAV:   5    -0.341651136340E+02   -0.11946E-07   -0.50742E-08    48   0.161E-03    0.214E-04
DAV:   6    -0.341651136656E+02   -0.31514E-07   -0.30978E-08    48   0.774E-04
  13 F= -.34165114E+02 E0= -.34165114E+02  d E =0.158866E-04
       N       E                     dE             d eps       ncg     rms          rms(c)
DAV:   1    -0.341651091750E+02    0.44590E-05   -0.50189E-07    48   0.638E-03    0.298E-04
DAV:   2    -0.341651091872E+02   -0.12143E-07   -0.47133E-08    48   0.149E-03    0.164E-04
DAV:   3    -0.341651091986E+02   -0.11377E-07   -0.28605E-08    48   0.460E-04    0.902E-05
DAV:   4    -0.341651092188E+02   -0.20253E-07   -0.28460E-08    48   0.328E-04    0.324E-05
DAV:   5    -0.341651092263E+02   -0.75318E-08   -0.27624E-08    48   0.149E-04    0.219E-05
DAV:   6    -0.341651092400E+02   -0.13653E-07   -0.27792E-08    48   0.764E-05
  14 F= -.34165109E+02 E0= -.34165109E+02  d E =0.442557E-05
       N       E                     dE             d eps       ncg     rms          rms(c)
DAV:   1    -0.341651002187E+02    0.90076E-05   -0.13739E-06    48   0.107E-02    0.501E-04
DAV:   2    -0.341651002195E+02   -0.72419E-09   -0.89361E-08    48   0.253E-03    0.275E-04
DAV:   3    -0.341651002214E+02   -0.19252E-08   -0.34220E-08    48   0.808E-04    0.154E-04
DAV:   4    -0.341651002274E+02   -0.59874E-08   -0.31559E-08    48   0.572E-04    0.542E-05
DAV:   5    -0.341651002297E+02   -0.23501E-08   -0.28447E-08    48   0.256E-04    0.369E-05
DAV:   6    -0.341651002327E+02   -0.29603E-08   -0.27892E-08    48   0.123E-04
  15 F= -.34165100E+02 E0= -.34165100E+02  d E =0.900730E-05
       N       E                     dE             d eps       ncg     rms          rms(c)
DAV:   1    -0.341650864156E+02    0.13814E-04   -0.15780E-06    48   0.115E-02    0.506E-04
DAV:   2    -0.341650864126E+02    0.29861E-08   -0.98649E-08    48   0.270E-03    0.283E-04
DAV:   3    -0.341650864117E+02    0.88426E-09   -0.35439E-08    48   0.870E-04    0.164E-04
DAV:   4    -0.341650864132E+02   -0.14613E-08   -0.31699E-08    48   0.602E-04    0.585E-05
DAV:   5    -0.341650864141E+02   -0.92564E-09   -0.28287E-08    48   0.274E-04    0.392E-05
DAV:   6    -0.341650864147E+02   -0.56298E-09   -0.27616E-08    48   0.129E-04
  16 F= -.34165086E+02 E0= -.34165086E+02  d E =0.138180E-04
       N       E                     dE             d eps       ncg     rms          rms(c)
DAV:   1    -0.341650690086E+02    0.17406E-04   -0.10612E-06    48   0.950E-03    0.323E-04
DAV:   2    -0.341650690084E+02    0.14643E-09   -0.76024E-08    48   0.221E-03    0.191E-04
DAV:   3    -0.341650690085E+02   -0.38654E-10   -0.33462E-08    48   0.719E-04    0.130E-04
DAV:   4    -0.341650690093E+02   -0.81013E-09   -0.29300E-08    48   0.409E-04    0.450E-05
DAV:   5    -0.341650690100E+02   -0.70736E-09   -0.27844E-08    48   0.191E-04    0.288E-05
DAV:   6    -0.341650690102E+02   -0.19850E-09   -0.27516E-08    48   0.909E-05
  17 F= -.34165069E+02 E0= -.34165069E+02  d E =0.174045E-04
       N       E                     dE             d eps       ncg     rms          rms(c)
DAV:   1    -0.341650494329E+02    0.19577E-04   -0.11169E-06    48   0.986E-03    0.279E-04
DAV:   2    -0.341650494387E+02   -0.58656E-08   -0.80129E-08    48   0.230E-03    0.153E-04
DAV:   3    -0.341650494413E+02   -0.25491E-08   -0.34097E-08    48   0.727E-04    0.883E-05
DAV:   4    -0.341650494422E+02   -0.94406E-09   -0.28998E-08    48   0.335E-04    0.315E-05
DAV:   5    -0.341650494419E+02    0.36221E-09   -0.27923E-08    48   0.161E-04    0.164E-05
DAV:   6    -0.341650494416E+02    0.27535E-09   -0.27675E-08    48   0.866E-05
  18 F= -.34165049E+02 E0= -.34165049E+02  d E =0.195686E-04
       N       E                     dE             d eps       ncg     rms          rms(c)
DAV:   1    -0.341650284795E+02    0.20962E-04   -0.19975E-06    48   0.133E-02    0.390E-04
DAV:   2    -0.341650284906E+02   -0.11105E-07   -0.12238E-07    48   0.309E-03    0.235E-04
DAV:   3    -0.341650284952E+02   -0.46043E-08   -0.38507E-08    48   0.966E-04    0.126E-04
DAV:   4    -0.341650284965E+02   -0.13415E-08   -0.30427E-08    48   0.470E-04    0.523E-05
DAV:   5    -0.341650284959E+02    0.56889E-09   -0.28332E-08    48   0.220E-04    0.277E-05
DAV:   6    -0.341650284952E+02    0.78171E-09   -0.27882E-08    48   0.119E-04
  19 F= -.34165028E+02 E0= -.34165028E+02  d E =0.209464E-04
       N       E                     dE             d eps       ncg     rms          rms(c)
DAV:   1    -0.341650040670E+02    0.24429E-04   -0.36941E-06    48   0.181E-02    0.551E-04
DAV:   2    -0.341650040843E+02   -0.17295E-07   -0.20406E-07    48   0.421E-03    0.339E-04
DAV:   3    -0.341650040908E+02   -0.65352E-08   -0.47356E-08    48   0.132E-03    0.192E-04
DAV:   4    -0.341650040933E+02   -0.24659E-08   -0.33339E-08    48   0.678E-04    0.768E-05
DAV:   5    -0.341650040921E+02    0.12096E-08   -0.29147E-08    48   0.315E-04    0.433E-05
DAV:   6    -0.341650040916E+02    0.46634E-09   -0.28251E-08    48   0.165E-04
  20 F= -.34165004E+02 E0= -.34165004E+02  d E =0.244036E-04
       N       E                     dE             d eps       ncg     rms          rms(c)
DAV:   1    -0.341649765566E+02    0.27535E-04   -0.43927E-06    48   0.197E-02    0.559E-04
DAV:   2    -0.341649765768E+02   -0.20231E-07   -0.23968E-07    48   0.462E-03    0.330E-04
DAV:   3    -0.341649765848E+02   -0.80106E-08   -0.52760E-08    48   0.144E-03    0.171E-04
DAV:   4    -0.341649765870E+02   -0.21241E-08   -0.33988E-08    48   0.681E-04    0.700E-05
DAV:   5    -0.341649765862E+02    0.72328E-09   -0.29540E-08    48   0.320E-04    0.364E-05
DAV:   6    -0.341649765858E+02    0.45156E-09   -0.28463E-08    48   0.176E-04
  21 F= -.34164977E+02 E0= -.34164977E+02  d E =0.275058E-04
       N       E                     dE             d eps       ncg     rms          rms(c)
DAV:   1    -0.341649477158E+02    0.28870E-04   -0.50840E-06    48   0.210E-02    0.581E-04
DAV:   2    -0.341649477340E+02   -0.18237E-07   -0.27366E-07    48   0.495E-03    0.322E-04
DAV:   3    -0.341649477404E+02   -0.63776E-08   -0.59694E-08    48   0.157E-03    0.201E-04
DAV:   4    -0.341649477434E+02   -0.30623E-08   -0.35360E-08    48   0.728E-04    0.729E-05
DAV:   5    -0.341649477439E+02   -0.41678E-09   -0.30178E-08    48   0.352E-04    0.350E-05
DAV:   6    -0.341649477441E+02   -0.19804E-09   -0.28747E-08    48   0.190E-04
  22 F= -.34164948E+02 E0= -.34164948E+02  d E =0.288417E-04
       N       E                     dE             d eps       ncg     rms          rms(c)
DAV:   1    -0.341649198513E+02    0.27893E-04   -0.82772E-06    48   0.267E-02    0.789E-04
DAV:   2    -0.341649198692E+02   -0.17912E-07   -0.42162E-07    48   0.626E-03    0.463E-04
DAV:   3    -0.341649198740E+02   -0.48456E-08   -0.79502E-08    48   0.202E-03    0.317E-04
DAV:   4    -0.341649198779E+02   -0.38790E-08   -0.41462E-08    48   0.101E-03    0.121E-04
DAV:   5    -0.341649198795E+02   -0.15634E-08   -0.31798E-08    48   0.490E-04    0.608E-05
DAV:   6    -0.341649198806E+02   -0.10971E-08   -0.29211E-08    48   0.254E-04
  23 F= -.34164920E+02 E0= -.34164920E+02  d E =0.278635E-04
       N       E                     dE             d eps       ncg     rms          rms(c)
DAV:   1    -0.341648975384E+02    0.22341E-04   -0.11790E-05    48   0.319E-02    0.878E-04
DAV:   2    -0.341648975737E+02   -0.35240E-07   -0.59711E-07    48   0.754E-03    0.509E-04
DAV:   3    -0.341648975831E+02   -0.94610E-08   -0.10271E-07    48   0.240E-03    0.336E-04
DAV:   4    -0.341648975884E+02   -0.52053E-08   -0.46488E-08    48   0.115E-03    0.129E-04
DAV:   5    -0.341648975900E+02   -0.16141E-08   -0.33554E-08    48   0.562E-04    0.596E-05
DAV:   6    -0.341648975910E+02   -0.10045E-08   -0.29989E-08    48   0.303E-04
  24 F= -.34164898E+02 E0= -.34164898E+02  d E =0.222896E-04
       N       E                     dE             d eps       ncg     rms          rms(c)
DAV:   1    -0.341648853839E+02    0.12206E-04   -0.17780E-05    48   0.394E-02    0.105E-03
DAV:   2    -0.341648854529E+02   -0.69010E-07   -0.89849E-07    48   0.937E-03    0.616E-04
DAV:   3    -0.341648854758E+02   -0.22914E-07   -0.13255E-07    48   0.288E-03    0.317E-04
DAV:   4    -0.341648854826E+02   -0.68590E-08   -0.53472E-08    48   0.134E-03    0.110E-04
DAV:   5    -0.341648854826E+02    0.70941E-10   -0.35903E-08    48   0.644E-04    0.648E-05
DAV:   6    -0.341648854822E+02    0.37198E-09   -0.30920E-08    48   0.357E-04
  25 F= -.34164885E+02 E0= -.34164885E+02  d E =0.121088E-04
       N       E                     dE             d eps       ncg     rms          rms(c)
DAV:   1    -0.341648918835E+02   -0.64009E-05   -0.29430E-05    48   0.508E-02    0.141E-03
DAV:   2    -0.341648919906E+02   -0.10710E-06   -0.14632E-06    48   0.121E-02    0.843E-04
DAV:   3    -0.341648920277E+02   -0.37069E-07   -0.19431E-07    48   0.369E-03    0.426E-04
DAV:   4    -0.341648920392E+02   -0.11501E-07   -0.69987E-08    48   0.175E-03    0.150E-04
DAV:   5    -0.341648920385E+02    0.70145E-09   -0.40864E-08    48   0.838E-04    0.939E-05
DAV:   6    -0.341648920375E+02    0.97202E-09   -0.32550E-08    48   0.463E-04
  26 F= -.34164892E+02 E0= -.34164892E+02  d E =-.655529E-05
       N       E                     dE             d eps       ncg     rms          rms(c)
DAV:   1    -0.341649187889E+02   -0.26750E-04   -0.38393E-05    48   0.579E-02    0.154E-03
DAV:   2    -0.341649189236E+02   -0.13469E-06   -0.18883E-06    48   0.138E-02    0.906E-04
DAV:   3    -0.341649189641E+02   -0.40440E-07   -0.26552E-07    48   0.428E-03    0.494E-04
DAV:   4    -0.341649189783E+02   -0.14191E-07   -0.86442E-08    48   0.201E-03    0.164E-04
DAV:   5    -0.341649189805E+02   -0.22098E-08   -0.46436E-08    48   0.982E-04    0.940E-05
DAV:   6    -0.341649189813E+02   -0.84219E-09   -0.34751E-08    48   0.553E-04
  27 F= -.34164919E+02 E0= -.34164919E+02  d E =-.269438E-04
       N       E                     dE             d eps       ncg     rms          rms(c)
DAV:   1    -0.341649715150E+02   -0.52535E-04   -0.61864E-05    48   0.737E-02    0.198E-03
DAV:   2    -0.341649717246E+02   -0.20954E-06   -0.30108E-06    48   0.175E-02    0.118E-03
DAV:   3    -0.341649717863E+02   -0.61696E-07   -0.41630E-07    48   0.548E-03    0.643E-04
DAV:   4    -0.341649718088E+02   -0.22501E-07   -0.12464E-07    48   0.259E-03    0.224E-04
DAV:   5    -0.341649718129E+02   -0.40889E-08   -0.57755E-08    48   0.127E-03    0.122E-04
DAV:   6    -0.341649718144E+02   -0.14891E-08   -0.38688E-08    48   0.720E-04
  28 F= -.34164972E+02 E0= -.34164972E+02  d E =-.528331E-04
       N       E                     dE             d eps       ncg     rms          rms(c)
DAV:   1    -0.341650473310E+02   -0.75518E-04   -0.10351E-04    48   0.957E-02    0.273E-03
DAV:   2    -0.341650476801E+02   -0.34907E-06   -0.50428E-06    48   0.227E-02    0.162E-03
DAV:   3    -0.341650478011E+02   -0.12108E-06   -0.61292E-07    48   0.692E-03    0.801E-04
DAV:   4    -0.341650478412E+02   -0.40040E-07   -0.17686E-07    48   0.329E-03    0.271E-04
DAV:   5    -0.341650478422E+02   -0.10646E-08   -0.74269E-08    48   0.160E-03    0.175E-04
DAV:   6    -0.341650478420E+02    0.26466E-09   -0.43429E-08    48   0.893E-04
  29 F= -.34165048E+02 E0= -.34165048E+02  d E =-.760276E-04
       N       E                     dE             d eps       ncg     rms          rms(c)
DAV:   1    -0.341651402851E+02   -0.92443E-04   -0.14526E-04    96   0.111E-01    0.312E-03
DAV:   2    -0.341651402302E+02    0.54903E-07   -0.16864E-06    48   0.114E-02    0.188E-03
DAV:   3    -0.341651403228E+02   -0.92641E-07   -0.28108E-07    48   0.463E-03    0.605E-04
DAV:   4    -0.341651403481E+02   -0.25280E-07   -0.93502E-08    48   0.216E-03    0.251E-04
DAV:   5    -0.341651403537E+02   -0.55734E-08   -0.47521E-08    48   0.105E-03    0.101E-04
DAV:   6    -0.341651403576E+02   -0.39408E-08   -0.36734E-08    48   0.594E-04
  30 F= -.34165140E+02 E0= -.34165140E+02  d E =-.925156E-04
       N       E                     dE             d eps       ncg     rms          rms(c)
DAV:   1    -0.341652386988E+02   -0.98345E-04   -0.23753E-04    96   0.142E-01    0.414E-03
DAV:   2    -0.341652386260E+02    0.72830E-07   -0.27028E-06    48   0.144E-02    0.245E-03
DAV:   3    -0.341652388264E+02   -0.20033E-06   -0.40560E-07    48   0.577E-03    0.605E-04
DAV:   4    -0.341652388526E+02   -0.26283E-07   -0.12376E-07    48   0.255E-03    0.255E-04
DAV:   5    -0.341652388571E+02   -0.44845E-08   -0.55673E-08    48   0.127E-03    0.126E-04
DAV:   6    -0.341652388613E+02   -0.41744E-08   -0.39899E-08    48   0.702E-04
  31 F= -.34165239E+02 E0= -.34165239E+02  d E =-.985037E-04
       N       E                     dE             d eps       ncg     rms          rms(c)
DAV:   1    -0.341653190430E+02   -0.80186E-04   -0.35081E-04    96   0.173E-01    0.486E-03
DAV:   2    -0.341653189163E+02    0.12674E-06   -0.39851E-06    48   0.178E-02    0.294E-03
DAV:   3    -0.341653191091E+02   -0.19282E-06   -0.63322E-07    48   0.717E-03    0.112E-03
DAV:   4    -0.341653191860E+02   -0.76859E-07   -0.18592E-07    48   0.347E-03    0.404E-04
DAV:   5    -0.341653191979E+02   -0.11962E-07   -0.70522E-08    48   0.162E-03    0.170E-04
DAV:   6    -0.341653192069E+02   -0.89472E-08   -0.45753E-08    48   0.892E-04
  32 F= -.34165319E+02 E0= -.34165319E+02  d E =-.803456E-04
       N       E                     dE             d eps       ncg     rms          rms(c)
DAV:   1    -0.341653672948E+02   -0.48097E-04   -0.71290E-04    96   0.247E-01    0.813E-03
DAV:   2    -0.341653667822E+02    0.51266E-06   -0.87411E-06    64   0.265E-02    0.472E-03
DAV:   3    -0.341653672839E+02   -0.50169E-06   -0.16466E-06    64   0.120E-02    0.163E-03
DAV:   4    -0.341653674207E+02   -0.13680E-06   -0.42646E-07    48   0.568E-03    0.721E-04
DAV:   5    -0.341653674287E+02   -0.80270E-08   -0.10517E-07    48   0.259E-03    0.321E-04
DAV:   6    -0.341653674408E+02   -0.12071E-07   -0.60009E-08    48   0.142E-03
  33 F= -.34165367E+02 E0= -.34165367E+02  d E =-.482339E-04
       N       E                     dE             d eps       ncg     rms          rms(c)
DAV:   1    -0.341653567653E+02    0.10663E-04   -0.11227E-04    48   0.972E-02    0.471E-03
DAV:   2    -0.341653567315E+02    0.33779E-07   -0.50059E-06    64   0.227E-02    0.255E-03
DAV:   3    -0.341653566859E+02    0.45605E-07   -0.53501E-07    52   0.719E-03    0.139E-03
DAV:   4    -0.341653567355E+02   -0.49636E-07   -0.33862E-07    48   0.509E-03    0.466E-04
DAV:   5    -0.341653567507E+02   -0.15131E-07   -0.82638E-08    48   0.223E-03    0.305E-04
DAV:   6    -0.341653567684E+02   -0.17699E-07   -0.42538E-08    48   0.107E-03
  34 F= -.34165357E+02 E0= -.34165357E+02  d E =0.106724E-04
       N       E                     dE             d eps       ncg     rms          rms(c)
DAV:   1    -0.341653550616E+02    0.16891E-05   -0.39645E-07    48   0.566E-03    0.245E-04
DAV:   2    -0.341653550705E+02   -0.89101E-08   -0.47305E-08    48   0.133E-03    0.138E-04
DAV:   3    -0.341653550779E+02   -0.74583E-08   -0.32084E-08    48   0.399E-04    0.766E-05
DAV:   4    -0.341653550869E+02   -0.89387E-08   -0.31095E-08    48   0.267E-04    0.268E-05
DAV:   5    -0.341653550897E+02   -0.27972E-08   -0.30132E-08    48   0.119E-04    0.174E-05
DAV:   6    -0.341653550957E+02   -0.59861E-08   -0.29553E-08    48   0.638E-05
  35 F= -.34165355E+02 E0= -.34165355E+02  d E =0.167270E-05
       N       E                     dE             d eps       ncg     rms          rms(c)
DAV:   1    -0.341653521517E+02    0.29380E-05   -0.11176E-06    48   0.974E-03    0.421E-04
DAV:   2    -0.341653521590E+02   -0.72425E-08   -0.80762E-08    48   0.230E-03    0.234E-04
DAV:   3    -0.341653521628E+02   -0.38624E-08   -0.33812E-08    48   0.712E-04    0.132E-04
DAV:   4    -0.341653521663E+02   -0.34554E-08   -0.31216E-08    48   0.472E-04    0.430E-05
DAV:   5    -0.341653521662E+02    0.99135E-10   -0.29096E-08    48   0.212E-04    0.271E-05
DAV:   6    -0.341653521669E+02   -0.69531E-09   -0.28492E-08    48   0.100E-04
  36 F= -.34165352E+02 E0= -.34165352E+02  d E =0.292879E-05
       N       E                     dE             d eps       ncg     rms          rms(c)
DAV:   1    -0.341653487170E+02    0.34492E-05   -0.14612E-06    48   0.112E-02    0.448E-04
DAV:   2    -0.341653487240E+02   -0.70063E-08   -0.96890E-08    48   0.264E-03    0.256E-04
DAV:   3    -0.341653487268E+02   -0.28540E-08   -0.34709E-08    48   0.819E-04    0.147E-04
DAV:   4    -0.341653487288E+02   -0.19402E-08   -0.31147E-08    48   0.524E-04    0.492E-05
DAV:   5    -0.341653487281E+02    0.68962E-09   -0.28648E-08    48   0.238E-04    0.312E-05
DAV:   6    -0.341653487279E+02    0.17599E-09   -0.28061E-08    48   0.113E-04
  37 F= -.34165349E+02 E0= -.34165349E+02  d E =0.343895E-05
       N       E                     dE             d eps       ncg     rms          rms(c)
DAV:   1    -0.341653460629E+02    0.26652E-05   -0.11373E-06    48   0.995E-03    0.317E-04
DAV:   2    -0.341653460691E+02   -0.61975E-08   -0.81535E-08    48   0.233E-03    0.195E-04
DAV:   3    -0.341653460715E+02   -0.23697E-08   -0.33462E-08    48   0.723E-04    0.115E-04
DAV:   4    -0.341653460726E+02   -0.11310E-08   -0.29550E-08    48   0.390E-04    0.443E-05
DAV:   5    -0.341653460719E+02    0.73123E-09   -0.28148E-08    48   0.181E-04    0.268E-05
DAV:   6    -0.341653460716E+02    0.29286E-09   -0.27799E-08    48   0.888E-05
  38 F= -.34165346E+02 E0= -.34165346E+02  d E =0.265635E-05
       N       E                     dE             d eps       ncg     rms          rms(c)
DAV:   1    -0.341653456691E+02    0.40276E-06   -0.92560E-07    48   0.895E-03    0.250E-04
DAV:   2    -0.341653456732E+02   -0.40632E-08   -0.71784E-08    48   0.211E-03    0.142E-04
DAV:   3    -0.341653456748E+02   -0.16041E-08   -0.33146E-08    48   0.664E-04    0.758E-05
DAV:   4    -0.341653456755E+02   -0.71418E-09   -0.28900E-08    48   0.308E-04    0.266E-05
DAV:   5    -0.341653456753E+02    0.19759E-09   -0.27955E-08    48   0.149E-04    0.140E-05
DAV:   6    -0.341653456752E+02    0.12597E-09   -0.27696E-08    48   0.819E-05
  39 F= -.34165346E+02 E0= -.34165346E+02  d E =0.396412E-06
       N       E                     dE             d eps       ncg     rms          rms(c)
DAV:   1    -0.341653495214E+02   -0.38461E-05   -0.12734E-06    48   0.105E-02    0.301E-04
DAV:   2    -0.341653495233E+02   -0.18495E-08   -0.87732E-08    48   0.246E-03    0.182E-04
DAV:   3    -0.341653495236E+02   -0.32514E-09   -0.35867E-08    48   0.808E-04    0.116E-04
DAV:   4    -0.341653495241E+02   -0.54479E-09   -0.29702E-08    48   0.398E-04    0.440E-05
DAV:   5    -0.341653495248E+02   -0.62687E-09   -0.28121E-08    48   0.195E-04    0.210E-05
DAV:   6    -0.341653495251E+02   -0.31901E-09   -0.27727E-08    48   0.106E-04
  40 F= -.34165350E+02 E0= -.34165350E+02  d E =-.384992E-05
       N       E                     dE             d eps       ncg     rms          rms(c)
DAV:   1    -0.341653587377E+02   -0.92130E-05   -0.24231E-06    48   0.146E-02    0.448E-04
DAV:   2    -0.341653587394E+02   -0.16801E-08   -0.14163E-07    48   0.340E-03    0.276E-04
DAV:   3    -0.341653587392E+02    0.21100E-09   -0.43253E-08    48   0.112E-03    0.177E-04
DAV:   4    -0.341653587400E+02   -0.84151E-09   -0.32198E-08    48   0.601E-04    0.644E-05
DAV:   5    -0.341653587412E+02   -0.11291E-08   -0.28746E-08    48   0.288E-04    0.359E-05
DAV:   6    -0.341653587416E+02   -0.44975E-09   -0.27865E-08    48   0.151E-04
  41 F= -.34165359E+02 E0= -.34165359E+02  d E =-.921654E-05
       N       E                     dE             d eps       ncg     rms          rms(c)
DAV:   1    -0.341653750465E+02   -0.16305E-04   -0.35953E-06    48   0.179E-02    0.519E-04
DAV:   2    -0.341653750521E+02   -0.56068E-08   -0.19841E-07    48   0.418E-03    0.317E-04
DAV:   3    -0.341653750538E+02   -0.16303E-08   -0.51522E-08    48   0.137E-03    0.193E-04
DAV:   4    -0.341653750551E+02   -0.13763E-08   -0.33988E-08    48   0.688E-04    0.729E-05
DAV:   5    -0.341653750560E+02   -0.84606E-09   -0.29337E-08    48   0.335E-04    0.366E-05
DAV:   6    -0.341653750565E+02   -0.51091E-09   -0.28103E-08    48   0.185E-04
  42 F= -.34165375E+02 E0= -.34165375E+02  d E =-.163149E-04
       N       E                     dE             d eps       ncg     rms          rms(c)
DAV:   1    -0.341653987916E+02   -0.23736E-04   -0.49332E-06    48   0.210E-02    0.590E-04
DAV:   2    -0.341653988063E+02   -0.14735E-07   -0.26429E-07    48   0.494E-03    0.343E-04
DAV:   3    -0.341653988126E+02   -0.62837E-08   -0.58628E-08    48   0.156E-03    0.164E-04
DAV:   4    -0.341653988141E+02   -0.14911E-08   -0.35336E-08    48   0.730E-04    0.562E-05
DAV:   5    -0.341653988143E+02   -0.27035E-09   -0.30027E-08    48   0.363E-04    0.310E-05
DAV:   6    -0.341653988144E+02   -0.22737E-10   -0.28463E-08    48   0.209E-04
  43 F= -.34165399E+02 E0= -.34165399E+02  d E =-.237579E-04
       N       E                     dE             d eps       ncg     rms          rms(c)
DAV:   1    -0.341654305915E+02   -0.31777E-04   -0.86807E-06    48   0.278E-02    0.839E-04
DAV:   2    -0.341654306189E+02   -0.27406E-07   -0.44380E-07    48   0.655E-03    0.494E-04
DAV:   3    -0.341654306317E+02   -0.12786E-07   -0.75777E-08    48   0.201E-03    0.251E-04
DAV:   4    -0.341654306352E+02   -0.34991E-08   -0.40371E-08    48   0.971E-04    0.905E-05
DAV:   5    -0.341654306343E+02    0.87789E-09   -0.31543E-08    48   0.475E-04    0.564E-05
DAV:   6    -0.341654306340E+02    0.32378E-09   -0.28927E-08    48   0.265E-04
  44 F= -.34165431E+02 E0= -.34165431E+02  d E =-.318196E-04
       N       E                     dE             d eps       ncg     rms          rms(c)
DAV:   1    -0.341654723165E+02   -0.41682E-04   -0.14105E-05    48   0.355E-02    0.108E-03
DAV:   2    -0.341654723589E+02   -0.42378E-07   -0.70215E-07    48   0.834E-03    0.640E-04
DAV:   3    -0.341654723781E+02   -0.19237E-07   -0.10454E-07    48   0.255E-03    0.334E-04
DAV:   4    -0.341654723843E+02   -0.62150E-08   -0.48325E-08    48   0.125E-03    0.123E-04
DAV:   5    -0.341654723833E+02    0.99885E-09   -0.33981E-08    48   0.608E-04    0.759E-05
DAV:   6    -0.341654723830E+02    0.37403E-09   -0.29721E-08    48   0.336E-04
  45 F= -.34165472E+02 E0= -.34165472E+02  d E =-.417490E-04
       N       E                     dE             d eps       ncg     rms          rms(c)
DAV:   1    -0.341655227069E+02   -0.50324E-04   -0.17747E-05    48   0.398E-02    0.114E-03
DAV:   2    -0.341655227604E+02   -0.53541E-07   -0.87426E-07    48   0.936E-03    0.658E-04
DAV:   3    -0.341655227839E+02   -0.23469E-07   -0.13650E-07    48   0.292E-03    0.300E-04
DAV:   4    -0.341655227898E+02   -0.59301E-08   -0.55057E-08    48   0.137E-03    0.104E-04
DAV:   5    -0.341655227913E+02   -0.14832E-08   -0.36437E-08    48   0.682E-04    0.591E-05
DAV:   6    -0.341655227917E+02   -0.44110E-09   -0.30887E-08    48   0.394E-04
  46 F= -.34165523E+02 E0= -.34165523E+02  d E =-.504088E-04
       N       E                     dE             d eps       ncg     rms          rms(c)
DAV:   1    -0.341655815117E+02   -0.58720E-04   -0.27292E-05    48   0.495E-02    0.140E-03
DAV:   2    -0.341655815873E+02   -0.75621E-07   -0.13255E-06    48   0.116E-02    0.836E-04
DAV:   3    -0.341655816138E+02   -0.26439E-07   -0.20570E-07    48   0.372E-03    0.439E-04
DAV:   4    -0.341655816245E+02   -0.10712E-07   -0.73016E-08    48   0.177E-03    0.166E-04
DAV:   5    -0.341655816276E+02   -0.31175E-08   -0.41437E-08    48   0.871E-04    0.813E-05
DAV:   6    -0.341655816291E+02   -0.14841E-08   -0.32600E-08    48   0.502E-04
  47 F= -.34165582E+02 E0= -.34165582E+02  d E =-.588373E-04
       N       E                     dE             d eps       ncg     rms          rms(c)
DAV:   1    -0.341656479084E+02   -0.66281E-04   -0.39407E-05    48   0.593E-02    0.170E-03
DAV:   2    -0.341656480319E+02   -0.12354E-06   -0.19114E-06    48   0.139E-02    0.983E-04
DAV:   3    -0.341656480845E+02   -0.52584E-07   -0.26437E-07    48   0.432E-03    0.451E-04
DAV:   4    -0.341656480985E+02   -0.13969E-07   -0.87184E-08    48   0.202E-03    0.155E-04
DAV:   5    -0.341656481003E+02   -0.18292E-08   -0.46757E-08    48   0.101E-03    0.906E-05
DAV:   6    -0.341656481010E+02   -0.67689E-09   -0.34484E-08    48   0.577E-04
  48 F= -.34165648E+02 E0= -.34165648E+02  d E =-.664719E-04
       N       E                     dE             d eps       ncg     rms          rms(c)
DAV:   1    -0.341657145771E+02   -0.66477E-04   -0.63189E-05    48   0.749E-02    0.222E-03
DAV:   2    -0.341657147754E+02   -0.19823E-06   -0.30563E-06    48   0.176E-02    0.130E-03
DAV:   3    -0.341657148551E+02   -0.79712E-07   -0.38053E-07    48   0.539E-03    0.636E-04
DAV:   4    -0.341657148808E+02   -0.25681E-07   -0.11800E-07    48   0.257E-03    0.223E-04
DAV:   5    -0.341657148812E+02   -0.46089E-09   -0.55720E-08    48   0.126E-03    0.140E-04
DAV:   6    -0.341657148811E+02    0.14961E-09   -0.37065E-08    48   0.701E-04
  49 F= -.34165715E+02 E0= -.34165715E+02  d E =-.667801E-04
       N       E                     dE             d eps       ncg     rms          rms(c)
DAV:   1    -0.341657711492E+02   -0.56268E-04   -0.74981E-05    48   0.818E-02    0.226E-03
DAV:   2    -0.341657713924E+02   -0.24325E-06   -0.36223E-06    48   0.192E-02    0.132E-03
DAV:   3    -0.341657714757E+02   -0.83300E-07   -0.50033E-07    48   0.605E-03    0.712E-04
DAV:   4    -0.341657715068E+02   -0.31027E-07   -0.14395E-07    48   0.284E-03    0.253E-04
DAV:   5    -0.341657715124E+02   -0.56368E-08   -0.63548E-08    48   0.139E-03    0.131E-04
DAV:   6    -0.341657715146E+02   -0.22440E-08   -0.40598E-08    48   0.787E-04
  50 F= -.34165772E+02 E0= -.34165772E+02  d E =-.566336E-04
       N       E                     dE             d eps       ncg     rms          rms(c)
DAV:   1    -0.341658017884E+02   -0.30276E-04   -0.10731E-04    48   0.977E-02    0.269E-03
DAV:   2    -0.341658021667E+02   -0.37825E-06   -0.52234E-06    48   0.230E-02    0.154E-03
DAV:   3    -0.341658022940E+02   -0.12733E-06   -0.67980E-07    48   0.714E-03    0.822E-04
DAV:   4    -0.341658023393E+02   -0.45298E-07   -0.18402E-07    48   0.330E-03    0.284E-04
DAV:   5    -0.341658023443E+02   -0.50218E-08   -0.76054E-08    48   0.161E-03    0.152E-04
DAV:   6    -0.341658023452E+02   -0.90176E-09   -0.44725E-08    48   0.892E-04
  51 F= -.34165802E+02 E0= -.34165802E+02  d E =-.308306E-04
       N       E                     dE             d eps       ncg     rms          rms(c)
DAV:   1    -0.341657963526E+02    0.59917E-05   -0.16688E-04    96   0.119E-01    0.352E-03
DAV:   2    -0.341657963098E+02    0.42814E-07   -0.19031E-06    48   0.121E-02    0.202E-03
DAV:   3    -0.341657964583E+02   -0.14850E-06   -0.28300E-07    48   0.474E-03    0.618E-04
DAV:   4    -0.341657964861E+02   -0.27838E-07   -0.95980E-08    48   0.216E-03    0.236E-04
DAV:   5    -0.341657964873E+02   -0.12085E-08   -0.47192E-08    48   0.105E-03    0.115E-04
DAV:   6    -0.341657964891E+02   -0.18129E-08   -0.36862E-08    48   0.562E-04
  52 F= -.34165796E+02 E0= -.34165796E+02  d E =0.585609E-05
       N       E                     dE             d eps       ncg     rms          rms(c)
DAV:   1    -0.341657581651E+02    0.38322E-04   -0.21875E-04    96   0.136E-01    0.404E-03
DAV:   2    -0.341657579850E+02    0.18003E-06   -0.26234E-06    64   0.148E-02    0.244E-03
DAV:   3    -0.341657580499E+02   -0.64837E-07   -0.46007E-07    48   0.607E-03    0.126E-03
DAV:   4    -0.341657581266E+02   -0.76746E-07   -0.16817E-07    48   0.338E-03    0.376E-04
DAV:   5    -0.341657581356E+02   -0.89765E-08   -0.58917E-08    48   0.150E-03    0.162E-04
DAV:   6    -0.341657581422E+02   -0.66043E-08   -0.40245E-08    48   0.755E-04
  53 F= -.34165758E+02 E0= -.34165758E+02  d E =0.383469E-04
       N       E                     dE             d eps       ncg     rms          rms(c)
DAV:   1    -0.341657554573E+02    0.26783E-05   -0.11370E-05    48   0.311E-02    0.145E-03
DAV:   2    -0.341657554832E+02   -0.25942E-07   -0.55340E-07    48   0.735E-03    0.792E-04
DAV:   3    -0.341657554930E+02   -0.97782E-08   -0.81709E-08    48   0.229E-03    0.438E-04
DAV:   4    -0.341657555099E+02   -0.16924E-07   -0.61325E-08    48   0.162E-03    0.145E-04
DAV:   5    -0.341657555117E+02   -0.17487E-08   -0.36203E-08    48   0.714E-04    0.921E-05
DAV:   6    -0.341657555178E+02   -0.61150E-08   -0.31777E-08    48   0.333E-04
  54 F= -.34165756E+02 E0= -.34165756E+02  d E =0.262439E-05
       N       E                     dE             d eps       ncg     rms          rms(c)
DAV:   1    -0.341657492744E+02    0.62373E-05   -0.13937E-05    48   0.349E-02    0.151E-03
DAV:   2    -0.341657493078E+02   -0.33374E-07   -0.69821E-07    48   0.829E-03    0.839E-04
DAV:   3    -0.341657493173E+02   -0.95298E-08   -0.93386E-08    48   0.255E-03    0.471E-04
DAV:   4    -0.341657493294E+02   -0.12075E-07   -0.62329E-08    48   0.170E-03    0.150E-04
DAV:   5    -0.341657493287E+02    0.73283E-09   -0.35876E-08    48   0.763E-04    0.950E-05
DAV:   6    -0.341657493301E+02   -0.14122E-08   -0.30701E-08    48   0.359E-04
  55 F= -.34165749E+02 E0= -.34165749E+02  d E =0.618772E-05
       N       E                     dE             d eps       ncg     rms          rms(c)
DAV:   1    -0.341657497362E+02   -0.40748E-06   -0.47684E-07    48   0.621E-03    0.261E-04
DAV:   2    -0.341657497350E+02    0.11898E-08   -0.49534E-08    48   0.144E-03    0.150E-04
DAV:   3    -0.341657497351E+02   -0.12687E-09   -0.31338E-08    48   0.460E-04    0.863E-05
DAV:   4    -0.341657497369E+02   -0.18310E-08   -0.29960E-08    48   0.316E-04    0.298E-05
DAV:   5    -0.341657497380E+02   -0.10350E-08   -0.28902E-08    48   0.143E-04    0.195E-05
DAV:   6    -0.341657497393E+02   -0.13756E-08   -0.28475E-08    48   0.696E-05
  56 F= -.34165750E+02 E0= -.34165750E+02  d E =-.409243E-06
       N       E                     dE             d eps       ncg     rms          rms(c)
DAV:   1    -0.341657505451E+02   -0.80715E-06   -0.16258E-06    48   0.117E-02    0.485E-04
DAV:   2    -0.341657505413E+02    0.38058E-08   -0.10153E-07    48   0.274E-03    0.279E-04
DAV:   3    -0.341657505396E+02    0.16685E-08   -0.36938E-08    48   0.892E-04    0.163E-04
DAV:   4    -0.341657505404E+02   -0.75056E-09   -0.32508E-08    48   0.611E-04    0.565E-05
DAV:   5    -0.341657505416E+02   -0.12287E-08   -0.28802E-08    48   0.277E-04    0.368E-05
DAV:   6    -0.341657505424E+02   -0.76602E-09   -0.28060E-08    48   0.132E-04
  57 F= -.34165751E+02 E0= -.34165751E+02  d E =-.803043E-06
       N       E                     dE             d eps       ncg     rms          rms(c)
DAV:   1    -0.341657523278E+02   -0.17862E-05   -0.26981E-06    48   0.152E-02    0.584E-04
DAV:   2    -0.341657523244E+02    0.33458E-08   -0.15089E-07    48   0.355E-03    0.345E-04
DAV:   3    -0.341657523225E+02    0.19450E-08   -0.42934E-08    48   0.116E-03    0.210E-04
DAV:   4    -0.341657523230E+02   -0.48067E-09   -0.34760E-08    48   0.769E-04    0.717E-05
DAV:   5    -0.341657523245E+02   -0.14963E-08   -0.29008E-08    48   0.354E-04    0.471E-05
DAV:   6    -0.341657523251E+02   -0.60118E-09   -0.27900E-08    48   0.168E-04
  58 F= -.34165752E+02 E0= -.34165752E+02  d E =-.178271E-05
       N       E                     dE             d eps       ncg     rms          rms(c)
DAV:   1    -0.341657560283E+02   -0.37038E-05   -0.31164E-06    48   0.165E-02    0.539E-04
DAV:   2    -0.341657560284E+02   -0.90722E-10   -0.17289E-07    48   0.384E-03    0.332E-04
DAV:   3    -0.341657560277E+02    0.67917E-09   -0.46622E-08    48   0.126E-03    0.217E-04
DAV:   4    -0.341657560285E+02   -0.82036E-09   -0.34295E-08    48   0.743E-04    0.732E-05
DAV:   5    -0.341657560301E+02   -0.15668E-08   -0.29071E-08    48   0.347E-04    0.474E-05
DAV:   6    -0.341657560308E+02   -0.70941E-09   -0.27912E-08    48   0.170E-04
  59 F= -.34165756E+02 E0= -.34165756E+02  d E =-.370573E-05
       N       E                     dE             d eps       ncg     rms          rms(c)
DAV:   1    -0.341657627452E+02   -0.67151E-05   -0.33191E-06    48   0.171E-02    0.470E-04
DAV:   2    -0.341657627523E+02   -0.70513E-08   -0.18698E-07    48   0.403E-03    0.285E-04
DAV:   3    -0.341657627542E+02   -0.19558E-08   -0.49396E-08    48   0.131E-03    0.183E-04
DAV:   4    -0.341657627555E+02   -0.12960E-08   -0.33136E-08    48   0.640E-04    0.675E-05
DAV:   5    -0.341657627563E+02   -0.77205E-09   -0.29124E-08    48   0.312E-04    0.334E-05
DAV:   6    -0.341657627567E+02   -0.47112E-09   -0.28115E-08    48   0.171E-04
  60 F= -.34165763E+02 E0= -.34165763E+02  d E =-.672594E-05
       N       E                     dE             d eps       ncg     rms          rms(c)
DAV:   1    -0.341657736479E+02   -0.10892E-04   -0.43323E-06    48   0.195E-02    0.527E-04
DAV:   2    -0.341657736634E+02   -0.15566E-07   -0.23812E-07    48   0.464E-03    0.306E-04
DAV:   3    -0.341657736692E+02   -0.57387E-08   -0.54149E-08    48   0.144E-03    0.160E-04
DAV:   4    -0.341657736710E+02   -0.18351E-08   -0.34099E-08    48   0.675E-04    0.526E-05
DAV:   5    -0.341657736710E+02   -0.31378E-10   -0.29697E-08    48   0.329E-04    0.306E-05
DAV:   6    -0.341657736709E+02    0.10391E-09   -0.28403E-08    48   0.182E-04
  61 F= -.34165774E+02 E0= -.34165774E+02  d E =-.109142E-04
       N       E                     dE             d eps       ncg     rms          rms(c)
DAV:   1    -0.341657923900E+02   -0.18719E-04   -0.80115E-06    48   0.267E-02    0.759E-04
DAV:   2    -0.341657924190E+02   -0.29074E-07   -0.41422E-07    48   0.628E-03    0.452E-04
DAV:   3    -0.341657924304E+02   -0.11410E-07   -0.72145E-08    48   0.192E-03    0.232E-04
DAV:   4    -0.341657924336E+02   -0.31591E-08   -0.39141E-08    48   0.924E-04    0.790E-05
DAV:   5    -0.341657924328E+02    0.79922E-09   -0.31206E-08    48   0.442E-04    0.510E-05
DAV:   6    -0.341657924324E+02    0.44906E-09   -0.28963E-08    48   0.241E-04
  62 F= -.34165792E+02 E0= -.34165792E+02  d E =-.187614E-04
       N       E                     dE             d eps       ncg     rms          rms(c)
DAV:   1    -0.341658240846E+02   -0.31652E-04   -0.14040E-05    48   0.354E-02    0.105E-03
DAV:   2    -0.341658241306E+02   -0.45966E-07   -0.70213E-07    48   0.831E-03    0.629E-04
DAV:   3    -0.341658241483E+02   -0.17749E-07   -0.10296E-07    48   0.254E-03    0.343E-04
DAV:   4    -0.341658241550E+02   -0.66148E-08   -0.48223E-08    48   0.126E-03    0.123E-04
DAV:   5    -0.341658241537E+02    0.12801E-08   -0.33862E-08    48   0.602E-04    0.788E-05
DAV:   6    -0.341658241530E+02    0.62732E-09   -0.29709E-08    48   0.320E-04
  63 F= -.34165824E+02 E0= -.34165824E+02  d E =-.317207E-04
       N       E                     dE             d eps       ncg     rms          rms(c)
DAV:   1    -0.341658766737E+02   -0.52520E-04   -0.20824E-05    48   0.431E-02    0.127E-03
DAV:   2    -0.341658767391E+02   -0.65334E-07   -0.10231E-06    48   0.101E-02    0.746E-04
DAV:   3    -0.341658767652E+02   -0.26085E-07   -0.14199E-07    48   0.309E-03    0.384E-04
DAV:   4    -0.341658767737E+02   -0.85402E-08   -0.57683E-08    48   0.150E-03    0.132E-04
DAV:   5    -0.341658767730E+02    0.66802E-09   -0.37030E-08    48   0.725E-04    0.855E-05
DAV:   6    -0.341658767729E+02    0.14325E-09   -0.30816E-08    48   0.399E-04
  64 F= -.34165877E+02 E0= -.34165877E+02  d E =-.526198E-04
       N       E                     dE             d eps       ncg     rms          rms(c)
DAV:   1    -0.341659523264E+02   -0.75553E-04   -0.28307E-05    48   0.502E-02    0.142E-03
DAV:   2    -0.341659524147E+02   -0.88319E-07   -0.13723E-06    48   0.118E-02    0.821E-04
DAV:   3    -0.341659524502E+02   -0.35520E-07   -0.19426E-07    48   0.363E-03    0.370E-04
DAV:   4    -0.341659524588E+02   -0.85990E-08   -0.69555E-08    48   0.170E-03    0.122E-04
DAV:   5    -0.341659524602E+02   -0.14043E-08   -0.41174E-08    48   0.845E-04    0.757E-05
DAV:   6    -0.341659524610E+02   -0.75283E-09   -0.32517E-08    48   0.484E-04
  65 F= -.34165952E+02 E0= -.34165952E+02  d E =-.756881E-04
       N       E                     dE             d eps       ncg     rms          rms(c)
DAV:   1    -0.341660531017E+02   -0.10064E-03   -0.42565E-05    48   0.617E-02    0.172E-03
DAV:   2    -0.341660532290E+02   -0.12736E-06   -0.20467E-06    48   0.145E-02    0.101E-03
DAV:   3    -0.341660532736E+02   -0.44533E-07   -0.29458E-07    48   0.457E-03    0.469E-04
DAV:   4    -0.341660532867E+02   -0.13074E-07   -0.94523E-08    48   0.215E-03    0.173E-04
DAV:   5    -0.341660532903E+02   -0.36468E-08   -0.48520E-08    48   0.106E-03    0.887E-05
DAV:   6    -0.341660532922E+02   -0.19259E-08   -0.35205E-08    48   0.616E-04
  66 F= -.34166053E+02 E0= -.34166053E+02  d E =-.100831E-03
       N       E                     dE             d eps       ncg     rms          rms(c)
DAV:   1    -0.341661836028E+02   -0.13031E-03   -0.64206E-05    48   0.758E-02    0.213E-03
DAV:   2    -0.341661837945E+02   -0.19167E-06   -0.30653E-06    48   0.178E-02    0.125E-03
DAV:   3    -0.341661838623E+02   -0.67746E-07   -0.42993E-07    48   0.560E-03    0.565E-04
DAV:   4    -0.341661838815E+02   -0.19251E-07   -0.12891E-07    48   0.263E-03    0.209E-04
DAV:   5    -0.341661838868E+02   -0.53071E-08   -0.59543E-08    48   0.131E-03    0.108E-04
DAV:   6    -0.341661838895E+02   -0.27155E-08   -0.39128E-08    48   0.763E-04
  67 F= -.34166184E+02 E0= -.34166184E+02  d E =-.130597E-03
       N       E                     dE             d eps       ncg     rms          rms(c)
DAV:   1    -0.341663405511E+02   -0.15666E-03   -0.89976E-05    48   0.894E-02    0.260E-03
DAV:   2    -0.341663408198E+02   -0.26869E-06   -0.42721E-06    48   0.210E-02    0.150E-03
DAV:   3    -0.341663409268E+02   -0.10702E-06   -0.55155E-07    48   0.642E-03    0.657E-04
DAV:   4    -0.341663409541E+02   -0.27327E-07   -0.16136E-07    48   0.303E-03    0.220E-04
DAV:   5    -0.341663409589E+02   -0.47803E-08   -0.71176E-08    48   0.152E-03    0.142E-04
DAV:   6    -0.341663409617E+02   -0.28481E-08   -0.43077E-08    48   0.883E-04
  68 F= -.34166341E+02 E0= -.34166341E+02  d E =-.157072E-03
       N       E                     dE             d eps       ncg     rms          rms(c)
DAV:   1    -0.341665212435E+02   -0.18028E-03   -0.12921E-04    64   0.107E-01    0.321E-03
DAV:   2    -0.341665216099E+02   -0.36640E-06   -0.61084E-06    48   0.251E-02    0.187E-03
DAV:   3    -0.341665217533E+02   -0.14337E-06   -0.74336E-07    48   0.760E-03    0.910E-04
DAV:   4    -0.341665218015E+02   -0.48258E-07   -0.21477E-07    48   0.366E-03    0.324E-04
DAV:   5    -0.341665218059E+02   -0.43256E-08   -0.87244E-08    48   0.182E-03    0.208E-04
DAV:   6    -0.341665218104E+02   -0.45459E-08   -0.47759E-08    48   0.104E-03
  69 F= -.34166522E+02 E0= -.34166522E+02  d E =-.180849E-03
       N       E                     dE             d eps       ncg     rms          rms(c)
DAV:   1    -0.341667113825E+02   -0.18958E-03   -0.14830E-04    96   0.112E-01    0.325E-03
DAV:   2    -0.341667113083E+02    0.74214E-07   -0.17833E-06    48   0.114E-02    0.193E-03
DAV:   3    -0.341667114164E+02   -0.10817E-06   -0.29202E-07    48   0.470E-03    0.477E-04
DAV:   4    -0.341667114343E+02   -0.17881E-07   -0.92881E-08    48   0.208E-03    0.242E-04
DAV:   5    -0.341667114448E+02   -0.10430E-07   -0.48636E-08    48   0.108E-03    0.734E-05
DAV:   6    -0.341667114518E+02   -0.70931E-08   -0.35853E-08    48   0.607E-04
  70 F= -.34166711E+02 E0= -.34166711E+02  d E =-.189641E-03
       N       E                     dE             d eps       ncg     rms          rms(c)
DAV:   1    -0.341668864679E+02   -0.17502E-03   -0.17865E-04    96   0.123E-01    0.349E-03
DAV:   2    -0.341668863809E+02    0.86997E-07   -0.21521E-06    48   0.126E-02    0.211E-03
DAV:   3    -0.341668864924E+02   -0.11150E-06   -0.35686E-07    48   0.524E-03    0.679E-04
DAV:   4    -0.341668865270E+02   -0.34596E-07   -0.10647E-07    48   0.240E-03    0.318E-04
DAV:   5    -0.341668865386E+02   -0.11562E-07   -0.48647E-08    48   0.116E-03    0.128E-04
DAV:   6    -0.341668865483E+02   -0.97416E-08   -0.36471E-08    48   0.654E-04
  71 F= -.34166887E+02 E0= -.34166887E+02  d E =-.175096E-03
       N       E                     dE             d eps       ncg     rms          rms(c)
DAV:   1    -0.341668833114E+02    0.32272E-05   -0.79349E-07    48   0.809E-03    0.365E-04
DAV:   2    -0.341668833202E+02   -0.87609E-08   -0.64180E-08    48   0.194E-03    0.197E-04
DAV:   3    -0.341668833278E+02   -0.75902E-08   -0.32260E-08    48   0.616E-04    0.110E-04
DAV:   4    -0.341668833369E+02   -0.90994E-08   -0.30730E-08    48   0.418E-04    0.382E-05
DAV:   5    -0.341668833395E+02   -0.26321E-08   -0.29075E-08    48   0.190E-04    0.240E-05
DAV:   6    -0.341668833456E+02   -0.60945E-08   -0.28752E-08    48   0.927E-05
  72 F= -.34166883E+02 E0= -.34166883E+02  d E =0.320276E-05
       N       E                     dE             d eps       ncg     rms          rms(c)
DAV:   1    -0.341668778718E+02    0.54676E-05   -0.20576E-06    48   0.132E-02    0.614E-04
DAV:   2    -0.341668778803E+02   -0.84092E-08   -0.12248E-07    48   0.313E-03    0.332E-04
DAV:   3    -0.341668778849E+02   -0.46750E-08   -0.37698E-08    48   0.988E-04    0.184E-04
DAV:   4    -0.341668778892E+02   -0.42269E-08   -0.33365E-08    48   0.671E-04    0.610E-05
DAV:   5    -0.341668778892E+02   -0.22737E-12   -0.29146E-08    48   0.297E-04    0.386E-05
DAV:   6    -0.341668778902E+02   -0.10020E-08   -0.28338E-08    48   0.143E-04
  73 F= -.34166878E+02 E0= -.34166878E+02  d E =0.545542E-05
       N       E                     dE             d eps       ncg     rms          rms(c)
DAV:   1    -0.341668718040E+02    0.60851E-05   -0.19576E-06    48   0.130E-02    0.574E-04
DAV:   2    -0.341668718116E+02   -0.75656E-08   -0.12046E-07    48   0.309E-03    0.312E-04
DAV:   3    -0.341668718148E+02   -0.32264E-08   -0.36838E-08    48   0.964E-04    0.174E-04
DAV:   4    -0.341668718171E+02   -0.22528E-08   -0.32106E-08    48   0.619E-04    0.566E-05
DAV:   5    -0.341668718165E+02    0.58458E-09   -0.28710E-08    48   0.280E-04    0.345E-05
DAV:   6    -0.341668718163E+02    0.20827E-09   -0.28007E-08    48   0.133E-04
  74 F= -.34166872E+02 E0= -.34166872E+02  d E =0.607388E-05
