 vasp.5.4.1 24Jun15 (build Jan 13 2020 12:58:22) complex                        
  
 executed on           IFC91_ompi date 2020.02.05  18:18:08
 running on   15 total cores
 each image running on    1 cores
 distrk:  each k-point on    1 cores,    1 groups
 distr:  one band on NCORES_PER_BAND=   1 cores,    1 groups


--------------------------------------------------------------------------------------------------------


 INCAR:
 POTCAR:    PAW_PBE H 15Jun2001                   
 POTCAR:    PAW_PBE C 08Apr2002                   
 POTCAR:    PAW_PBE N 08Apr2002                   
 POTCAR:    PAW_PBE H 15Jun2001                   
   VRHFIN =H: ultrasoft test                                                    
   LEXCH  = PE                                                                  
   EATOM  =    12.4884 eV,    0.9179 Ry                                         
                                                                                
   TITEL  = PAW_PBE H 15Jun2001                                                 
   LULTRA =        F    use ultrasoft PP ?                                      
   IUNSCR =        0    unscreen: 0-lin 1-nonlin 2-no                           
   RPACOR =    0.000    partial core radius                                     
   POMASS =    1.000; ZVAL   =    1.000    mass and valenz                      
   RCORE  =    1.100    outmost cutoff radius                                   
   RWIGS  =    0.700; RWIGS  =    0.370    wigner-seitz radius (au A)           
   ENMAX  =  250.000; ENMIN  =  200.000 eV                                      
   RCLOC  =    0.701    cutoff for local pot                                    
   LCOR   =        T    correct aug charges                                     
   LPAW   =        T    paw PP                                                  
   EAUG   =  400.000                                                            
   RMAX   =    1.123    core radius for proj-oper                               
   RAUG   =    1.200    factor for augmentation sphere                          
   RDEP   =    1.112    radius for radial grids                                 
   RDEPT  =    0.926    core radius for aug-charge                              
                                                                                
   Atomic configuration                                                         
    2 entries                                                                   
     n  l   j            E        occ.                                          
     1  0  0.50        -6.4927   1.0000                                         
     2  1  0.50        -3.4015   0.0000                                         
   Description                                                                  
     l       E           TYP  RCUT    TYP  RCUT                                 
     0     -6.4927494     23  1.100                                             
     0      6.8029130     23  1.100                                             
     1     -4.0817478     23  1.100                                             
  local pseudopotential read in
  atomic valenz-charges read in
  non local Contribution for L=           0  read in
    real space projection operators read in
  non local Contribution for L=           0  read in
    real space projection operators read in
  non local Contribution for L=           1  read in
    real space projection operators read in
    PAW grid and wavefunctions read in
 
   number of l-projection  operators is LMAX  =           3
   number of lm-projection operators is LMMAX =           5
 
 POTCAR:    PAW_PBE C 08Apr2002                   
   VRHFIN =C: s2p2                                                              
   LEXCH  = PE                                                                  
   EATOM  =   147.1560 eV,   10.8157 Ry                                         
                                                                                
   TITEL  = PAW_PBE C 08Apr2002                                                 
   LULTRA =        F    use ultrasoft PP ?                                      
   IUNSCR =        1    unscreen: 0-lin 1-nonlin 2-no                           
   RPACOR =    1.200    partial core radius                                     
   POMASS =   12.011; ZVAL   =    4.000    mass and valenz                      
   RCORE  =    1.500    outmost cutoff radius                                   
   RWIGS  =    1.630; RWIGS  =    0.863    wigner-seitz radius (au A)           
   ENMAX  =  400.000; ENMIN  =  300.000 eV                                      
   ICORE  =        2    local potential                                         
   LCOR   =        T    correct aug charges                                     
   LPAW   =        T    paw PP                                                  
   EAUG   =  644.873                                                            
   DEXC   =    0.000                                                            
   RMAX   =    1.529    core radius for proj-oper                               
   RAUG   =    1.300    factor for augmentation sphere                          
   RDEP   =    1.501    radius for radial grids                                 
   RDEPT  =    1.300    core radius for aug-charge                              
                                                                                
   Atomic configuration                                                         
    4 entries                                                                   
     n  l   j            E        occ.                                          
     1  0  0.50      -273.3789   2.0000                                         
     2  0  0.50       -13.7508   2.0000                                         
     2  1  0.50        -5.2854   2.0000                                         
     3  2  1.50        -5.4423   0.0000                                         
   Description                                                                  
     l       E           TYP  RCUT    TYP  RCUT                                 
     0    -13.7508458     23  1.200                                             
     0     -8.2022199     23  1.200                                             
     1     -5.2854383     23  1.500                                             
     1     34.0145650     23  1.500                                             
     2     -5.4423304      7  1.500                                             
  local pseudopotential read in
  partial core-charges read in
  partial kinetic energy density read in
  atomic valenz-charges read in
  non local Contribution for L=           0  read in
    real space projection operators read in
  non local Contribution for L=           0  read in
    real space projection operators read in
  non local Contribution for L=           1  read in
    real space projection operators read in
  non local Contribution for L=           1  read in
    real space projection operators read in
    PAW grid and wavefunctions read in
 
   number of l-projection  operators is LMAX  =           4
   number of lm-projection operators is LMMAX =           8
 
 POTCAR:    PAW_PBE N 08Apr2002                   
   VRHFIN =N: s2p3                                                              
   LEXCH  = PE                                                                  
   EATOM  =   264.5486 eV,   19.4438 Ry                                         
                                                                                
   TITEL  = PAW_PBE N 08Apr2002                                                 
   LULTRA =        F    use ultrasoft PP ?                                      
   IUNSCR =        1    unscreen: 0-lin 1-nonlin 2-no                           
   RPACOR =    1.200    partial core radius                                     
   POMASS =   14.001; ZVAL   =    5.000    mass and valenz                      
   RCORE  =    1.500    outmost cutoff radius                                   
   RWIGS  =    1.400; RWIGS  =    0.741    wigner-seitz radius (au A)           
   ENMAX  =  400.000; ENMIN  =  300.000 eV                                      
   ICORE  =        2    local potential                                         
   LCOR   =        T    correct aug charges                                     
   LPAW   =        T    paw PP                                                  
   EAUG   =  627.112                                                            
   DEXC   =    0.000                                                            
   RMAX   =    1.529    core radius for proj-oper                               
   RAUG   =    1.300    factor for augmentation sphere                          
   RDEP   =    1.514    radius for radial grids                                 
   RDEPT  =    1.338    core radius for aug-charge                              
                                                                                
   Atomic configuration                                                         
    4 entries                                                                   
     n  l   j            E        occ.                                          
     1  0  0.50      -384.7179   2.0000                                         
     2  0  0.50       -18.5828   2.0000                                         
     2  1  0.50        -7.0898   3.0000                                         
     3  2  1.50        -6.8029   0.0000                                         
   Description                                                                  
     l       E           TYP  RCUT    TYP  RCUT                                 
     0    -18.5828119     23  1.200                                             
     0    -13.5018863     23  1.200                                             
     1     -7.0897853     23  1.500                                             
     1      9.5240782     23  1.500                                             
     2     -6.8029130      7  1.500                                             
  local pseudopotential read in
  partial core-charges read in
  partial kinetic energy density read in
  atomic valenz-charges read in
  non local Contribution for L=           0  read in
    real space projection operators read in
  non local Contribution for L=           0  read in
    real space projection operators read in
  non local Contribution for L=           1  read in
    real space projection operators read in
  non local Contribution for L=           1  read in
    real space projection operators read in
    PAW grid and wavefunctions read in
 
   number of l-projection  operators is LMAX  =           4
   number of lm-projection operators is LMMAX =           8
 

 ----------------------------------------------------------------------------- 
|                                                                             |
|  ADVICE TO THIS USER RUNNING 'VASP/VAMP'   (HEAR YOUR MASTER'S VOICE ...):  |
|                                                                             |
|      You have a (more or less) 'small supercell' and for smaller cells      |
|      it is recommended  to use the reciprocal-space projection scheme!      |
|      The real space optimization is not  efficient for small cells and it   |
|      is also less accurate ...                                              |
|      Therefore set LREAL=.FALSE. in the  INCAR file                         |
|                                                                             |
 ----------------------------------------------------------------------------- 

 Optimization of the real space projectors (new method)

 maximal supplied QI-value         = 34.20
 optimisation between [QCUT,QGAM] = [  9.92, 20.18] = [ 27.55,114.04] Ry 
 Optimized for a Real-space Cutoff    1.26 Angstroem

   l    n(q)    QCUT    max X(q) W(low)/X(q) W(high)/X(q)  e(spline) 
   0      8     9.919    19.460    0.50E-03    0.23E-03    0.29E-06
   0      8     9.919    12.209    0.48E-03    0.23E-03    0.28E-06
   1      7     9.919     4.655    0.17E-03    0.75E-03    0.30E-06
 Optimization of the real space projectors (new method)

 maximal supplied QI-value         = 25.13
 optimisation between [QCUT,QGAM] = [ 10.05, 20.36] = [ 28.30,116.06] Ry 
 Optimized for a Real-space Cutoff    1.30 Angstroem

   l    n(q)    QCUT    max X(q) W(low)/X(q) W(high)/X(q)  e(spline) 
   0      8    10.053   115.676    0.49E-03    0.72E-03    0.18E-06
   0      8    10.053    87.132    0.49E-03    0.71E-03    0.18E-06
   1      7    10.053     4.429    0.32E-03    0.31E-03    0.18E-06
   1      7    10.053     2.733    0.23E-03    0.19E-03    0.20E-06
 Optimization of the real space projectors (new method)

 maximal supplied QI-value         = 25.13
 optimisation between [QCUT,QGAM] = [ 10.05, 20.36] = [ 28.30,116.06] Ry 
 Optimized for a Real-space Cutoff    1.65 Angstroem

   l    n(q)    QCUT    max X(q) W(low)/X(q) W(high)/X(q)  e(spline) 
   0     10    10.053    79.467    0.76E-04    0.72E-04    0.56E-06
   0     10    10.053    66.151    0.76E-04    0.72E-04    0.55E-06
   1     10    10.053     8.350    0.25E-03    0.92E-03    0.41E-05
   1     10    10.053     5.531    0.27E-03    0.10E-02    0.45E-05
  PAW_PBE H 15Jun2001                   :
 energy of atom  1       EATOM=  -12.4884
 kinetic energy error for atom=    0.0098 (will be added to EATOM!!)
  PAW_PBE C 08Apr2002                   :
 energy of atom  2       EATOM= -147.1560
 kinetic energy error for atom=    0.0288 (will be added to EATOM!!)
  PAW_PBE N 08Apr2002                   :
 energy of atom  3       EATOM= -264.5486
 kinetic energy error for atom=    0.0736 (will be added to EATOM!!)
 
 
 POSCAR: H3 C2 N1                                
  positions in direct lattice
  velocities in cartesian coordinates
 exchange correlation table for  LEXCH =        8
   RHO(1)=    0.500       N(1)  =     2000
   RHO(2)=  100.500       N(2)  =     4000

 VTST: version 3.2, (02/03/18)

 CHAIN: initializing optimizer
 
 OPT: Using FIRE optimizer
 OPT: FIRE, Init
 OPT: FIRE, MAXMOVE       0.20000
 OPT: FIRE, TIMESTEP      0.10000
 OPT: FIRE, FTIMEMAX      1.00000
 OPT: FIRE, FTIMEINC      1.10000
 OPT: FIRE, FTIMEDEC      0.50000
 OPT: FIRE, FALPHADEC     0.99000
 OPT: FIRE, FALPHA        0.10000
 OPT: FIRE, FNMIN         5
 
 CHAIN: Read ICHAIN            0
 CHAIN: Running the NEB
 NEB:          SPRING     -5.000000
 NEB:          LCLIMB      T
 NEB:     LTANGENTOLD      F
 NEB:           LDNEB      F
 NEB:        LDNEBORG      F
 NEB:        LNEBCELL      F
 NEB:          EFIRST      0.000000
 NEB:           ELAST      0.000000
 
 POSCAR: H3 C2 N1                                
  positions in direct lattice
  No initial velocities read in
 
 POSCAR: H3 C2 N1                                
  positions in direct lattice
  No initial velocities read in
 


--------------------------------------------------------------------------------------------------------


 ion  position               nearest neighbor table
   1  0.475  0.465  0.507-   4 1.09
   2  0.474  0.511  0.466-   4 1.09
   3  0.477  0.522  0.525-   4 1.11
   4  0.486  0.498  0.498-   1 1.09   2 1.09   3 1.11   5 1.66
   5  0.540  0.489  0.488-   6 1.19   4 1.66
   6  0.548  0.515  0.516-   5 1.19
 
  LATTYP: Found a simple cubic cell.
 ALAT       =    30.0000000000
  
  Lattice vectors:
  
 A1 = (  30.0000000000,   0.0000000000,   0.0000000000)
 A2 = (   0.0000000000,  30.0000000000,   0.0000000000)
 A3 = (   0.0000000000,   0.0000000000,  30.0000000000)


Analysis of symmetry for initial positions (statically):
=====================================================================
 Subroutine PRICEL returns:
 Original cell was already a primitive cell.
 

 Routine SETGRP: Setting up the symmetry group for a 
 simple cubic supercell.


 Subroutine GETGRP returns: Found  1 space group operations
 (whereof  1 operations were pure point group operations)
 out of a pool of 48 trial point group operations.


The static configuration has the point symmetry C_1 .


Analysis of symmetry for dynamics (positions and initial velocities):
=====================================================================
 Subroutine PRICEL returns:
 Original cell was already a primitive cell.
 

 Routine SETGRP: Setting up the symmetry group for a 
 simple cubic supercell.


 Subroutine GETGRP returns: Found  1 space group operations
 (whereof  1 operations were pure point group operations)
 out of a pool of 48 trial point group operations.


The dynamic configuration has the point symmetry C_1 .
 
 
 KPOINTS: Mo2C                                    

Automatic generation of k-mesh.
Space group operators:
 irot       det(A)        alpha          n_x          n_y          n_z        tau_x        tau_y        tau_z
    1     1.000000     0.000000     1.000000     0.000000     0.000000     0.000000     0.000000     0.000000
 
 Subroutine IBZKPT returns following result:
 ===========================================
 
 Found      4 irreducible k-points:
 
 Following reciprocal coordinates:
            Coordinates               Weight
  0.250000  0.250000  0.250000      2.000000
 -0.250000  0.250000  0.250000      2.000000
  0.250000 -0.250000  0.250000      2.000000
 -0.250000 -0.250000  0.250000      2.000000
 
 Following cartesian coordinates:
            Coordinates               Weight
  0.008333  0.008333  0.008333      2.000000
 -0.008333  0.008333  0.008333      2.000000
  0.008333 -0.008333  0.008333      2.000000
 -0.008333 -0.008333  0.008333      2.000000
 


--------------------------------------------------------------------------------------------------------




 Dimension of arrays:
   k-points           NKPTS =      4   k-points in BZ     NKDIM =      4   number of bands    NBANDS=     12
   number of dos      NEDOS =    301   number of ions     NIONS =      6
   non local maximal  LDIM  =      4   non local SUM 2l+1 LMDIM =      8
   total plane-waves  NPLWV = ******
   max r-space proj   IRMAX =   2395   max aug-charges    IRDMAX=   1738
   dimension x,y,z NGX =   150 NGY =  150 NGZ =  150
   dimension x,y,z NGXF=   300 NGYF=  300 NGZF=  300
   support grid    NGXF=   300 NGYF=  300 NGZF=  300
   ions per type =               3   2   1
 NGX,Y,Z   is equivalent  to a cutoff of   8.31,  8.31,  8.31 a.u.
 NGXF,Y,Z  is equivalent  to a cutoff of  16.62, 16.62, 16.62 a.u.


 I would recommend the setting:
   dimension x,y,z NGX =   147 NGY =  147 NGZ =  147
 SYSTEM =  unknown system                          
 POSCAR =  H3 C2 N1                                

 Startparameter for this run:
   NWRITE =      2    write-flag & timer
   PREC   = normal    normal or accurate (medium, high low for compatibility)
   ISTART =      0    job   : 0-new  1-cont  2-samecut
   ICHARG =      2    charge: 1-file 2-atom 10-const
   ISPIN  =      1    spin polarized calculation?
   LNONCOLLINEAR =      F non collinear calculations
   LSORBIT =      F    spin-orbit coupling
   INIWAV =      1    electr: 0-lowe 1-rand  2-diag
   LASPH  =      F    aspherical Exc in radial PAW
   METAGGA=      F    non-selfconsistent MetaGGA calc.

 Electronic Relaxation 1
   ENCUT  =  400.0 eV  29.40 Ry    5.42 a.u.  48.92 48.92 48.92*2*pi/ulx,y,z
   ENINI  =  400.0     initial cutoff
   ENAUG  =  644.9 eV  augmentation charge cutoff
   NELM   =    500;   NELMIN=  6; NELMDL= -5     # of ELM steps 
   EDIFF  = 0.1E-03   stopping-criterion for ELM
   LREAL  =      T    real-space projection
   NLSPLINE    = F    spline interpolate recip. space projectors
   LCOMPAT=      F    compatible to vasp.4.4
   GGA_COMPAT  = T    GGA compatible to vasp.4.4-vasp.4.6
   LMAXPAW     = -100 max onsite density
   LMAXMIX     =    2 max onsite mixed and CHGCAR
   VOSKOWN=      0    Vosko Wilk Nusair interpolation
   ROPT   =   -0.00050  -0.00050  -0.00050
 Ionic relaxation
   EDIFFG = -.1E+00   stopping-criterion for IOM
   NSW    =    300    number of steps for IOM
   NBLOCK =      1;   KBLOCK =    300    inner block; outer block 
   IBRION =      3    ionic relax: 0-MD 1-quasi-New 2-CG
   NFREE  =      0    steps in history (QN), initial steepest desc. (CG)
   ISIF   =      2    stress and relaxation
   IWAVPR =     11    prediction:  0-non 1-charg 2-wave 3-comb
   ISYM   =      2    0-nonsym 1-usesym 2-fastsym
   LCORR  =      T    Harris-Foulkes like correction to forces

   POTIM  = 0.0000    time-step for ionic-motion
   TEIN   =    0.0    initial temperature
   TEBEG  =    0.0;   TEEND  =   0.0 temperature during run
   SMASS  =   2.00    Nose mass-parameter (am)
   estimated Nose-frequenzy (Omega)   =  0.12E+10 period in steps =  0.00 mass=   0.137E-25a.u.
   SCALEE = 1.0000    scale energy and forces
   NPACO  =    256;   APACO  = 16.0  distance and # of slots for P.C.
   PSTRESS=    0.0 pullay stress

  Mass of Ions in am
   POMASS =   1.00 12.01 14.00
  Ionic Valenz
   ZVAL   =   1.00  4.00  5.00
  Atomic Wigner-Seitz radii
   RWIGS  =  -1.00 -1.00 -1.00
  virtual crystal weights 
   VCA    =   1.00  1.00  1.00
   NELECT =      16.0000    total number of electrons
   NUPDOWN=      -1.0000    fix difference up-down

 DOS related values:
   EMIN   =  10.00;   EMAX   =-10.00  energy-range for DOS
   EFERMI =   0.00
   ISMEAR =     0;   SIGMA  =   0.20  broadening in eV -4-tet -1-fermi 0-gaus

 Electronic relaxation 2 (details)
   IALGO  =     38    algorithm
   LDIAG  =      T    sub-space diagonalisation (order eigenvalues)
   LSUBROT=      F    optimize rotation matrix (better conditioning)
   TURBO    =      0    0=normal 1=particle mesh
   IRESTART =      0    0=no restart 2=restart with 2 vectors
   NREBOOT  =      0    no. of reboots
   NMIN     =      0    reboot dimension
   EREF     =   0.00    reference energy to select bands
   IMIX   =      4    mixing-type and parameters
     AMIX     =   0.40;   BMIX     =  1.00
     AMIX_MAG =   1.60;   BMIX_MAG =  1.00
     AMIN     =   0.10
     WC   =   100.;   INIMIX=   1;  MIXPRE=   1;  MAXMIX= -45

 Intra band minimization:
   WEIMIN = 0.0010     energy-eigenvalue tresh-hold
   EBREAK =  0.21E-05  absolut break condition
   DEPER  =   0.30     relativ break condition  

   TIME   =   0.40     timestep for ELM

  volume/ion in A,a.u.               =    4500.00     30367.50
  Fermi-wavevector in a.u.,A,eV,Ry     =   0.137508  0.259852  0.257264  0.018908
  Thomas-Fermi vector in A             =   0.790710
 
 Write flags
   LWAVE  =      F    write WAVECAR
   LCHARG =      F    write CHGCAR
   LVTOT  =      F    write LOCPOT, total local potential
   LVHAR  =      F    write LOCPOT, Hartree potential only
   LELF   =      F    write electronic localiz. function (ELF)
   LORBIT =      0    0 simple, 1 ext, 2 COOP (PROOUT)


 Dipole corrections
   LMONO  =      F    monopole corrections only (constant potential shift)
   LDIPOL =      F    correct potential (dipole corrections)
   IDIPOL =      0    1-x, 2-y, 3-z, 4-all directions 
   EPSILON=  1.0000000 bulk dielectric constant

 Exchange correlation treatment:
   GGA     =    PE    GGA type
   LEXCH   =     8    internal setting for exchange type
   VOSKOWN=      0    Vosko Wilk Nusair interpolation
   LHFCALC =     F    Hartree Fock is set to
   LHFONE  =     F    Hartree Fock one center treatment
   AEXX    =    0.0000 exact exchange contribution

 Linear response parameters
   LEPSILON=     F    determine dielectric tensor
   LRPA    =     F    only Hartree local field effects (RPA)
   LNABLA  =     F    use nabla operator in PAW spheres
   LVEL    =     F    velocity operator in full k-point grid
   LINTERFAST=   F  fast interpolation
   KINTER  =     0    interpolate to denser k-point grid
   CSHIFT  =0.1000    complex shift for real part using Kramers Kronig
   OMEGAMAX=  -1.0    maximum frequency
   DEG_THRESHOLD= 0.2000000E-02 threshold for treating states as degnerate
   RTIME   =    0.100 relaxation time in fs

 Orbital magnetization related:
   ORBITALMAG=     F  switch on orbital magnetization
   LCHIMAG   =     F  perturbation theory with respect to B field
   DQ        =  0.001000  dq finite difference perturbation B field



--------------------------------------------------------------------------------------------------------


 quickmin algorithm: (dynamic with friction)
 charge density and potential will be updated during run
 non-spin polarized calculation
 Variant of blocked Davidson
 Davidson routine will perform the subspace rotation
 perform sub-space diagonalisation
    after iterative eigenvector-optimisation
 modified Broyden-mixing scheme, WC =      100.0
 initial mixing is a Kerker type mixing with AMIX =  0.4000 and BMIX =      1.0000
 Hartree-type preconditioning will be used
 using additional bands            4
 real space projection scheme for non local part
 use partial core corrections
 calculate Harris-corrections to forces 
   (improved forces if not selfconsistent)
 use gradient corrections 
 use of overlap-Matrix (Vanderbilt PP)
 Gauss-broadening in eV      SIGMA  =   0.20


--------------------------------------------------------------------------------------------------------


  energy-cutoff  :      400.00
  volume of cell :    27000.00
      direct lattice vectors                 reciprocal lattice vectors
    30.000000000  0.000000000  0.000000000     0.033333333  0.000000000  0.000000000
     0.000000000 30.000000000  0.000000000     0.000000000  0.033333333  0.000000000
     0.000000000  0.000000000 30.000000000     0.000000000  0.000000000  0.033333333

  length of vectors
    30.000000000 30.000000000 30.000000000     0.033333333  0.033333333  0.033333333


 
 k-points in units of 2pi/SCALE and weight: Mo2C                                    
   0.00833333  0.00833333  0.00833333       0.250
  -0.00833333  0.00833333  0.00833333       0.250
   0.00833333 -0.00833333  0.00833333       0.250
  -0.00833333 -0.00833333  0.00833333       0.250
 
 k-points in reciprocal lattice and weights: Mo2C                                    
   0.25000000  0.25000000  0.25000000       0.250
  -0.25000000  0.25000000  0.25000000       0.250
   0.25000000 -0.25000000  0.25000000       0.250
  -0.25000000 -0.25000000  0.25000000       0.250
 
 position of ions in fractional coordinates (direct lattice) 
   0.47465937  0.46496028  0.50677591
   0.47443688  0.51078476  0.46617119
   0.47694457  0.52188507  0.52485678
   0.48614628  0.49824419  0.49811669
   0.53964677  0.48912075  0.48759520
   0.54818859  0.51499376  0.51646422
 
 position of ions in cartesian coordinates  (Angst):
  14.23978106 13.94880836 15.20327740
  14.23310648 15.32354269 13.98513556
  14.30833714 15.65655204 15.74570344
  14.58438845 14.94732569 14.94350080
  16.18940309 14.67362244 14.62785609
  16.44565757 15.44981289 15.49392668
 


--------------------------------------------------------------------------------------------------------


 k-point  1 :   0.2500 0.2500 0.2500  plane waves:  490454
 k-point  2 :  -0.2500 0.2500 0.2500  plane waves:  490454
 k-point  3 :   0.2500-0.2500 0.2500  plane waves:  490454
 k-point  4 :  -0.2500-0.2500 0.2500  plane waves:  490454

 maximum and minimum number of plane-waves per node :    490454   490454

 maximum number of plane-waves:    490454
 maximum index in each direction: 
   IXMAX=   49   IYMAX=   49   IZMAX=   48
   IXMIN=  -49   IYMIN=  -49   IZMIN=  -49

 WARNING: aliasing errors must be expected set NGX to 198 to avoid them
 WARNING: aliasing errors must be expected set NGY to 198 to avoid them
 WARNING: aliasing errors must be expected set NGZ to 196 to avoid them
 aliasing errors are usually negligible using standard VASP settings
 and one can safely disregard these warnings

 serial   3D FFT for wavefunctions
 parallel 3D FFT for charge:
    minimum data exchange during FFTs selected (reduces bandwidth)


 total amount of memory used by VASP on root node  3203889. kBytes
========================================================================

   base      :      30000. kBytes
   nonlr-proj:        693. kBytes
   fftplans  :     924480. kBytes
   grid      :    1872000. kBytes
   one-center:         18. kBytes
   wavefun   :     376698. kBytes
 
     INWAV:  cpu time    0.0010: real time    0.0008
 Broyden mixing: mesh for mixing (old mesh)
   NGX = 97   NGY = 97   NGZ = 97
  (NGX  =300   NGY  =300   NGZ  =300)
  gives a total of 912673 points

 initial charge density was supplied:
 charge density of overlapping atoms calculated
 number of electron      16.0000000 magnetization 
 keeping initial charge density in first step


--------------------------------------------------------------------------------------------------------


 Maximum index for non-local projection operator         2276
 Maximum index for augmentation-charges         1497 (set IRDMAX)


--------------------------------------------------------------------------------------------------------


 First call to EWALD:  gamma=   0.059
 Maximum number of real-space cells 3x 3x 3
 Maximum number of reciprocal cells 3x 3x 3

 FEWALD executed in parallel
    FEWALD:  cpu time    0.0020: real time    0.0021


----------------------------------------- Iteration    1(   1)  ---------------------------------------


    POTLOK:  cpu time   30.6363: real time   30.7038
    SETDIJ:  cpu time    0.0060: real time    0.0066
     EDDAV:  cpu time  140.1397: real time  140.5016
       DOS:  cpu time    0.0000: real time    0.0003
    --------------------------------------------
      LOOP:  cpu time  170.7860: real time  171.2196

 eigenvalue-minimisations  :   160
 total energy-change (2. order) : 0.1093235E+03  (-0.2126011E+03)
 number of electron      16.0000000 magnetization 
 augmentation part       16.0000000 magnetization 

 Free energy of the ion-electron system (eV)
  ---------------------------------------------------
  alpha Z        PSCENC =         0.04144063
  Ewald energy   TEWEN  =       696.69288585
  -Hartree energ DENC   =     -1116.40900551
  -exchange      EXHF   =         0.00000000
  -V(xc)+E(xc)   XCENC  =        51.15494464
  PAW double counting   =       428.37890668     -430.73533574
  entropy T*S    EENTRO =        -0.23873639
  eigenvalues    EBANDS =      -115.72696688
  atomic energy  EATOM  =       596.16534815
  Solvation  Ediel_sol  =         0.00000000
  ---------------------------------------------------
  free energy    TOTEN  =       109.32348142 eV

  energy without entropy =      109.56221781  energy(sigma->0) =      109.44284962


--------------------------------------------------------------------------------------------------------




----------------------------------------- Iteration    1(   2)  ---------------------------------------


     EDDAV:  cpu time  162.8312: real time  163.2659
       DOS:  cpu time    0.0000: real time    0.0002
    --------------------------------------------
      LOOP:  cpu time  162.8342: real time  163.2719

 eigenvalue-minimisations  :   192
 total energy-change (2. order) :-0.1075986E+03  (-0.1041567E+03)
 number of electron      16.0000000 magnetization 
 augmentation part       16.0000000 magnetization 

 Free energy of the ion-electron system (eV)
  ---------------------------------------------------
  alpha Z        PSCENC =         0.04144063
  Ewald energy   TEWEN  =       696.69288585
  -Hartree energ DENC   =     -1116.40900551
  -exchange      EXHF   =         0.00000000
  -V(xc)+E(xc)   XCENC  =        51.15494464
  PAW double counting   =       428.37890668     -430.73533574
  entropy T*S    EENTRO =         0.00000000
  eigenvalues    EBANDS =      -223.56425363
  atomic energy  EATOM  =       596.16534815
  Solvation  Ediel_sol  =         0.00000000
  ---------------------------------------------------
  free energy    TOTEN  =         1.72493106 eV

  energy without entropy =        1.72493106  energy(sigma->0) =        1.72493106


--------------------------------------------------------------------------------------------------------




----------------------------------------- Iteration    1(   3)  ---------------------------------------


     EDDAV:  cpu time  121.7365: real time  122.1215
       DOS:  cpu time    0.0000: real time    0.0002
    --------------------------------------------
      LOOP:  cpu time  121.7385: real time  122.1262

 eigenvalue-minimisations  :   128
 total energy-change (2. order) :-0.3564529E+02  (-0.3535058E+02)
 number of electron      16.0000000 magnetization 
 augmentation part       16.0000000 magnetization 

 Free energy of the ion-electron system (eV)
  ---------------------------------------------------
  alpha Z        PSCENC =         0.04144063
  Ewald energy   TEWEN  =       696.69288585
  -Hartree energ DENC   =     -1116.40900551
  -exchange      EXHF   =         0.00000000
  -V(xc)+E(xc)   XCENC  =        51.15494464
  PAW double counting   =       428.37890668     -430.73533574
  entropy T*S    EENTRO =         0.00000000
  eigenvalues    EBANDS =      -259.20953966
  atomic energy  EATOM  =       596.16534815
  Solvation  Ediel_sol  =         0.00000000
  ---------------------------------------------------
  free energy    TOTEN  =       -33.92035497 eV

  energy without entropy =      -33.92035497  energy(sigma->0) =      -33.92035497


--------------------------------------------------------------------------------------------------------




----------------------------------------- Iteration    1(   4)  ---------------------------------------


     EDDAV:  cpu time   97.5072: real time   97.8033
       DOS:  cpu time    0.0000: real time    0.0002
    --------------------------------------------
      LOOP:  cpu time   97.5082: real time   97.8078

 eigenvalue-minimisations  :   104
 total energy-change (2. order) :-0.3255113E+01  (-0.3193934E+01)
 number of electron      16.0000000 magnetization 
 augmentation part       16.0000000 magnetization 

 Free energy of the ion-electron system (eV)
  ---------------------------------------------------
  alpha Z        PSCENC =         0.04144063
  Ewald energy   TEWEN  =       696.69288585
  -Hartree energ DENC   =     -1116.40900551
  -exchange      EXHF   =         0.00000000
  -V(xc)+E(xc)   XCENC  =        51.15494464
  PAW double counting   =       428.37890668     -430.73533574
  entropy T*S    EENTRO =         0.00000000
  eigenvalues    EBANDS =      -262.46465229
  atomic energy  EATOM  =       596.16534815
  Solvation  Ediel_sol  =         0.00000000
  ---------------------------------------------------
  free energy    TOTEN  =       -37.17546760 eV

  energy without entropy =      -37.17546760  energy(sigma->0) =      -37.17546760


--------------------------------------------------------------------------------------------------------




----------------------------------------- Iteration    1(   5)  ---------------------------------------


     EDDAV:  cpu time  141.0246: real time  141.4210
       DOS:  cpu time    0.0000: real time    0.0002
    CHARGE:  cpu time    8.9526: real time    8.9744
    MIXING:  cpu time    0.7629: real time    0.7642
    --------------------------------------------
      LOOP:  cpu time  150.7421: real time  158.3080

 eigenvalue-minimisations  :   160
 total energy-change (2. order) :-0.1061817E+00  (-0.1057743E+00)
 number of electron      15.9999993 magnetization 
 augmentation part        0.4518299 magnetization 

 Broyden mixing:
  rms(total) = 0.10363E+01    rms(broyden)= 0.10347E+01
  rms(prec ) = 0.10695E+01
  weight for this iteration     100.00

 Free energy of the ion-electron system (eV)
  ---------------------------------------------------
  alpha Z        PSCENC =         0.04144063
  Ewald energy   TEWEN  =       696.69288585
  -Hartree energ DENC   =     -1116.40900551
  -exchange      EXHF   =         0.00000000
  -V(xc)+E(xc)   XCENC  =        51.15494464
  PAW double counting   =       428.37890668     -430.73533574
  entropy T*S    EENTRO =         0.00000000
  eigenvalues    EBANDS =      -262.57083402
  atomic energy  EATOM  =       596.16534815
  Solvation  Ediel_sol  =         0.00000000
  ---------------------------------------------------
  free energy    TOTEN  =       -37.28164933 eV

  energy without entropy =      -37.28164933  energy(sigma->0) =      -37.28164933


--------------------------------------------------------------------------------------------------------




----------------------------------------- Iteration    1(   6)  ---------------------------------------


    POTLOK:  cpu time   31.2462: real time   31.3161
    SETDIJ:  cpu time    0.0070: real time    0.0065
     EDDAV:  cpu time  105.7969: real time  106.0284
       DOS:  cpu time    0.0000: real time    0.0002
    CHARGE:  cpu time    9.0666: real time    9.0876
    MIXING:  cpu time    0.8769: real time    0.8794
    --------------------------------------------
      LOOP:  cpu time  146.9957: real time  159.4573

 eigenvalue-minimisations  :   120
 total energy-change (2. order) : 0.2431317E+01  (-0.4109065E+00)
 number of electron      15.9999994 magnetization 
 augmentation part        0.4071285 magnetization 

 Broyden mixing:
  rms(total) = 0.57020E+00    rms(broyden)= 0.57004E+00
  rms(prec ) = 0.58457E+00
  weight for this iteration     100.00

 eigenvalues of (default mixing * dielectric matrix)
  average eigenvalue GAMMA=   1.6240
  1.6240

 Free energy of the ion-electron system (eV)
  ---------------------------------------------------
  alpha Z        PSCENC =         0.04144063
  Ewald energy   TEWEN  =       696.69288585
  -Hartree energ DENC   =     -1143.81673388
  -exchange      EXHF   =         0.00000000
  -V(xc)+E(xc)   XCENC  =        52.67363929
  PAW double counting   =       685.41104647     -688.03003206
  entropy T*S    EENTRO =         0.00000000
  eigenvalues    EBANDS =      -233.98792659
  atomic energy  EATOM  =       596.16534815
  Solvation  Ediel_sol  =         0.00000000
  ---------------------------------------------------
  free energy    TOTEN  =       -34.85033215 eV

  energy without entropy =      -34.85033215  energy(sigma->0) =      -34.85033215


--------------------------------------------------------------------------------------------------------




----------------------------------------- Iteration    1(   7)  ---------------------------------------


    POTLOK:  cpu time   30.9293: real time   30.9982
    SETDIJ:  cpu time    0.0070: real time    0.0067
     EDDAV:  cpu time  121.9315: real time  122.2027
       DOS:  cpu time    0.0000: real time    0.0002
    CHARGE:  cpu time    8.9836: real time    9.0061
    MIXING:  cpu time    0.9209: real time    0.9233
    --------------------------------------------
      LOOP:  cpu time  162.7753: real time  163.1426

 eigenvalue-minimisations  :   128
 total energy-change (2. order) : 0.6077982E+00  (-0.1626162E+00)
 number of electron      15.9999993 magnetization 
 augmentation part        0.4041223 magnetization 

 Broyden mixing:
  rms(total) = 0.22907E+00    rms(broyden)= 0.22901E+00
  rms(prec ) = 0.23534E+00
  weight for this iteration     100.00

 eigenvalues of (default mixing * dielectric matrix)
  average eigenvalue GAMMA=   1.4948
  0.9496  2.0400

 Free energy of the ion-electron system (eV)
  ---------------------------------------------------
  alpha Z        PSCENC =         0.04144063
  Ewald energy   TEWEN  =       696.69288585
  -Hartree energ DENC   =     -1163.04417576
  -exchange      EXHF   =         0.00000000
  -V(xc)+E(xc)   XCENC  =        53.83924358
  PAW double counting   =      1010.35908300    -1013.11126594
  entropy T*S    EENTRO =         0.00000000
  eigenvalues    EBANDS =      -215.18509349
  atomic energy  EATOM  =       596.16534815
  Solvation  Ediel_sol  =         0.00000000
  ---------------------------------------------------
  free energy    TOTEN  =       -34.24253399 eV

  energy without entropy =      -34.24253399  energy(sigma->0) =      -34.24253399


--------------------------------------------------------------------------------------------------------




----------------------------------------- Iteration    1(   8)  ---------------------------------------


    POTLOK:  cpu time   31.2363: real time   31.3051
    SETDIJ:  cpu time    0.0070: real time    0.0067
     EDDAV:  cpu time  122.0984: real time  122.3689
       DOS:  cpu time    0.0000: real time    0.0002
    CHARGE:  cpu time    8.5657: real time    8.5847
    MIXING:  cpu time    0.9499: real time    0.9517
    --------------------------------------------
      LOOP:  cpu time  162.8582: real time  163.2221

 eigenvalue-minimisations  :   128
 total energy-change (2. order) : 0.7638855E-01  (-0.1661685E-01)
 number of electron      15.9999994 magnetization 
 augmentation part        0.3899372 magnetization 

 Broyden mixing:
  rms(total) = 0.97220E-01    rms(broyden)= 0.97183E-01
  rms(prec ) = 0.10099E+00
  weight for this iteration     100.00

 eigenvalues of (default mixing * dielectric matrix)
  average eigenvalue GAMMA=   1.4962
  2.2955  1.4705  0.7225

 Free energy of the ion-electron system (eV)
  ---------------------------------------------------
  alpha Z        PSCENC =         0.04144063
  Ewald energy   TEWEN  =       696.69288585
  -Hartree energ DENC   =     -1169.24760002
  -exchange      EXHF   =         0.00000000
  -V(xc)+E(xc)   XCENC  =        54.24221137
  PAW double counting   =      1154.24774628    -1157.01428385
  entropy T*S    EENTRO =         0.00000000
  eigenvalues    EBANDS =      -209.29389384
  atomic energy  EATOM  =       596.16534815
  Solvation  Ediel_sol  =         0.00000000
  ---------------------------------------------------
  free energy    TOTEN  =       -34.16614544 eV

  energy without entropy =      -34.16614544  energy(sigma->0) =      -34.16614544


--------------------------------------------------------------------------------------------------------




----------------------------------------- Iteration    1(   9)  ---------------------------------------


    POTLOK:  cpu time   28.4537: real time   28.5178
    SETDIJ:  cpu time    0.0060: real time    0.0065
     EDDAV:  cpu time  120.6367: real time  120.9081
       DOS:  cpu time    0.0000: real time    0.0002
    CHARGE:  cpu time    8.7687: real time    8.7886
    MIXING:  cpu time    1.1428: real time    1.1442
    --------------------------------------------
      LOOP:  cpu time  159.0098: real time  159.3696

 eigenvalue-minimisations  :   128
 total energy-change (2. order) : 0.1946423E-01  (-0.3398218E-02)
 number of electron      15.9999994 magnetization 
 augmentation part        0.3924103 magnetization 

 Broyden mixing:
  rms(total) = 0.27664E-01    rms(broyden)= 0.27653E-01
  rms(prec ) = 0.31891E-01
  weight for this iteration     100.00

 eigenvalues of (default mixing * dielectric matrix)
  average eigenvalue GAMMA=   1.4374
  2.2098  1.7159  1.0654  0.7586

 Free energy of the ion-electron system (eV)
  ---------------------------------------------------
  alpha Z        PSCENC =         0.04144063
  Ewald energy   TEWEN  =       696.69288585
  -Hartree energ DENC   =     -1170.83852888
  -exchange      EXHF   =         0.00000000
  -V(xc)+E(xc)   XCENC  =        54.33992991
  PAW double counting   =      1214.57692987    -1217.31608306
  entropy T*S    EENTRO =         0.00000000
  eigenvalues    EBANDS =      -207.80860369
  atomic energy  EATOM  =       596.16534815
  Solvation  Ediel_sol  =         0.00000000
  ---------------------------------------------------
  free energy    TOTEN  =       -34.14668121 eV

  energy without entropy =      -34.14668121  energy(sigma->0) =      -34.14668121


--------------------------------------------------------------------------------------------------------




----------------------------------------- Iteration    1(  10)  ---------------------------------------


    POTLOK:  cpu time   30.4574: real time   30.5270
    SETDIJ:  cpu time    0.0070: real time    0.0070
     EDDAV:  cpu time  121.8515: real time  122.1278
       DOS:  cpu time    0.0000: real time    0.0002
    CHARGE:  cpu time    7.6488: real time    7.6679
    MIXING:  cpu time    0.9858: real time    0.9882
    --------------------------------------------
      LOOP:  cpu time  160.9525: real time  161.3239

 eigenvalue-minimisations  :   128
 total energy-change (2. order) : 0.1657398E-02  (-0.6447426E-03)
 number of electron      15.9999994 magnetization 
 augmentation part        0.3938207 magnetization 

 Broyden mixing:
  rms(total) = 0.12830E-01    rms(broyden)= 0.12818E-01
  rms(prec ) = 0.17711E-01
  weight for this iteration     100.00

 eigenvalues of (default mixing * dielectric matrix)
  average eigenvalue GAMMA=   1.4111
  2.0628  2.0628  1.2867  0.8215  0.8215

 Free energy of the ion-electron system (eV)
  ---------------------------------------------------
  alpha Z        PSCENC =         0.04144063
  Ewald energy   TEWEN  =       696.69288585
  -Hartree energ DENC   =     -1171.59569043
  -exchange      EXHF   =         0.00000000
  -V(xc)+E(xc)   XCENC  =        54.35123419
  PAW double counting   =      1214.54840937    -1217.27998775
  entropy T*S    EENTRO =         0.00000000
  eigenvalues    EBANDS =      -207.06866383
  atomic energy  EATOM  =       596.16534815
  Solvation  Ediel_sol  =         0.00000000
  ---------------------------------------------------
  free energy    TOTEN  =       -34.14502381 eV

  energy without entropy =      -34.14502381  energy(sigma->0) =      -34.14502381


--------------------------------------------------------------------------------------------------------




----------------------------------------- Iteration    1(  11)  ---------------------------------------


    POTLOK:  cpu time   30.8633: real time   30.9339
    SETDIJ:  cpu time    0.0060: real time    0.0066
     EDDAV:  cpu time  105.3880: real time  105.6226
       DOS:  cpu time    0.0000: real time    0.0002
    CHARGE:  cpu time    8.9596: real time    8.9787
    MIXING:  cpu time    1.3498: real time    1.3530
    --------------------------------------------
      LOOP:  cpu time  146.5687: real time  146.8992

 eigenvalue-minimisations  :   108
 total energy-change (2. order) :-0.3335118E-03  (-0.9663236E-04)
 number of electron      15.9999994 magnetization 
 augmentation part        0.3931019 magnetization 

 Broyden mixing:
  rms(total) = 0.86686E-02    rms(broyden)= 0.86674E-02
  rms(prec ) = 0.12881E-01
  weight for this iteration     100.00

 eigenvalues of (default mixing * dielectric matrix)
  average eigenvalue GAMMA=   1.5737
  2.5609  2.5609  1.2935  1.2935  0.8019  0.9311

 Free energy of the ion-electron system (eV)
  ---------------------------------------------------
  alpha Z        PSCENC =         0.04144063
  Ewald energy   TEWEN  =       696.69288585
  -Hartree energ DENC   =     -1172.56063267
  -exchange      EXHF   =         0.00000000
  -V(xc)+E(xc)   XCENC  =        54.37878582
  PAW double counting   =      1213.50659194    -1216.23685398
  entropy T*S    EENTRO =         0.00000000
  eigenvalues    EBANDS =      -206.13292306
  atomic energy  EATOM  =       596.16534815
  Solvation  Ediel_sol  =         0.00000000
  ---------------------------------------------------
  free energy    TOTEN  =       -34.14535732 eV

  energy without entropy =      -34.14535732  energy(sigma->0) =      -34.14535732


--------------------------------------------------------------------------------------------------------




----------------------------------------- Iteration    1(  12)  ---------------------------------------


    POTLOK:  cpu time   26.7479: real time   26.8102
    SETDIJ:  cpu time    0.0070: real time    0.0065
     EDDAV:  cpu time  104.7281: real time  104.9727
       DOS:  cpu time    0.0000: real time    0.0002
    CHARGE:  cpu time    9.4136: real time    9.4357
    MIXING:  cpu time    1.4748: real time    1.4782
    --------------------------------------------
      LOOP:  cpu time  142.3744: real time  142.7085

 eigenvalue-minimisations  :   108
 total energy-change (2. order) :-0.3448554E-02  (-0.2159884E-03)
 number of electron      15.9999994 magnetization 
 augmentation part        0.3929025 magnetization 

 Broyden mixing:
  rms(total) = 0.41002E-02    rms(broyden)= 0.40979E-02
  rms(prec ) = 0.66909E-02
  weight for this iteration     100.00

 eigenvalues of (default mixing * dielectric matrix)
  average eigenvalue GAMMA=   1.6563
  3.5059  2.3350  1.6329  1.2151  1.2151  0.8112  0.8786

 Free energy of the ion-electron system (eV)
  ---------------------------------------------------
  alpha Z        PSCENC =         0.04144063
  Ewald energy   TEWEN  =       696.69288585
  -Hartree energ DENC   =     -1174.07865755
  -exchange      EXHF   =         0.00000000
  -V(xc)+E(xc)   XCENC  =        54.41358493
  PAW double counting   =      1209.53857596    -1212.26499884
  entropy T*S    EENTRO =         0.00000000
  eigenvalues    EBANDS =      -204.65698500
  atomic energy  EATOM  =       596.16534815
  Solvation  Ediel_sol  =         0.00000000
  ---------------------------------------------------
  free energy    TOTEN  =       -34.14880588 eV

  energy without entropy =      -34.14880588  energy(sigma->0) =      -34.14880588


--------------------------------------------------------------------------------------------------------




----------------------------------------- Iteration    1(  13)  ---------------------------------------


    POTLOK:  cpu time   30.5124: real time   30.5827
    SETDIJ:  cpu time    0.0070: real time    0.0066
     EDDAV:  cpu time  140.6606: real time  140.9778
       DOS:  cpu time    0.0000: real time    0.0002
    CHARGE:  cpu time    9.3096: real time    9.3304
    MIXING:  cpu time    1.6527: real time    1.6563
    --------------------------------------------
      LOOP:  cpu time  182.1443: real time  182.5589

 eigenvalue-minimisations  :   160
 total energy-change (2. order) :-0.4014170E-02  (-0.1155492E-03)
 number of electron      15.9999994 magnetization 
 augmentation part        0.3926062 magnetization 

 Broyden mixing:
  rms(total) = 0.30264E-02    rms(broyden)= 0.30245E-02
  rms(prec ) = 0.45225E-02
  weight for this iteration     100.00

 eigenvalues of (default mixing * dielectric matrix)
  average eigenvalue GAMMA=   1.7299
  4.1825  2.4564  1.6362  1.6362  1.3398  0.9609  0.8137  0.8137

 Free energy of the ion-electron system (eV)
  ---------------------------------------------------
  alpha Z        PSCENC =         0.04144063
  Ewald energy   TEWEN  =       696.69288585
  -Hartree energ DENC   =     -1174.86355979
  -exchange      EXHF   =         0.00000000
  -V(xc)+E(xc)   XCENC  =        54.42948733
  PAW double counting   =      1209.04517227    -1211.77179689
  entropy T*S    EENTRO =         0.00000000
  eigenvalues    EBANDS =      -203.89179760
  atomic energy  EATOM  =       596.16534815
  Solvation  Ediel_sol  =         0.00000000
  ---------------------------------------------------
  free energy    TOTEN  =       -34.15282005 eV

  energy without entropy =      -34.15282005  energy(sigma->0) =      -34.15282005


--------------------------------------------------------------------------------------------------------




----------------------------------------- Iteration    1(  14)  ---------------------------------------


    POTLOK:  cpu time   31.4992: real time   31.5720
    SETDIJ:  cpu time    0.0070: real time    0.0066
     EDDAV:  cpu time  106.8668: real time  107.1082
       DOS:  cpu time    0.0000: real time    0.0002
    CHARGE:  cpu time    9.0596: real time    9.0798
    MIXING:  cpu time    1.8567: real time    1.8609
    --------------------------------------------
      LOOP:  cpu time  149.2923: real time  149.6325

 eigenvalue-minimisations  :   116
 total energy-change (2. order) :-0.3801573E-02  (-0.3861226E-04)
 number of electron      15.9999994 magnetization 
 augmentation part        0.3926127 magnetization 

 Broyden mixing:
  rms(total) = 0.17168E-02    rms(broyden)= 0.17166E-02
  rms(prec ) = 0.26823E-02
  weight for this iteration     100.00

 eigenvalues of (default mixing * dielectric matrix)
  average eigenvalue GAMMA=   1.8191
  4.7616  2.7223  2.3374  1.5664  1.2171  1.2171  0.8032  0.8735  0.8735

 Free energy of the ion-electron system (eV)
  ---------------------------------------------------
  alpha Z        PSCENC =         0.04144063
  Ewald energy   TEWEN  =       696.69288585
  -Hartree energ DENC   =     -1175.15085530
  -exchange      EXHF   =         0.00000000
  -V(xc)+E(xc)   XCENC  =        54.42553035
  PAW double counting   =      1207.32733716    -1210.05358662
  entropy T*S    EENTRO =         0.00000000
  eigenvalues    EBANDS =      -203.60472182
  atomic energy  EATOM  =       596.16534815
  Solvation  Ediel_sol  =         0.00000000
  ---------------------------------------------------
  free energy    TOTEN  =       -34.15662162 eV

  energy without entropy =      -34.15662162  energy(sigma->0) =      -34.15662162


--------------------------------------------------------------------------------------------------------




----------------------------------------- Iteration    1(  15)  ---------------------------------------


    POTLOK:  cpu time   31.2293: real time   31.3008
    SETDIJ:  cpu time    0.0070: real time    0.0069
     EDDAV:  cpu time  118.4890: real time  118.7563
       DOS:  cpu time    0.0000: real time    0.0002
    CHARGE:  cpu time    8.9356: real time    8.9565
    MIXING:  cpu time    2.0157: real time    2.0196
    --------------------------------------------
      LOOP:  cpu time  160.6776: real time  161.0450

 eigenvalue-minimisations  :   128
 total energy-change (2. order) :-0.2619442E-02  (-0.2375992E-04)
 number of electron      15.9999994 magnetization 
 augmentation part        0.3925993 magnetization 

 Broyden mixing:
  rms(total) = 0.10170E-02    rms(broyden)= 0.10168E-02
  rms(prec ) = 0.16228E-02
  weight for this iteration     100.00

 eigenvalues of (default mixing * dielectric matrix)
  average eigenvalue GAMMA=   1.9512
  6.0599  3.0827  2.3022  1.5512  1.5512  1.2085  1.2085  0.8019  0.8730  0.8730

 Free energy of the ion-electron system (eV)
  ---------------------------------------------------
  alpha Z        PSCENC =         0.04144063
  Ewald energy   TEWEN  =       696.69288585
  -Hartree energ DENC   =     -1175.30967268
  -exchange      EXHF   =         0.00000000
  -V(xc)+E(xc)   XCENC  =        54.42374147
  PAW double counting   =      1207.61642721    -1210.34289947
  entropy T*S    EENTRO =         0.00000000
  eigenvalues    EBANDS =      -203.44651222
  atomic energy  EATOM  =       596.16534815
  Solvation  Ediel_sol  =         0.00000000
  ---------------------------------------------------
  free energy    TOTEN  =       -34.15924106 eV

  energy without entropy =      -34.15924106  energy(sigma->0) =      -34.15924106


--------------------------------------------------------------------------------------------------------




----------------------------------------- Iteration    1(  16)  ---------------------------------------


    POTLOK:  cpu time   30.3744: real time   30.4408
    SETDIJ:  cpu time    0.0070: real time    0.0065
     EDDAV:  cpu time  112.6649: real time  112.9187
       DOS:  cpu time    0.0000: real time    0.0002
    CHARGE:  cpu time    8.6277: real time    8.6469
    MIXING:  cpu time    2.2357: real time    2.2406
    --------------------------------------------
      LOOP:  cpu time  153.9116: real time  154.2579

 eigenvalue-minimisations  :   124
 total energy-change (2. order) :-0.1918015E-02  (-0.1867195E-04)
 number of electron      15.9999994 magnetization 
 augmentation part        0.3925671 magnetization 

 Broyden mixing:
  rms(total) = 0.62361E-03    rms(broyden)= 0.62332E-03
  rms(prec ) = 0.91724E-03
  weight for this iteration     100.00

 eigenvalues of (default mixing * dielectric matrix)
  average eigenvalue GAMMA=   2.0969
  7.1038  3.5586  2.3955  2.3955  1.4586  1.2861  1.2861  0.9925  0.8072  0.8686
  0.9131

 Free energy of the ion-electron system (eV)
  ---------------------------------------------------
  alpha Z        PSCENC =         0.04144063
  Ewald energy   TEWEN  =       696.69288585
  -Hartree energ DENC   =     -1175.41715176
  -exchange      EXHF   =         0.00000000
  -V(xc)+E(xc)   XCENC  =        54.42167336
  PAW double counting   =      1207.50251774    -1210.22900208
  entropy T*S    EENTRO =         0.00000000
  eigenvalues    EBANDS =      -203.33887095
  atomic energy  EATOM  =       596.16534815
  Solvation  Ediel_sol  =         0.00000000
  ---------------------------------------------------
  free energy    TOTEN  =       -34.16115908 eV

  energy without entropy =      -34.16115908  energy(sigma->0) =      -34.16115908


--------------------------------------------------------------------------------------------------------




----------------------------------------- Iteration    1(  17)  ---------------------------------------


    POTLOK:  cpu time   24.9402: real time   24.9964
    SETDIJ:  cpu time    0.0070: real time    0.0067
     EDDAV:  cpu time   90.8802: real time   91.0805
       DOS:  cpu time    0.0000: real time    0.0002
    CHARGE:  cpu time    6.9419: real time    6.9570
    MIXING:  cpu time    1.8917: real time    1.8965
    --------------------------------------------
      LOOP:  cpu time  124.6630: real time  124.9418

 eigenvalue-minimisations  :    88
 total energy-change (2. order) :-0.1048729E-02  (-0.5585902E-05)
 number of electron      15.9999994 magnetization 
 augmentation part        0.3925560 magnetization 

 Broyden mixing:
  rms(total) = 0.31786E-03    rms(broyden)= 0.31781E-03
  rms(prec ) = 0.46370E-03
  weight for this iteration     100.00

 eigenvalues of (default mixing * dielectric matrix)
  average eigenvalue GAMMA=   2.1736
  7.6292  4.1757  2.5954  2.0750  2.0750  1.5086  1.2396  1.2396  0.8076  0.9361
  0.9361  0.8647

 Free energy of the ion-electron system (eV)
  ---------------------------------------------------
  alpha Z        PSCENC =         0.04144063
  Ewald energy   TEWEN  =       696.69288585
  -Hartree energ DENC   =     -1175.42779065
  -exchange      EXHF   =         0.00000000
  -V(xc)+E(xc)   XCENC  =        54.41938612
  PAW double counting   =      1207.77438645    -1210.50067246
  entropy T*S    EENTRO =         0.00000000
  eigenvalues    EBANDS =      -203.32719190
  atomic energy  EATOM  =       596.16534815
  Solvation  Ediel_sol  =         0.00000000
  ---------------------------------------------------
  free energy    TOTEN  =       -34.16220781 eV

  energy without entropy =      -34.16220781  energy(sigma->0) =      -34.16220781


--------------------------------------------------------------------------------------------------------




----------------------------------------- Iteration    1(  18)  ---------------------------------------


    POTLOK:  cpu time   27.5168: real time   27.5806
    SETDIJ:  cpu time    0.0070: real time    0.0068
     EDDAV:  cpu time   89.3174: real time   89.5156
       DOS:  cpu time    0.0000: real time    0.0002
    CHARGE:  cpu time    8.5007: real time    8.5188
    MIXING:  cpu time    2.3276: real time    2.3331
    --------------------------------------------
      LOOP:  cpu time  127.6716: real time  127.9588

 eigenvalue-minimisations  :    92
 total energy-change (2. order) :-0.4244816E-03  (-0.3784619E-05)
 number of electron      15.9999994 magnetization 
 augmentation part        0.3925536 magnetization 

 Broyden mixing:
  rms(total) = 0.19113E-03    rms(broyden)= 0.19110E-03
  rms(prec ) = 0.26546E-03
  weight for this iteration     100.00

 eigenvalues of (default mixing * dielectric matrix)
  average eigenvalue GAMMA=   2.2558
  8.2639  4.8623  2.7658  2.6184  2.1898  1.4858  1.2613  1.2613  1.0185  1.0185
  0.8074  0.8859  0.8859

 Free energy of the ion-electron system (eV)
  ---------------------------------------------------
  alpha Z        PSCENC =         0.04144063
  Ewald energy   TEWEN  =       696.69288585
  -Hartree energ DENC   =     -1175.42942910
  -exchange      EXHF   =         0.00000000
  -V(xc)+E(xc)   XCENC  =        54.41880363
  PAW double counting   =      1207.84369406    -1210.56998147
  entropy T*S    EENTRO =         0.00000000
  eigenvalues    EBANDS =      -203.32539403
  atomic energy  EATOM  =       596.16534815
  Solvation  Ediel_sol  =         0.00000000
  ---------------------------------------------------
  free energy    TOTEN  =       -34.16263229 eV

  energy without entropy =      -34.16263229  energy(sigma->0) =      -34.16263229


--------------------------------------------------------------------------------------------------------




----------------------------------------- Iteration    1(  19)  ---------------------------------------


    POTLOK:  cpu time   30.2864: real time   30.3540
    SETDIJ:  cpu time    0.0070: real time    0.0066
     EDDAV:  cpu time   79.0250: real time   79.1928
       DOS:  cpu time    0.0000: real time    0.0002
    CHARGE:  cpu time    8.8027: real time    8.8231
    MIXING:  cpu time    2.6616: real time    2.6677
    --------------------------------------------
      LOOP:  cpu time  120.7856: real time  121.0501

 eigenvalue-minimisations  :    88
 total energy-change (2. order) :-0.1884895E-03  (-0.1575520E-05)
 number of electron      15.9999994 magnetization 
 augmentation part        0.3925491 magnetization 

 Broyden mixing:
  rms(total) = 0.99542E-04    rms(broyden)= 0.99501E-04
  rms(prec ) = 0.13984E-03
  weight for this iteration     100.00

 eigenvalues of (default mixing * dielectric matrix)
  average eigenvalue GAMMA=   2.2701
  8.5639  4.9848  3.1733  2.4951  2.0967  1.9197  1.4620  1.2619  1.2619  1.0160
  0.8079  0.9359  0.9359  0.8669

 Free energy of the ion-electron system (eV)
  ---------------------------------------------------
  alpha Z        PSCENC =         0.04144063
  Ewald energy   TEWEN  =       696.69288585
  -Hartree energ DENC   =     -1175.42628561
  -exchange      EXHF   =         0.00000000
  -V(xc)+E(xc)   XCENC  =        54.41827696
  PAW double counting   =      1207.68293894    -1210.40923248
  entropy T*S    EENTRO =         0.00000000
  eigenvalues    EBANDS =      -203.32819322
  atomic energy  EATOM  =       596.16534815
  Solvation  Ediel_sol  =         0.00000000
  ---------------------------------------------------
  free energy    TOTEN  =       -34.16282078 eV

  energy without entropy =      -34.16282078  energy(sigma->0) =      -34.16282078


--------------------------------------------------------------------------------------------------------




----------------------------------------- Iteration    1(  20)  ---------------------------------------


    POTLOK:  cpu time   30.7123: real time   30.7812
    SETDIJ:  cpu time    0.0060: real time    0.0067
     EDDAV:  cpu time   81.8036: real time   81.9813
       DOS:  cpu time    0.0000: real time    0.0002
    --------------------------------------------
      LOOP:  cpu time  112.5229: real time  112.7742

 eigenvalue-minimisations  :    80
 total energy-change (2. order) :-0.8383384E-04  (-0.5160124E-06)
 number of electron      15.9999994 magnetization 
 augmentation part        0.3925491 magnetization 

 Free energy of the ion-electron system (eV)
  ---------------------------------------------------
  alpha Z        PSCENC =         0.04144063
  Ewald energy   TEWEN  =       696.69288585
  -Hartree energ DENC   =     -1175.42832222
  -exchange      EXHF   =         0.00000000
  -V(xc)+E(xc)   XCENC  =        54.41813160
  PAW double counting   =      1207.66886717    -1210.39516101
  entropy T*S    EENTRO =         0.00000000
  eigenvalues    EBANDS =      -203.32609478
  atomic energy  EATOM  =       596.16534815
  Solvation  Ediel_sol  =         0.00000000
  ---------------------------------------------------
  free energy    TOTEN  =       -34.16290461 eV

  energy without entropy =      -34.16290461  energy(sigma->0) =      -34.16290461


--------------------------------------------------------------------------------------------------------




 average (electrostatic) potential at core
  the test charge radii are     0.5201  0.6991  0.7089
  (the norm of the test charge is              1.0000)
       1 -43.0416       2 -43.0420       3 -42.8384       4 -60.4266       5 -59.7632
       6 -74.3509
 
 
 
 E-fermi :  -6.4214     XC(G=0):  -0.0908     alpha+bet : -0.0137


 k-point     1 :       0.2500    0.2500    0.2500
  band No.  band energies     occupation 
      1     -23.7540      2.00000
      2     -17.9962      2.00000
      3     -12.1832      2.00000
      4     -11.5534      2.00000
      5     -10.9366      2.00000
      6      -9.4512      2.00000
      7      -8.4118      2.00000
      8      -7.3767      2.00000
      9      -3.0683      0.00000
     10      -0.6790      0.00000
     11      -0.3975      0.00000
     12      -0.0044      0.00000

 k-point     2 :      -0.2500    0.2500    0.2500
  band No.  band energies     occupation 
      1     -23.7540      2.00000
      2     -17.9962      2.00000
      3     -12.1832      2.00000
      4     -11.5534      2.00000
      5     -10.9366      2.00000
      6      -9.4512      2.00000
      7      -8.4118      2.00000
      8      -7.3767      2.00000
      9      -3.0683      0.00000
     10      -0.6790      0.00000
     11      -0.3975      0.00000
     12      -0.0069      0.00000

 k-point     3 :       0.2500   -0.2500    0.2500
  band No.  band energies     occupation 
      1     -23.7540      2.00000
      2     -17.9962      2.00000
      3     -12.1832      2.00000
      4     -11.5534      2.00000
      5     -10.9366      2.00000
      6      -9.4511      2.00000
      7      -8.4118      2.00000
      8      -7.3767      2.00000
      9      -3.0683      0.00000
     10      -0.6790      0.00000
     11      -0.3974      0.00000
     12      -0.0059      0.00000

 k-point     4 :      -0.2500   -0.2500    0.2500
  band No.  band energies     occupation 
      1     -23.7540      2.00000
      2     -17.9962      2.00000
      3     -12.1832      2.00000
      4     -11.5534      2.00000
      5     -10.9366      2.00000
      6      -9.4511      2.00000
      7      -8.4118      2.00000
      8      -7.3767      2.00000
      9      -3.0683      0.00000
     10      -0.6790      0.00000
     11      -0.3975      0.00000
     12      -0.0061      0.00000


--------------------------------------------------------------------------------------------------------


 soft charge-density along one line, spin component           1
         0         1         2         3         4         5         6         7         8         9
 total charge-density along one line
 
 pseudopotential strength for first ion, spin component:           1
 -2.362  -4.073  -0.002   0.000  -0.001
 -4.073  -6.940  -0.005   0.001  -0.002
 -0.002  -0.005  -0.329  -0.001   0.002
  0.000   0.001  -0.001  -0.333   0.000
 -0.001  -0.002   0.002   0.000  -0.333
 total augmentation occupancy for first ion, spin component:           1
  3.557  -0.642   0.422  -0.109   0.146
 -0.642   0.133  -0.077   0.019  -0.028
  0.422  -0.077   0.052  -0.011   0.015
 -0.109   0.019  -0.011   0.012  -0.004
  0.146  -0.028   0.015  -0.004   0.013


------------------------ aborting loop because EDIFF is reached ----------------------------------------


    CHARGE:  cpu time    8.3937: real time    8.4129
    FORLOC:  cpu time    2.7816: real time    2.7871
    FORNL :  cpu time   24.0363: real time   24.0893
    STRESS:  cpu time   73.3289: real time   73.4893
    FORCOR:  cpu time   28.0497: real time   28.1082
    FORHAR:  cpu time    8.2088: real time    8.2263
    MIXING:  cpu time    1.5968: real time    1.5996
    OFIELD:  cpu time    0.0000: real time    0.0000

  FORCE on cell =-STRESS in cart. coord.  units (eV):
  Direction    XX          YY          ZZ          XY          YZ          ZX
  --------------------------------------------------------------------------------------
  Alpha Z     0.04144     0.04144     0.04144
  Ewald     348.95319   159.92501   187.81481    49.87990   127.69000    53.85925
  Hartree   493.94613   335.07987   346.40122    27.17625    51.96594    29.11011
  E(xc)     -59.28363   -59.32348   -59.22762     0.10602     0.43639     0.11545
  Local   -1003.51368  -660.32901  -697.65642   -75.65231  -171.04172   -81.47781
  n-local   -17.16667   -25.52045   -26.34021    -1.17990    -3.71883    -1.35153
  augment     0.16944     0.67662     0.68400     0.08830     0.04880     0.10485
  Kinetic   237.02971   248.46303   247.25391     0.84208    -5.45964     1.04065
  Fock        0.00000     0.00000     0.00000     0.00000     0.00000     0.00000
  -------------------------------------------------------------------------------------
  Total       0.17593    -0.98697    -1.02886     1.26033    -0.07905     1.40097
  in kB       0.01044    -0.05857    -0.06105     0.07479    -0.00469     0.08313
  external pressure =       -0.04 kB  Pullay stress =        0.00 kB


 VOLUME and BASIS-vectors are now :
 -----------------------------------------------------------------------------
  energy-cutoff  :      400.00
  volume of cell :    27000.00
      direct lattice vectors                 reciprocal lattice vectors
    30.000000000  0.000000000  0.000000000     0.033333333  0.000000000  0.000000000
     0.000000000 30.000000000  0.000000000     0.000000000  0.033333333  0.000000000
     0.000000000  0.000000000 30.000000000     0.000000000  0.000000000  0.033333333

  length of vectors
    30.000000000 30.000000000 30.000000000     0.033333333  0.033333333  0.033333333


 FORCES acting on ions
    electron-ion (+dipol)            ewald-force                    non-local-force                 convergence-correction
 -----------------------------------------------------------------------------------------------
   0.328E+02 0.563E+02 -.140E+02   -.349E+02 -.618E+02 0.153E+02   0.181E+01 0.541E+01 -.142E+01   -.286E-04 -.921E-04 0.339E-04
   0.332E+02 -.205E+02 0.540E+02   -.353E+02 0.224E+02 -.594E+02   0.185E+01 -.205E+01 0.519E+01   -.285E-04 0.447E-04 -.874E-04
   0.333E+02 -.374E+02 -.425E+02   -.344E+02 0.409E+02 0.464E+02   0.149E+01 -.360E+01 -.407E+01   -.393E-06 0.811E-04 0.912E-04
   0.974E+02 0.626E+01 0.642E+01   -.105E+03 -.648E+01 -.663E+01   0.702E+01 -.623E-01 -.106E+00   0.222E-03 0.770E-04 0.825E-04
   -.642E+02 0.138E+03 0.154E+03   0.675E+02 -.150E+03 -.168E+03   -.408E+01 0.124E+02 0.139E+02   0.595E-04 0.409E-03 0.443E-03
   -.132E+03 -.132E+03 -.147E+03   0.142E+03 0.155E+03 0.172E+03   -.809E+01 -.223E+02 -.249E+02   -.235E-03 -.976E-04 -.123E-03
 -----------------------------------------------------------------------------------------------
   0.113E-01 0.102E+02 0.114E+02   -.284E-13 0.284E-13 -.284E-13   -.799E-02 -.102E+02 -.114E+02   -.112E-04 0.422E-03 0.441E-03
 
 
 POSITION                                       TOTAL-FORCE (eV/Angst)
 -----------------------------------------------------------------------------------
     14.23978     13.94881     15.20328        -0.301683     -0.136484     -0.117898
     14.23311     15.32354     13.98514        -0.298187     -0.105421     -0.146848
     14.30834     15.65655     15.74570         0.317549     -0.149292     -0.172050
     14.58439     14.94733     14.94350        -0.113458     -0.282406     -0.314217
     16.18940     14.67362     14.62786        -0.845288      0.444263      0.499341
     16.44566     15.44981     15.49393         1.241068      0.229341      0.251672
 -----------------------------------------------------------------------------------
    total drift:                                0.003262     -0.000536     -0.001779


--------------------------------------------------------------------------------------------------------



  FREE ENERGIE OF THE ION-ELECTRON SYSTEM (eV)
  ---------------------------------------------------
  free  energy   TOTEN  =       -34.16290461 eV

  energy  without entropy=      -34.16290461  energy(sigma->0) =      -34.16290461
 


--------------------------------------------------------------------------------------------------------


    POTLOK:  cpu time   17.4933: real time   17.5270


--------------------------------------------------------------------------------------------------------


 NEB: the previous image is higher in energy: T
 NEB: the next image is higher in energy    : F
 NEB: only prev energy greater

 NEB: Tangent
 ----------------------------------------------
     -0.16381     -0.07399     -0.06452
     -0.16096     -0.05664     -0.07984
      0.17182     -0.08104     -0.09333
     -0.06159     -0.15298     -0.17050
     -0.45768      0.24065      0.27121
      0.67223      0.12400      0.13697

 NEB: forces: par spring, perp REAL, dneb     0.000562    0.002849    0.000000
 NEB: distance to prev, next image, angle between     0.246445    0.246557  166.162953
 NEB: projections on to tangent (spring, REAL)     0.000562    1.845703

 stress matrix after NEB project (eV)
      0.17593      1.26033      1.40097
      1.26033     -0.98697     -0.07905
      1.40097     -0.07905     -1.02886
  FORCES: max atom, RMS     0.001571    0.001186
  FORCE total and by dimension    0.002904    0.001187
  Stress total and by dimension    3.029587    1.400969
 
 OPT: Flag T
 OPT: FIRE Step
 OPT: FIRE, TIMESTEP      0.10000
 OPT: FIRE, alpha         0.10000


--------------------------------------------------------------------------------------------------------


    WAVPRE:  cpu time    8.0668: real time    8.9438
 FEWALD executed in parallel
    FEWALD:  cpu time    0.0000: real time    0.0004
    ORTHCH:  cpu time    6.2201: real time    6.8729
     LOOP+:  cpu time 3167.3715: real time 3195.7337


----------------------------------------- Iteration    2(   1)  ---------------------------------------


    POTLOK:  cpu time   36.8814: real time   38.3162
    SETDIJ:  cpu time    0.0070: real time    0.0071
     EDDAV:  cpu time   61.4977: real time   65.8915
       DOS:  cpu time    0.0000: real time    0.0002
    CHARGE:  cpu time    5.6531: real time    5.6640
    MIXING:  cpu time    0.7749: real time    0.7768
    --------------------------------------------
      LOOP:  cpu time  104.8161: real time  110.6580

 eigenvalue-minimisations  :    76
 total energy-change (2. order) :-0.1308653E-03  (-0.3305034E-06)
 number of electron      15.9999994 magnetization 
 augmentation part        0.3925449 magnetization 

 Broyden mixing:
  rms(total) = 0.48446E-04    rms(broyden)= 0.48217E-04
  rms(prec ) = 0.58478E-04
  weight for this iteration     100.00

 Free energy of the ion-electron system (eV)
  ---------------------------------------------------
  alpha Z        PSCENC =         0.04144063
  Ewald energy   TEWEN  =       696.69228224
  -Hartree energ DENC   =     -1175.42642708
  -exchange      EXHF   =         0.00000000
  -V(xc)+E(xc)   XCENC  =        54.41796358
  PAW double counting   =      1207.68021844    -1210.40652664
  entropy T*S    EENTRO =         0.00000000
  eigenvalues    EBANDS =      -203.32725096
  atomic energy  EATOM  =       596.16534815
  Solvation  Ediel_sol  =         0.00000000
  ---------------------------------------------------
  free energy    TOTEN  =       -34.16295164 eV

  energy without entropy =      -34.16295164  energy(sigma->0) =      -34.16295164


--------------------------------------------------------------------------------------------------------




----------------------------------------- Iteration    2(   2)  ---------------------------------------


    POTLOK:  cpu time   33.0650: real time   33.1317
    SETDIJ:  cpu time    0.0080: real time    0.0073
     EDDAV:  cpu time   77.4632: real time   78.5522
       DOS:  cpu time    0.0000: real time    0.0002
    CHARGE:  cpu time    6.0361: real time    6.0493
    MIXING:  cpu time    0.8479: real time    0.8492
    --------------------------------------------
      LOOP:  cpu time  117.4212: real time  118.6017

 eigenvalue-minimisations  :    96
 total energy-change (2. order) :-0.7488764E-05  (-0.6862183E-07)
 number of electron      15.9999994 magnetization 
 augmentation part        0.3925450 magnetization 

 Broyden mixing:
  rms(total) = 0.30213E-04    rms(broyden)= 0.30188E-04
  rms(prec ) = 0.41096E-04
  weight for this iteration     100.00

 eigenvalues of (default mixing * dielectric matrix)
  average eigenvalue GAMMA=   1.4034
  1.4034

 Free energy of the ion-electron system (eV)
  ---------------------------------------------------
  alpha Z        PSCENC =         0.04144063
  Ewald energy   TEWEN  =       696.69228224
  -Hartree energ DENC   =     -1175.42605649
  -exchange      EXHF   =         0.00000000
  -V(xc)+E(xc)   XCENC  =        54.41792820
  PAW double counting   =      1207.68091727    -1210.40722017
  entropy T*S    EENTRO =         0.00000000
  eigenvalues    EBANDS =      -203.32759896
  atomic energy  EATOM  =       596.16534815
  Solvation  Ediel_sol  =         0.00000000
  ---------------------------------------------------
  free energy    TOTEN  =       -34.16295913 eV

  energy without entropy =      -34.16295913  energy(sigma->0) =      -34.16295913


--------------------------------------------------------------------------------------------------------




----------------------------------------- Iteration    2(   3)  ---------------------------------------


    POTLOK:  cpu time   35.5416: real time   35.6148
    SETDIJ:  cpu time    0.0080: real time    0.0075
     EDDAV:  cpu time   69.4364: real time   69.5837
       DOS:  cpu time    0.0000: real time    0.0002
    CHARGE:  cpu time    5.9601: real time    5.9728
    MIXING:  cpu time    1.0598: real time    1.0624
    --------------------------------------------
      LOOP:  cpu time  112.0070: real time  112.2460

 eigenvalue-minimisations  :    84
 total energy-change (2. order) :-0.9110138E-05  (-0.1935306E-07)
 number of electron      15.9999994 magnetization 
 augmentation part        0.3925442 magnetization 

 Broyden mixing:
  rms(total) = 0.18814E-04    rms(broyden)= 0.18801E-04
  rms(prec ) = 0.28928E-04
  weight for this iteration     100.00

 eigenvalues of (default mixing * dielectric matrix)
  average eigenvalue GAMMA=   1.3842
  1.1976  1.5707

 Free energy of the ion-electron system (eV)
  ---------------------------------------------------
  alpha Z        PSCENC =         0.04144063
  Ewald energy   TEWEN  =       696.69228224
  -Hartree energ DENC   =     -1175.42567446
  -exchange      EXHF   =         0.00000000
  -V(xc)+E(xc)   XCENC  =        54.41789010
  PAW double counting   =      1207.67820994    -1210.40450758
  entropy T*S    EENTRO =         0.00000000
  eigenvalues    EBANDS =      -203.32795726
  atomic energy  EATOM  =       596.16534815
  Solvation  Ediel_sol  =         0.00000000
  ---------------------------------------------------
  free energy    TOTEN  =       -34.16296824 eV

  energy without entropy =      -34.16296824  energy(sigma->0) =      -34.16296824


--------------------------------------------------------------------------------------------------------




----------------------------------------- Iteration    2(   4)  ---------------------------------------


    POTLOK:  cpu time   32.0031: real time   32.0697
    SETDIJ:  cpu time    0.0070: real time    0.0075
     EDDAV:  cpu time   65.5780: real time   69.8900
[...]
  Solvation  Ediel_sol  =         0.00000000
  ---------------------------------------------------
  free energy    TOTEN  =       -34.16687180 eV

  energy without entropy =      -34.16687180  energy(sigma->0) =      -34.16687180


--------------------------------------------------------------------------------------------------------




----------------------------------------- Iteration   74(   2)  ---------------------------------------


    POTLOK:  cpu time   23.8904: real time   23.9347
    SETDIJ:  cpu time    0.0070: real time    0.0066
     EDDAV:  cpu time   36.2325: real time   36.3035
       DOS:  cpu time    0.0000: real time    0.0002
    CHARGE:  cpu time    5.0162: real time    5.0267
    MIXING:  cpu time    0.5789: real time    0.5797
    --------------------------------------------
      LOOP:  cpu time   65.7280: real time   65.8548

 eigenvalue-minimisations  :    48
 total energy-change (2. order) :-0.7565632E-08  (-0.1204621E-07)
 number of electron      15.9999994 magnetization 
 augmentation part        0.3927946 magnetization 

 Broyden mixing:
  rms(total) = 0.31190E-04    rms(broyden)= 0.31147E-04
  rms(prec ) = 0.31854E-04
  weight for this iteration     100.00

 eigenvalues of (default mixing * dielectric matrix)
  average eigenvalue GAMMA=   1.1773
  1.1773

 Free energy of the ion-electron system (eV)
  ---------------------------------------------------
  alpha Z        PSCENC =         0.04144063
  Ewald energy   TEWEN  =       696.66880648
  -Hartree energ DENC   =     -1175.41156561
  -exchange      EXHF   =         0.00000000
  -V(xc)+E(xc)   XCENC  =        54.42024352
  PAW double counting   =      1208.35913172    -1211.08590399
  entropy T*S    EENTRO =         0.00000000
  eigenvalues    EBANDS =      -203.32437270
  atomic energy  EATOM  =       596.16534815
  Solvation  Ediel_sol  =         0.00000000
  ---------------------------------------------------
  free energy    TOTEN  =       -34.16687181 eV

  energy without entropy =      -34.16687181  energy(sigma->0) =      -34.16687181


--------------------------------------------------------------------------------------------------------




----------------------------------------- Iteration   74(   3)  ---------------------------------------


    POTLOK:  cpu time   21.8927: real time   21.9345
    SETDIJ:  cpu time    0.0070: real time    0.0065
     EDDAV:  cpu time   36.4155: real time   36.4857
       DOS:  cpu time    0.0000: real time    0.0002
    CHARGE:  cpu time    4.9472: real time    4.9566
    MIXING:  cpu time    0.6159: real time    0.6176
    --------------------------------------------
      LOOP:  cpu time   63.8803: real time   64.0052

 eigenvalue-minimisations  :    48
 total energy-change (2. order) :-0.3226432E-08  (-0.3683824E-08)
 number of electron      15.9999994 magnetization 
 augmentation part        0.3927954 magnetization 

 Broyden mixing:
  rms(total) = 0.17418E-04    rms(broyden)= 0.17413E-04
  rms(prec ) = 0.17711E-04
  weight for this iteration     100.00

 eigenvalues of (default mixing * dielectric matrix)
  average eigenvalue GAMMA=   1.5030
  0.8733  2.1327

 Free energy of the ion-electron system (eV)
  ---------------------------------------------------
  alpha Z        PSCENC =         0.04144063
  Ewald energy   TEWEN  =       696.66880648
  -Hartree energ DENC   =     -1175.41195413
  -exchange      EXHF   =         0.00000000
  -V(xc)+E(xc)   XCENC  =        54.42026337
  PAW double counting   =      1208.37019004    -1211.09697172
  entropy T*S    EENTRO =         0.00000000
  eigenvalues    EBANDS =      -203.32399464
  atomic energy  EATOM  =       596.16534815
  Solvation  Ediel_sol  =         0.00000000
  ---------------------------------------------------
  free energy    TOTEN  =       -34.16687181 eV

  energy without entropy =      -34.16687181  energy(sigma->0) =      -34.16687181


--------------------------------------------------------------------------------------------------------




----------------------------------------- Iteration   74(   4)  ---------------------------------------


    POTLOK:  cpu time   21.6507: real time   21.6934
    SETDIJ:  cpu time    0.0060: real time    0.0064
     EDDAV:  cpu time   35.5646: real time   35.6337
       DOS:  cpu time    0.0000: real time    0.0002
    CHARGE:  cpu time    4.9143: real time    4.9245
    MIXING:  cpu time    0.6259: real time    0.6269
    --------------------------------------------
      LOOP:  cpu time   62.7645: real time   63.3720

 eigenvalue-minimisations  :    48
 total energy-change (2. order) :-0.2252818E-08  (-0.3210621E-08)
 number of electron      15.9999994 magnetization 
 augmentation part        0.3927949 magnetization 

 Broyden mixing:
  rms(total) = 0.56648E-05    rms(broyden)= 0.56593E-05
  rms(prec ) = 0.57670E-05
  weight for this iteration     100.00

 eigenvalues of (default mixing * dielectric matrix)
  average eigenvalue GAMMA=   1.3800
  2.1563  1.0756  0.9081

 Free energy of the ion-electron system (eV)
  ---------------------------------------------------
  alpha Z        PSCENC =         0.04144063
  Ewald energy   TEWEN  =       696.66880648
  -Hartree energ DENC   =     -1175.41243712
  -exchange      EXHF   =         0.00000000
  -V(xc)+E(xc)   XCENC  =        54.42028647
  PAW double counting   =      1208.38165340    -1211.10844492
  entropy T*S    EENTRO =         0.00000000
  eigenvalues    EBANDS =      -203.32352491
  atomic energy  EATOM  =       596.16534815
  Solvation  Ediel_sol  =         0.00000000
  ---------------------------------------------------
  free energy    TOTEN  =       -34.16687182 eV

  energy without entropy =      -34.16687182  energy(sigma->0) =      -34.16687182


--------------------------------------------------------------------------------------------------------




----------------------------------------- Iteration   74(   5)  ---------------------------------------


    POTLOK:  cpu time   23.1365: real time   23.1806
    SETDIJ:  cpu time    0.0070: real time    0.0065
     EDDAV:  cpu time   35.0157: real time   35.0840
       DOS:  cpu time    0.0000: real time    0.0002
    CHARGE:  cpu time    5.1662: real time    5.1766
    MIXING:  cpu time    0.6859: real time    0.6872
    --------------------------------------------
      LOOP:  cpu time   64.0123: real time   64.1389

 eigenvalue-minimisations  :    48
 total energy-change (2. order) : 0.5845777E-09  (-0.2870990E-08)
 number of electron      15.9999994 magnetization 
 augmentation part        0.3927946 magnetization 

 Broyden mixing:
  rms(total) = 0.34496E-05    rms(broyden)= 0.34482E-05
  rms(prec ) = 0.35089E-05
  weight for this iteration     100.00

 eigenvalues of (default mixing * dielectric matrix)
  average eigenvalue GAMMA=   1.5449
  0.8581  1.1180  2.3440  1.8597

 Free energy of the ion-electron system (eV)
  ---------------------------------------------------
  alpha Z        PSCENC =         0.04144063
  Ewald energy   TEWEN  =       696.66880648
  -Hartree energ DENC   =     -1175.41241948
  -exchange      EXHF   =         0.00000000
  -V(xc)+E(xc)   XCENC  =        54.42028530
  PAW double counting   =      1208.38326291    -1211.11005405
  entropy T*S    EENTRO =         0.00000000
  eigenvalues    EBANDS =      -203.32354177
  atomic energy  EATOM  =       596.16534815
  Solvation  Ediel_sol  =         0.00000000
  ---------------------------------------------------
  free energy    TOTEN  =       -34.16687182 eV

  energy without entropy =      -34.16687182  energy(sigma->0) =      -34.16687182


--------------------------------------------------------------------------------------------------------




----------------------------------------- Iteration   74(   6)  ---------------------------------------


    POTLOK:  cpu time   24.0423: real time   24.0873
    SETDIJ:  cpu time    0.0060: real time    0.0063
     EDDAV:  cpu time   35.1107: real time   35.1792
       DOS:  cpu time    0.0000: real time    0.0002
    --------------------------------------------
      LOOP:  cpu time   59.1610: real time   59.2767

 eigenvalue-minimisations  :    48
 total energy-change (2. order) : 0.2082743E-09  (-0.2800694E-08)
 number of electron      15.9999994 magnetization 
 augmentation part        0.3927946 magnetization 

 Free energy of the ion-electron system (eV)
  ---------------------------------------------------
  alpha Z        PSCENC =         0.04144063
  Ewald energy   TEWEN  =       696.66880648
  -Hartree energ DENC   =     -1175.41240107
  -exchange      EXHF   =         0.00000000
  -V(xc)+E(xc)   XCENC  =        54.42028393
  PAW double counting   =      1208.38511486    -1211.11190529
  entropy T*S    EENTRO =         0.00000000
  eigenvalues    EBANDS =      -203.32355950
  atomic energy  EATOM  =       596.16534815
  Solvation  Ediel_sol  =         0.00000000
  ---------------------------------------------------
  free energy    TOTEN  =       -34.16687182 eV

  energy without entropy =      -34.16687182  energy(sigma->0) =      -34.16687182


--------------------------------------------------------------------------------------------------------




 average (electrostatic) potential at core
  the test charge radii are     0.5201  0.6991  0.7089
  (the norm of the test charge is              1.0000)
       1 -43.0397       2 -43.0403       3 -42.8345       4 -60.4223       5 -59.7642
       6 -74.3495
 
 
 
 E-fermi :  -6.3995     XC(G=0):  -0.0614     alpha+bet : -0.0137


 k-point     1 :       0.2500    0.2500    0.2500
  band No.  band energies     occupation 
      1     -23.7514      2.00000
      2     -17.9978      2.00000
      3     -12.1812      2.00000
      4     -11.5522      2.00000
      5     -10.9367      2.00000
      6      -9.4509      2.00000
      7      -8.4124      2.00000
      8      -7.3791      2.00000
      9      -3.0749      0.00000
     10      -0.6773      0.00000
     11      -0.3994      0.00000
     12       0.0259      0.00000

 k-point     2 :      -0.2500    0.2500    0.2500
  band No.  band energies     occupation 
      1     -23.7514      2.00000
      2     -17.9978      2.00000
      3     -12.1812      2.00000
      4     -11.5522      2.00000
      5     -10.9367      2.00000
      6      -9.4509      2.00000
      7      -8.4124      2.00000
      8      -7.3791      2.00000
      9      -3.0749      0.00000
     10      -0.6773      0.00000
     11      -0.3994      0.00000
     12       0.0227      0.00000

 k-point     3 :       0.2500   -0.2500    0.2500
  band No.  band energies     occupation 
      1     -23.7514      2.00000
      2     -17.9978      2.00000
      3     -12.1812      2.00000
      4     -11.5522      2.00000
      5     -10.9367      2.00000
      6      -9.4509      2.00000
      7      -8.4124      2.00000
      8      -7.3791      2.00000
      9      -3.0749      0.00000
     10      -0.6773      0.00000
     11      -0.3994      0.00000
     12       0.0242      0.00000

 k-point     4 :      -0.2500   -0.2500    0.2500
  band No.  band energies     occupation 
      1     -23.7514      2.00000
      2     -17.9978      2.00000
      3     -12.1812      2.00000
      4     -11.5522      2.00000
      5     -10.9367      2.00000
      6      -9.4509      2.00000
      7      -8.4124      2.00000
      8      -7.3791      2.00000
      9      -3.0749      0.00000
     10      -0.6773      0.00000
     11      -0.3994      0.00000
     12       0.0241      0.00000


--------------------------------------------------------------------------------------------------------


 soft charge-density along one line, spin component           1
         0         1         2         3         4         5         6         7         8         9
 total charge-density along one line
 
 pseudopotential strength for first ion, spin component:           1
 -2.362  -4.073  -0.002   0.000  -0.001
 -4.073  -6.940  -0.005   0.001  -0.002
 -0.002  -0.005  -0.329  -0.001   0.002
  0.000   0.001  -0.001  -0.333   0.000
 -0.001  -0.002   0.002   0.000  -0.333
 total augmentation occupancy for first ion, spin component:           1
  3.557  -0.642   0.422  -0.110   0.146
 -0.642   0.133  -0.077   0.019  -0.028
  0.422  -0.077   0.052  -0.011   0.015
 -0.110   0.019  -0.011   0.012  -0.004
  0.146  -0.028   0.015  -0.004   0.013


------------------------ aborting loop because EDIFF is reached ----------------------------------------


    CHARGE:  cpu time    5.1792: real time    5.1898
    FORLOC:  cpu time    2.3306: real time    2.3351
    FORNL :  cpu time   16.8794: real time   16.9137
    STRESS:  cpu time   51.4712: real time   51.5720
    FORCOR:  cpu time   20.5729: real time   20.6110
    FORHAR:  cpu time    7.4389: real time    7.4528
    MIXING:  cpu time    0.7499: real time    0.7506
    OFIELD:  cpu time    0.0000: real time    0.0000

  FORCE on cell =-STRESS in cart. coord.  units (eV):
  Direction    XX          YY          ZZ          XY          YZ          ZX
  --------------------------------------------------------------------------------------
  Alpha Z     0.04144     0.04144     0.04144
  Ewald     349.43489   159.90444   187.32958    50.74810   127.44827    53.66224
  Hartree   494.20176   335.07220   346.13849    27.60603    51.83737    28.80104
  E(xc)     -59.28505   -59.32602   -59.23123     0.10845     0.43568     0.11660
  Local   -1004.25707  -660.28755  -696.90194   -76.90793  -170.67177   -80.97324
  n-local   -17.20398   -25.53472   -26.34078    -1.19935    -3.71174    -1.39287
  augment     0.17063     0.67533     0.68196     0.08913     0.04812     0.10743
  Kinetic   237.09801   248.47015   247.24725     0.82781    -5.46782     1.08885
  Fock        0.00000     0.00000     0.00000     0.00000     0.00000     0.00000
  -------------------------------------------------------------------------------------
  Total       0.20064    -0.98472    -1.03524     1.27225    -0.08189     1.41005
  in kB       0.01191    -0.05843    -0.06143     0.07550    -0.00486     0.08367
  external pressure =       -0.04 kB  Pullay stress =        0.00 kB


 VOLUME and BASIS-vectors are now :
 -----------------------------------------------------------------------------
  energy-cutoff  :      400.00
  volume of cell :    27000.00
      direct lattice vectors                 reciprocal lattice vectors
    30.000000000  0.000000000  0.000000000     0.033333333  0.000000000  0.000000000
     0.000000000 30.000000000  0.000000000     0.000000000  0.033333333  0.000000000
     0.000000000  0.000000000 30.000000000     0.000000000  0.000000000  0.033333333

  length of vectors
    30.000000000 30.000000000 30.000000000     0.033333333  0.033333333  0.033333333


 FORCES acting on ions
    electron-ion (+dipol)            ewald-force                    non-local-force                 convergence-correction
 -----------------------------------------------------------------------------------------------
   0.327E+02 0.563E+02 -.142E+02   -.348E+02 -.618E+02 0.155E+02   0.181E+01 0.541E+01 -.144E+01   0.149E-06 0.197E-05 -.181E-06
   0.334E+02 -.204E+02 0.540E+02   -.355E+02 0.223E+02 -.593E+02   0.187E+01 -.204E+01 0.519E+01   0.295E-08 -.102E-05 0.231E-05
   0.331E+02 -.375E+02 -.425E+02   -.343E+02 0.409E+02 0.464E+02   0.147E+01 -.360E+01 -.407E+01   -.260E-06 -.210E-05 -.136E-05
   0.974E+02 0.634E+01 0.612E+01   -.105E+03 -.656E+01 -.630E+01   0.701E+01 -.632E-01 -.135E+00   -.155E-05 -.260E-05 0.857E-06
   -.636E+02 0.138E+03 0.155E+03   0.668E+02 -.150E+03 -.168E+03   -.402E+01 0.123E+02 0.138E+02   -.163E-04 -.535E-05 -.133E-05
   -.133E+03 -.132E+03 -.147E+03   0.142E+03 0.155E+03 0.172E+03   -.817E+01 -.223E+02 -.248E+02   -.133E-04 -.200E-05 0.396E-05
 -----------------------------------------------------------------------------------------------
   0.290E-01 0.102E+02 0.114E+02   0.000E+00 -.284E-13 0.000E+00   -.288E-01 -.102E+02 -.114E+02   -.312E-04 -.111E-04 0.425E-05
 
 
 POSITION                                       TOTAL-FORCE (eV/Angst)
 -----------------------------------------------------------------------------------
     14.24095     13.94847     15.20717        -0.303913     -0.138330     -0.118086
     14.22940     15.32117     13.98675        -0.302110     -0.106840     -0.147078
     14.31031     15.65725     15.74639         0.318860     -0.151334     -0.173986
     14.58407     14.94670     14.94450        -0.116015     -0.285170     -0.316364
     16.18762     14.67506     14.62496        -0.852637      0.446459      0.506623
     16.44832     15.45102     15.48963         1.255815      0.235216      0.248892
 -----------------------------------------------------------------------------------
    total drift:                                0.000090     -0.000944     -0.002563


--------------------------------------------------------------------------------------------------------



  FREE ENERGIE OF THE ION-ELECTRON SYSTEM (eV)
  ---------------------------------------------------
  free  energy   TOTEN  =       -34.16687182 eV

  energy  without entropy=      -34.16687182  energy(sigma->0) =      -34.16687182
 
 d Force =-0.6083404E-05[-0.612E-05,-0.605E-05]  d Energy =-0.6073876E-05-0.953E-08
 d Force =-0.6121318E-02[-0.612E-02,-0.612E-02]  d Ewald  =-0.6121318E-02 0.205E-10


--------------------------------------------------------------------------------------------------------


    POTLOK:  cpu time   20.9358: real time   21.0892


--------------------------------------------------------------------------------------------------------


 NEB: the previous image is higher in energy: T
 NEB: the next image is higher in energy    : F
 NEB: only prev energy greater

 NEB: Tangent
 ----------------------------------------------
     -0.16332     -0.07435     -0.06447
     -0.16116     -0.05673     -0.07925
      0.17050     -0.08147     -0.09365
     -0.06217     -0.15301     -0.17003
     -0.45666      0.24047      0.27373
      0.67282      0.12510      0.13368

 NEB: forces: par spring, perp REAL, dneb     0.000279    0.006027    0.000000
 NEB: distance to prev, next image, angle between     0.248504    0.248560  166.096899
 NEB: projections on to tangent (spring, REAL)     0.000279    1.864608

 stress matrix after NEB project (eV)
      0.20064      1.27225      1.41005
      1.27225     -0.98472     -0.08189
      1.41005     -0.08189     -1.03524
  FORCES: max atom, RMS     0.004340    0.002463
  FORCE total and by dimension    0.006033    0.003709
  Stress total and by dimension    3.051027    1.410051
 OPT: skip step - force has converged


--------------------------------------------------------------------------------------------------------


  
 reached required accuracy - stopping structural energy minimisation
     LOOP+:  cpu time  579.0110: real time  580.8340
    4ORBIT:  cpu time    0.0000: real time    0.0000

 total amount of memory used by VASP on root node  3203889. kBytes
========================================================================

   base      :      30000. kBytes
   nonlr-proj:        693. kBytes
   fftplans  :     924480. kBytes
   grid      :    1872000. kBytes
   one-center:         18. kBytes
   wavefun   :     376698. kBytes
 
  
  
 General timing and accounting informations for this job:
 ========================================================
  
                  Total CPU time used (sec):    49577.320
                            User time (sec):    48902.458
                          System time (sec):      674.861
                         Elapsed time (sec):    49851.716
  
                   Maximum memory used (kb):     4759812.
                   Average memory used (kb):           0.
  
                          Minor page faults:      7984166
                          Major page faults:            9
                 Voluntary context switches:         9109
