unknown system                          
           1
    30.000000    0.000000    0.000000
     0.000000   30.000000    0.000000
     0.000000    0.000000   30.000000
   H    C    N 
   3   2   1
Direct configuration=     1
   0.47465956  0.46496029  0.50677630
   0.47443649  0.51078445  0.46617134
   0.47694474  0.52188515  0.52485683
   0.48614634  0.49824415  0.49811682
   0.53964650  0.48912083  0.48759484
   0.54818882  0.51499394  0.51646387
Direct configuration=     2
   0.47465991  0.46496026  0.50677706
   0.47443568  0.51078384  0.46617160
   0.47694508  0.52188527  0.52485690
   0.48614635  0.49824406  0.49811704
   0.53964615  0.48912120  0.48759437
   0.54818929  0.51499418  0.51646302
Direct configuration=     3
   0.47466039  0.46496014  0.50677821
   0.47443447  0.51078294  0.46617198
   0.47694560  0.52188545  0.52485701
   0.48614626  0.49824390  0.49811729
   0.53964566  0.48912176  0.48759367
   0.54819008  0.51499461  0.51646183
Direct configuration=     4
   0.47466114  0.46495995  0.50677972
   0.47443305  0.51078173  0.46617247
   0.47694633  0.52188568  0.52485716
   0.48614620  0.49824366  0.49811757
   0.53964464  0.48912250  0.48759274
   0.54819111  0.51499528  0.51646034
Direct configuration=     5
   0.47466209  0.46495965  0.50678156
   0.47443137  0.51078024  0.46617303
   0.47694726  0.52188595  0.52485733
   0.48614613  0.49824327  0.49811787
   0.53964315  0.48912354  0.48759171
   0.54819247  0.51499614  0.51645850
Direct configuration=     6
   0.47466312  0.46495924  0.50678372
   0.47442937  0.51077848  0.46617362
   0.47694838  0.52188623  0.52485748
   0.48614594  0.49824270  0.49811819
   0.53964135  0.48912495  0.48759069
   0.54819430  0.51499721  0.51645630
Direct configuration=     7
   0.47466425  0.46495861  0.50678647
   0.47442670  0.51077621  0.46617431
   0.47694979  0.52188648  0.52485760
   0.48614554  0.49824188  0.49811854
   0.53963912  0.48912683  0.48758946
   0.54819706  0.51499878  0.51645362
Direct configuration=     8
   0.47466548  0.46495774  0.50678986
   0.47442324  0.51077336  0.46617513
   0.47695159  0.52188672  0.52485764
   0.48614435  0.49824067  0.49811907
   0.53963669  0.48912946  0.48758810
   0.54820111  0.51500086  0.51645020
Direct configuration=     9
   0.47466668  0.46495635  0.50679416
   0.47441869  0.51076971  0.46617620
   0.47695359  0.52188700  0.52485775
   0.48614292  0.49823923  0.49811958
   0.53963378  0.48913280  0.48758637
   0.54820680  0.51500372  0.51644594
Direct configuration=    10
   0.47466792  0.46495455  0.50679953
   0.47441262  0.51076511  0.46617755
   0.47695564  0.52188740  0.52485803
   0.48614214  0.49823737  0.49812011
   0.53963002  0.48913745  0.48758472
   0.54821411  0.51500693  0.51644007
Direct configuration=    11
   0.47466976  0.46495303  0.50680597
   0.47440510  0.51075927  0.46617955
   0.47695776  0.52188757  0.52485825
   0.48614177  0.49823479  0.49812099
   0.53962458  0.48914143  0.48758021
   0.54822349  0.51501272  0.51643503
Direct configuration=    12
   0.47466996  0.46495304  0.50680618
   0.47440495  0.51075907  0.46617973
   0.47695783  0.52188753  0.52485822
   0.48614176  0.49823484  0.49812114
   0.53962512  0.48914337  0.48758198
   0.54822285  0.51501096  0.51643274
Direct configuration=    13
   0.47467003  0.46495305  0.50680625
   0.47440493  0.51075902  0.46617979
   0.47695782  0.52188754  0.52485823
   0.48614175  0.49823485  0.49812118
   0.53962508  0.48914321  0.48758171
   0.54822285  0.51501113  0.51643285
Direct configuration=    14
   0.47467017  0.46495307  0.50680638
   0.47440489  0.51075893  0.46617989
   0.47695781  0.52188755  0.52485825
   0.48614174  0.49823487  0.49812127
   0.53962500  0.48914296  0.48758122
   0.54822285  0.51501142  0.51643299
Direct configuration=    15
   0.47467038  0.46495310  0.50680658
   0.47440482  0.51075879  0.46618006
   0.47695781  0.52188757  0.52485829
   0.48614172  0.49823490  0.49812140
   0.53962493  0.48914271  0.48758063
   0.54822280  0.51501171  0.51643304
Direct configuration=    16
   0.47467065  0.46495313  0.50680685
   0.47440471  0.51075861  0.46618026
   0.47695781  0.52188761  0.52485834
   0.48614171  0.49823494  0.49812157
   0.53962489  0.48914261  0.48758009
   0.54822269  0.51501191  0.51643288
Direct configuration=    17
   0.47467095  0.46495316  0.50680717
   0.47440456  0.51075839  0.46618049
   0.47695782  0.52188765  0.52485841
   0.48614170  0.49823498  0.49812176
   0.53962489  0.48914269  0.48757968
   0.54822253  0.51501195  0.51643249
Direct configuration=    18
   0.47467128  0.46495317  0.50680754
   0.47440437  0.51075815  0.46618073
   0.47695784  0.52188770  0.52485850
   0.48614171  0.49823500  0.49812197
   0.53962493  0.48914292  0.48757936
   0.54822232  0.51501186  0.51643190
Direct configuration=    19
   0.47467168  0.46495317  0.50680803
   0.47440410  0.51075784  0.46618102
   0.47695789  0.52188778  0.52485862
   0.48614173  0.49823503  0.49812222
   0.53962498  0.48914329  0.48757903
   0.54822208  0.51501171  0.51643108
Direct configuration=    20
   0.47467217  0.46495314  0.50680866
   0.47440373  0.51075745  0.46618137
   0.47695796  0.52188790  0.52485879
   0.48614177  0.49823504  0.49812253
   0.53962498  0.48914362  0.48757846
   0.54822185  0.51501166  0.51643018
Direct configuration=    21
   0.47467275  0.46495308  0.50680946
   0.47440323  0.51075699  0.46618177
   0.47695807  0.52188807  0.52485903
   0.48614181  0.49823504  0.49812288
   0.53962489  0.48914376  0.48757746
   0.54822170  0.51501187  0.51642938
Direct configuration=    22
   0.47467342  0.46495299  0.50681046
   0.47440257  0.51075643  0.46618224
   0.47695826  0.52188829  0.52485934
   0.48614186  0.49823501  0.49812329
   0.53962467  0.48914374  0.48757602
   0.54822168  0.51501236  0.51642865
Direct configuration=    23
   0.47467417  0.46495283  0.50681173
   0.47440164  0.51075573  0.46618278
   0.47695858  0.52188857  0.52485974
   0.48614191  0.49823494  0.49812376
   0.53962438  0.48914388  0.48757441
   0.54822178  0.51501285  0.51642758
Direct configuration=    24
   0.47467497  0.46495261  0.50681328
   0.47440039  0.51075488  0.46618340
   0.47695909  0.52188889  0.52486018
   0.48614191  0.49823483  0.49812427
   0.53962410  0.48914455  0.48757304
   0.54822199  0.51501304  0.51642583
Direct configuration=    25
   0.47467583  0.46495235  0.50681519
   0.47439872  0.51075382  0.46618416
   0.47695988  0.52188924  0.52486067
   0.48614183  0.49823465  0.49812484
   0.53962369  0.48914561  0.48757162
   0.54822249  0.51501314  0.51642351
Direct configuration=    26
   0.47467679  0.46495210  0.50681752
   0.47439660  0.51075254  0.46618511
   0.47696098  0.52188962  0.52486122
   0.48614162  0.49823439  0.49812549
   0.53962293  0.48914630  0.48756929
   0.54822353  0.51501386  0.51642136
Direct configuration=    27
   0.47467784  0.46495188  0.50682041
   0.47439383  0.51075093  0.46618635
   0.47696251  0.52189007  0.52486184
   0.48614129  0.49823404  0.49812625
   0.53962185  0.48914704  0.48756634
   0.54822515  0.51501485  0.51641881
Direct configuration=    28
   0.47467896  0.46495166  0.50682391
   0.47439032  0.51074897  0.46618787
   0.47696448  0.52189060  0.52486255
   0.48614094  0.49823360  0.49812711
   0.53962075  0.48914895  0.48756398
   0.54822701  0.51501502  0.51641458
Direct configuration=    29
   0.47468027  0.46495149  0.50682821
   0.47438598  0.51074662  0.46618979
   0.47696689  0.52189134  0.52486347
   0.48614065  0.49823310  0.49812819
   0.53961904  0.48915001  0.48755978
   0.54822963  0.51501624  0.51641055
Direct configuration=    30
   0.47468181  0.46495132  0.50683361
   0.47438054  0.51074373  0.46619221
   0.47696986  0.52189239  0.52486469
   0.48614053  0.49823256  0.49812959
   0.53961721  0.48915206  0.48755550
   0.54823251  0.51501674  0.51640440
Direct configuration=    31
   0.47468384  0.46495119  0.50684035
   0.47437402  0.51074018  0.46619538
   0.47697339  0.52189378  0.52486634
   0.48614038  0.49823199  0.49813155
   0.53961484  0.48915317  0.48754822
   0.54823599  0.51501850  0.51639815
Direct configuration=    32
   0.47468632  0.46495108  0.50684851
   0.47436630  0.51073598  0.46619929
   0.47697772  0.52189547  0.52486837
   0.48614016  0.49823143  0.49813409
   0.53961331  0.48915807  0.48754331
   0.54823865  0.51501678  0.51638643
Direct configuration=    33
   0.47468657  0.46495114  0.50684882
   0.47436623  0.51073589  0.46619950
   0.47697776  0.52189558  0.52486852
   0.48614008  0.49823147  0.49813423
   0.53961255  0.48915547  0.48754004
   0.54823926  0.51501926  0.51638888
Direct configuration=    34
   0.47468660  0.46495113  0.50684889
   0.47436618  0.51073586  0.46619953
   0.47697780  0.52189560  0.52486854
   0.48614008  0.49823147  0.49813426
   0.53961257  0.48915562  0.48754011
   0.54823922  0.51501913  0.51638866
Direct configuration=    35
   0.47468666  0.46495112  0.50684903
   0.47436608  0.51073580  0.46619960
   0.47697787  0.52189563  0.52486858
   0.48614008  0.49823146  0.49813431
   0.53961261  0.48915586  0.48754020
   0.54823916  0.51501892  0.51638827
Direct configuration=    36
   0.47468674  0.46495111  0.50684925
   0.47436592  0.51073571  0.46619970
   0.47697799  0.52189568  0.52486865
   0.48614007  0.49823146  0.49813439
   0.53961261  0.48915614  0.48754022
   0.54823912  0.51501871  0.51638778
Direct configuration=    37
   0.47468686  0.46495109  0.50684955
   0.47436571  0.51073558  0.46619983
   0.47697815  0.52189574  0.52486874
   0.48614006  0.49823145  0.49813450
   0.53961256  0.48915635  0.48754008
   0.54823912  0.51501859  0.51638731
Direct configuration=    38
   0.47468700  0.46495107  0.50684989
   0.47436545  0.51073543  0.46620000
   0.47697834  0.52189582  0.52486884
   0.48614003  0.49823143  0.49813461
   0.53961243  0.48915645  0.48753974
   0.54823920  0.51501860  0.51638692
Direct configuration=    39
   0.47468715  0.46495105  0.50685029
   0.47436514  0.51073526  0.46620018
   0.47697857  0.52189590  0.52486895
   0.48614000  0.49823140  0.49813473
   0.53961221  0.48915646  0.48753923
   0.54823939  0.51501875  0.51638661
Direct configuration=    40
   0.47468732  0.46495102  0.50685078
   0.47436474  0.51073503  0.46620040
   0.47697887  0.52189600  0.52486909
   0.48613995  0.49823134  0.49813488
   0.53961188  0.48915640  0.48753853
   0.54823969  0.51501902  0.51638632
Direct configuration=    41
   0.47468753  0.46495097  0.50685141
   0.47436420  0.51073473  0.46620068
   0.47697926  0.52189612  0.52486925
   0.48613988  0.49823126  0.49813505
   0.53961146  0.48915642  0.48753775
   0.54824013  0.51501931  0.51638586
Direct configuration=    42
   0.47468776  0.46495091  0.50685217
   0.47436351  0.51073435  0.46620101
   0.47697975  0.52189626  0.52486944
   0.48613979  0.49823115  0.49813525
   0.53961098  0.48915667  0.48753705
   0.54824065  0.51501947  0.51638507
Direct configuration=    43
   0.47468802  0.46495083  0.50685309
   0.47436264  0.51073388  0.46620141
   0.47698036  0.52189643  0.52486965
   0.48613968  0.49823101  0.49813549
   0.53961048  0.48915722  0.48753652
   0.54824128  0.51501944  0.51638383
Direct configuration=    44
   0.47468832  0.46495073  0.50685423
   0.47436153  0.51073329  0.46620190
   0.47698109  0.52189663  0.52486991
   0.48613953  0.49823084  0.49813579
   0.53960988  0.48915792  0.48753592
   0.54824211  0.51501939  0.51638224
Direct configuration=    45
   0.47468868  0.46495062  0.50685561
   0.47436019  0.51073257  0.46620252
   0.47698194  0.52189690  0.52487025
   0.48613934  0.49823065  0.49813617
   0.53960906  0.48915838  0.48753474
   0.54824325  0.51501969  0.51638071
Direct configuration=    46
   0.47468911  0.46495050  0.50685728
   0.47435859  0.51073168  0.46620331
   0.47698290  0.52189724  0.52487068
   0.48613912  0.49823044  0.49813664
   0.53960800  0.48915859  0.48753293
   0.54824474  0.51502034  0.51637915
Direct configuration=    47
   0.47468960  0.46495036  0.50685929
   0.47435664  0.51073061  0.46620427
   0.47698401  0.52189768  0.52487122
   0.48613887  0.49823021  0.49813723
   0.53960694  0.48915927  0.48753127
   0.54824640  0.51502067  0.51637672
Direct configuration=    48
   0.47469017  0.46495022  0.50686170
   0.47435431  0.51072932  0.46620543
   0.47698526  0.52189825  0.52487189
   0.48613863  0.49822996  0.49813798
   0.53960592  0.48916037  0.48752972
   0.54824818  0.51502067  0.51637328
Direct configuration=    49
   0.47469092  0.46495015  0.50686456
   0.47435164  0.51072783  0.46620681
   0.47698658  0.52189897  0.52487270
   0.48613838  0.49822973  0.49813896
   0.53960466  0.48916055  0.48752683
   0.54825027  0.51502157  0.51637014
Direct configuration=    50
   0.47469190  0.46495018  0.50686806
   0.47434850  0.51072605  0.46620851
   0.47698809  0.52189985  0.52487366
   0.48613820  0.49822956  0.49814025
   0.53960357  0.48916086  0.48752375
   0.54825220  0.51502231  0.51636577
Direct configuration=    51
   0.47469317  0.46495034  0.50687237
   0.47434484  0.51072391  0.46621061
   0.47698991  0.52190092  0.52487478
   0.48613810  0.49822949  0.49814174
   0.53960272  0.48916140  0.48752060
   0.54825372  0.51502275  0.51635989
Direct configuration=    52
   0.47469480  0.46495067  0.50687750
   0.47434080  0.51072148  0.46621310
   0.47699205  0.52190220  0.52487612
   0.48613802  0.49822942  0.49814347
   0.53960135  0.48915986  0.48751478
   0.54825544  0.51502517  0.51635502
Direct configuration=    53
   0.47469481  0.46495066  0.50687766
   0.47434066  0.51072143  0.46621312
   0.47699219  0.52190222  0.52487614
   0.48613805  0.49822939  0.49814351
   0.53960157  0.48916066  0.48751557
   0.54825519  0.51502445  0.51635400
Direct configuration=    54
   0.47469493  0.46495066  0.50687824
   0.47434018  0.51072119  0.46621327
   0.47699259  0.52190233  0.52487624
   0.48613808  0.49822934  0.49814367
   0.53960170  0.48916146  0.48751603
   0.54825497  0.51502383  0.51635255
Direct configuration=    55
   0.47469497  0.46495067  0.50687839
   0.47434007  0.51072112  0.46621333
   0.47699267  0.52190237  0.52487627
   0.48613808  0.49822933  0.49814370
   0.53960161  0.48916133  0.48751575
   0.54825505  0.51502399  0.51635256
Direct configuration=    56
   0.47469506  0.46495068  0.50687868
   0.47433984  0.51072098  0.46621344
   0.47699284  0.52190244  0.52487634
   0.48613807  0.49822931  0.49814377
   0.53960146  0.48916108  0.48751521
   0.54825519  0.51502431  0.51635256
Direct configuration=    57
   0.47469517  0.46495069  0.50687912
   0.47433949  0.51072078  0.46621361
   0.47699309  0.52190255  0.52487644
   0.48613806  0.49822928  0.49814388
   0.53960124  0.48916079  0.48751449
   0.54825540  0.51502471  0.51635246
Direct configuration=    58
   0.47469532  0.46495071  0.50687970
   0.47433901  0.51072050  0.46621384
   0.47699344  0.52190269  0.52487657
   0.48613804  0.49822924  0.49814401
   0.53960099  0.48916057  0.48751371
   0.54825566  0.51502511  0.51635217
Direct configuration=    59
   0.47469549  0.46495072  0.50688041
   0.47433840  0.51072015  0.46621411
   0.47699388  0.52190285  0.52487671
   0.48613802  0.49822918  0.49814417
   0.53960072  0.48916050  0.48751299
   0.54825594  0.51502541  0.51635161
Direct configuration=    60
   0.47469568  0.46495074  0.50688123
   0.47433768  0.51071976  0.46621441
   0.47699442  0.52190304  0.52487687
   0.48613797  0.49822904  0.49814435
   0.53960045  0.48916064  0.48751238
   0.54825626  0.51502559  0.51635075
Direct configuration=    61
   0.47469589  0.46495076  0.50688225
   0.47433677  0.51071926  0.46621478
   0.47699510  0.52190329  0.52487706
   0.48613787  0.49822881  0.49814458
   0.53960015  0.48916103  0.48751185
   0.54825667  0.51502566  0.51634949
Direct configuration=    62
   0.47469613  0.46495077  0.50688352
   0.47433562  0.51071865  0.46621524
   0.47699599  0.52190358  0.52487726
   0.48613771  0.49822847  0.49814483
   0.53959974  0.48916165  0.48751134
   0.54825726  0.51502568  0.51634781
Direct configuration=    63
   0.47469639  0.46495074  0.50688508
   0.47433415  0.51071787  0.46621580
   0.47699712  0.52190393  0.52487748
   0.48613748  0.49822803  0.49814512
   0.53959912  0.48916238  0.48751065
   0.54825820  0.51502586  0.51634585
Direct configuration=    64
   0.47469667  0.46495065  0.50688697
   0.47433235  0.51071691  0.46621650
   0.47699851  0.52190432  0.52487771
   0.48613717  0.49822752  0.49814545
   0.53959817  0.48916299  0.48750954
   0.54825958  0.51502641  0.51634383
Direct configuration=    65
   0.47469694  0.46495049  0.50688920
   0.47433018  0.51071576  0.46621732
   0.47700013  0.52190478  0.52487792
   0.48613689  0.49822690  0.49814596
   0.53959685  0.48916343  0.48750787
   0.54826146  0.51502745  0.51634174
Direct configuration=    66
   0.47469716  0.46495018  0.50689182
   0.47432754  0.51071435  0.46621832
   0.47700202  0.52190530  0.52487809
   0.48613667  0.49822621  0.49814665
   0.53959518  0.48916401  0.48750594
   0.54826388  0.51502875  0.51633918
Direct configuration=    67
   0.47469731  0.46494974  0.50689481
   0.47432448  0.51071267  0.46621954
   0.47700412  0.52190588  0.52487825
   0.48613652  0.49822552  0.49814742
   0.53959337  0.48916522  0.48750439
   0.54826665  0.51502978  0.51633559
Direct configuration=    68
   0.47469743  0.46494922  0.50689817
   0.47432102  0.51071063  0.46622111
   0.47700633  0.52190657  0.52487848
   0.48613637  0.49822481  0.49814815
   0.53959146  0.48916696  0.48750313
   0.54826984  0.51503061  0.51633095
Direct configuration=    69
   0.47469764  0.46494883  0.50690177
   0.47431736  0.51070834  0.46622297
   0.47700846  0.52190739  0.52487887
   0.48613615  0.49822403  0.49814887
   0.53958926  0.48916784  0.48750083
   0.54827360  0.51503237  0.51632669
Direct configuration=    70
   0.47469810  0.46494890  0.50690554
   0.47431355  0.51070583  0.46622500
   0.47701027  0.52190832  0.52487951
   0.48613575  0.49822306  0.49814984
   0.53958710  0.48916803  0.48749786
   0.54827768  0.51503467  0.51632225
Direct configuration=    71
   0.47469810  0.46494891  0.50690554
   0.47431356  0.51070583  0.46622497
   0.47701025  0.52190830  0.52487952
   0.48613576  0.49822309  0.49814987
   0.53958719  0.48916821  0.48749809
   0.54827761  0.51503446  0.51632201
Direct configuration=    72
   0.47469812  0.46494892  0.50690558
   0.47431353  0.51070582  0.46622495
   0.47701023  0.52190829  0.52487954
   0.48613576  0.49822315  0.49814994
   0.53958732  0.48916848  0.48749842
   0.54827750  0.51503414  0.51632157
Direct configuration=    73
   0.47469817  0.46494896  0.50690573
   0.47431341  0.51070575  0.46622495
   0.47701025  0.52190830  0.52487959
   0.48613577  0.49822323  0.49815006
   0.53958742  0.48916871  0.48749863
   0.54827744  0.51503386  0.51632104
Direct configuration=    74
   0.47469817  0.46494896  0.50690573
   0.47431341  0.51070575  0.46622495
   0.47701025  0.52190830  0.52487959
   0.48613577  0.49822323  0.49815006
   0.53958742  0.48916871  0.48749863
   0.54827744  0.51503386  0.51632104
