   6   6   0   0
  0.4500000E+04  0.3000000E-08  0.3000000E-08  0.3000000E-08  0.0000000E+00
  1.000000000000000E-004
  CAR 
 unknown system                          
      2.02836528    -25.26589018  301     -6.70544107      1.00000000
    -25.266  0.0000E+00  0.0000E+00
    -25.175  0.0000E+00  0.0000E+00
    -25.084  0.0000E+00  0.0000E+00
    -24.993  0.0000E+00  0.0000E+00
    -24.902  0.0000E+00  0.0000E+00
    -24.811  0.0000E+00  0.0000E+00
    -24.720  0.0000E+00  0.0000E+00
    -24.629  0.0000E+00  0.0000E+00
    -24.538  0.0000E+00  0.0000E+00
    -24.447  0.4068E-17  0.3701E-18
    -24.356  0.4596E-15  0.4219E-16
    -24.265  0.5817E-13  0.5335E-14
    -24.174  0.4864E-11  0.4479E-12
    -24.083  0.2707E-09  0.2507E-10
    -23.992  0.1003E-07  0.9380E-09
    -23.901  0.2480E-06  0.2350E-07
    -23.810  0.4090E-05  0.3956E-06
    -23.719  0.4505E-04  0.4494E-05
    -23.628  0.3317E-03  0.3467E-04
    -23.537  0.1634E-02  0.1834E-03
    -23.446  0.5390E-02  0.6738E-03
    -23.355  0.1191E-01  0.1758E-02
    -23.264  0.1765E-01  0.3363E-02
    -23.173  0.1752E-01  0.4957E-02
    -23.082  0.1167E-01  0.6019E-02
    -22.991  0.5207E-02  0.6493E-02
    -22.900  0.1557E-02  0.6634E-02
    -22.809  0.3116E-03  0.6663E-02
    -22.718  0.4173E-04  0.6666E-02
    -22.627  0.3736E-05  0.6667E-02
    -22.536  0.2234E-06  0.6667E-02
    -22.445  0.8913E-08  0.6667E-02
    -22.355  0.2371E-09  0.6667E-02
    -22.264  0.4200E-11  0.6667E-02
    -22.173  0.4953E-13  0.6667E-02
    -22.082  0.3905E-15  0.6667E-02
    -21.991  0.0000E+00  0.6667E-02
    -21.900  0.0000E+00  0.6667E-02
    -21.809  0.0000E+00  0.6667E-02
    -21.718  0.0000E+00  0.6667E-02
    -21.627  0.0000E+00  0.6667E-02
    -21.536  0.0000E+00  0.6667E-02
    -21.445  0.0000E+00  0.6667E-02
    -21.354  0.0000E+00  0.6667E-02
    -21.263  0.0000E+00  0.6667E-02
    -21.172  0.0000E+00  0.6667E-02
    -21.081  0.0000E+00  0.6667E-02
    -20.990  0.0000E+00  0.6667E-02
    -20.899  0.0000E+00  0.6667E-02
    -20.808  0.0000E+00  0.6667E-02
    -20.717  0.0000E+00  0.6667E-02
    -20.626  0.0000E+00  0.6667E-02
    -20.535  0.0000E+00  0.6667E-02
    -20.444  0.0000E+00  0.6667E-02
    -20.353  0.0000E+00  0.6667E-02
    -20.262  0.0000E+00  0.6667E-02
    -20.171  0.0000E+00  0.6667E-02
    -20.080  0.0000E+00  0.6667E-02
    -19.989  0.0000E+00  0.6667E-02
    -19.898  0.0000E+00  0.6667E-02
    -19.807  0.0000E+00  0.6667E-02
    -19.716  0.0000E+00  0.6667E-02
    -19.625  0.0000E+00  0.6667E-02
    -19.534  0.1464E-15  0.6667E-02
    -19.443  0.2010E-13  0.6667E-02
    -19.352  0.1844E-11  0.6667E-02
    -19.261  0.1125E-09  0.6667E-02
    -19.170  0.4575E-08  0.6667E-02
    -19.079  0.1240E-06  0.6667E-02
    -18.988  0.2241E-05  0.6667E-02
    -18.897  0.2706E-04  0.6669E-02
    -18.806  0.2183E-03  0.6689E-02
    -18.715  0.1178E-02  0.6796E-02
    -18.624  0.4257E-02  0.7184E-02
    -18.533  0.1030E-01  0.8121E-02
    -18.442  0.1672E-01  0.9642E-02
    -18.351  0.1818E-01  0.1130E-01
    -18.260  0.1325E-01  0.1250E-01
    -18.169  0.6478E-02  0.1309E-01
    -18.078  0.2121E-02  0.1328E-01
    -17.987  0.4652E-03  0.1333E-01
    -17.896  0.6827E-04  0.1333E-01
    -17.805  0.6698E-05  0.1333E-01
    -17.714  0.4390E-06  0.1333E-01
    -17.623  0.1920E-07  0.1333E-01
    -17.533  0.5601E-09  0.1333E-01
    -17.442  0.1088E-10  0.1333E-01
    -17.351  0.1408E-12  0.1333E-01
    -17.260  0.1212E-14  0.1333E-01
    -17.169  0.8135E-17  0.1333E-01
    -17.078  0.0000E+00  0.1333E-01
    -16.987  0.0000E+00  0.1333E-01
    -16.896  0.0000E+00  0.1333E-01
    -16.805  0.0000E+00  0.1333E-01
    -16.714  0.0000E+00  0.1333E-01
    -16.623  0.0000E+00  0.1333E-01
    -16.532  0.0000E+00  0.1333E-01
    -16.441  0.0000E+00  0.1333E-01
    -16.350  0.0000E+00  0.1333E-01
    -16.259  0.0000E+00  0.1333E-01
    -16.168  0.0000E+00  0.1333E-01
    -16.077  0.0000E+00  0.1333E-01
    -15.986  0.0000E+00  0.1333E-01
    -15.895  0.0000E+00  0.1333E-01
    -15.804  0.0000E+00  0.1333E-01
    -15.713  0.0000E+00  0.1333E-01
    -15.622  0.0000E+00  0.1333E-01
    -15.531  0.0000E+00  0.1333E-01
    -15.440  0.0000E+00  0.1333E-01
    -15.349  0.0000E+00  0.1333E-01
    -15.258  0.0000E+00  0.1333E-01
    -15.167  0.0000E+00  0.1333E-01
    -15.076  0.0000E+00  0.1333E-01
    -14.985  0.0000E+00  0.1333E-01
    -14.894  0.0000E+00  0.1333E-01
    -14.803  0.0000E+00  0.1333E-01
    -14.712  0.0000E+00  0.1333E-01
    -14.621  0.0000E+00  0.1333E-01
    -14.530  0.0000E+00  0.1333E-01
    -14.439  0.0000E+00  0.1333E-01
    -14.348  0.0000E+00  0.1333E-01
    -14.257  0.0000E+00  0.1333E-01
    -14.166  0.0000E+00  0.1333E-01
    -14.075  0.0000E+00  0.1333E-01
    -13.984  0.0000E+00  0.1333E-01
    -13.893  0.0000E+00  0.1333E-01
    -13.802  0.0000E+00  0.1333E-01
    -13.711  0.0000E+00  0.1333E-01
    -13.620  0.0000E+00  0.1333E-01
    -13.529  0.0000E+00  0.1333E-01
    -13.438  0.0000E+00  0.1333E-01
    -13.347  0.0000E+00  0.1333E-01
    -13.256  0.3091E-15  0.1333E-01
    -13.165  0.4004E-13  0.1333E-01
    -13.074  0.3460E-11  0.1333E-01
    -12.983  0.1989E-09  0.1333E-01
    -12.892  0.7619E-08  0.1333E-01
    -12.802  0.1945E-06  0.1333E-01
    -12.711  0.3314E-05  0.1333E-01
    -12.620  0.3771E-04  0.1334E-01
    -12.529  0.2868E-03  0.1336E-01
    -12.438  0.1459E-02  0.1350E-01
    -12.347  0.4970E-02  0.1395E-01
    -12.256  0.1134E-01  0.1498E-01
    -12.165  0.1735E-01  0.1656E-01
    -12.074  0.1779E-01  0.1818E-01
    -11.983  0.1224E-01  0.1929E-01
    -11.892  0.5693E-02  0.1981E-01
    -11.801  0.2130E-02  0.2000E-01
    -11.710  0.2208E-02  0.2020E-01
    -11.619  0.5932E-02  0.2074E-01
    -11.528  0.1255E-01  0.2189E-01
    -11.437  0.1799E-01  0.2352E-01
    -11.346  0.1764E-01  0.2513E-01
    -11.255  0.1317E-01  0.2633E-01
    -11.164  0.1126E-01  0.2735E-01
    -11.073  0.1466E-01  0.2868E-01
    -10.982  0.1845E-01  0.3036E-01
    -10.891  0.1673E-01  0.3188E-01
    -10.800  0.1027E-01  0.3282E-01
    -10.709  0.4236E-02  0.3320E-01
    -10.618  0.1170E-02  0.3331E-01
    -10.527  0.2164E-03  0.3333E-01
    -10.436  0.2677E-04  0.3333E-01
    -10.345  0.2213E-05  0.3333E-01
    -10.254  0.1222E-06  0.3333E-01
    -10.163  0.4508E-08  0.3333E-01
    -10.072  0.4927E-09  0.3333E-01
     -9.981  0.1366E-07  0.3333E-01
     -9.890  0.3253E-06  0.3333E-01
     -9.799  0.5172E-05  0.3333E-01
     -9.708  0.5492E-04  0.3334E-01
     -9.617  0.3899E-03  0.3337E-01
     -9.526  0.1852E-02  0.3354E-01
     -9.435  0.5890E-02  0.3408E-01
     -9.344  0.1255E-01  0.3522E-01
     -9.253  0.1793E-01  0.3685E-01
     -9.162  0.1717E-01  0.3841E-01
     -9.071  0.1102E-01  0.3942E-01
     -8.980  0.4744E-02  0.3985E-01
     -8.889  0.1371E-02  0.3997E-01
     -8.798  0.3024E-03  0.4000E-01
     -8.707  0.3254E-03  0.4003E-01
     -8.616  0.1480E-02  0.4016E-01
     -8.525  0.5015E-02  0.4062E-01
     -8.434  0.1140E-01  0.4166E-01
     -8.343  0.1739E-01  0.4324E-01
     -8.252  0.1777E-01  0.4486E-01
     -8.161  0.1219E-01  0.4597E-01
     -8.071  0.5740E-02  0.4649E-01
     -7.980  0.2592E-02  0.4672E-01
     -7.889  0.3764E-02  0.4707E-01
     -7.798  0.8981E-02  0.4788E-01
     -7.707  0.1569E-01  0.4931E-01
     -7.616  0.1846E-01  0.5099E-01
     -7.525  0.1456E-01  0.5231E-01
     -7.434  0.7703E-02  0.5302E-01
     -7.343  0.2730E-02  0.5326E-01
     -7.252  0.6482E-03  0.5332E-01
     -7.161  0.1030E-03  0.5333E-01
     -7.070  0.1094E-04  0.5333E-01
     -6.979  0.7767E-06  0.5333E-01
     -6.888  0.3680E-07  0.5333E-01
     -6.797  0.1163E-08  0.5333E-01
     -6.706  0.2449E-10  0.5333E-01
     -6.615  0.3433E-12  0.5333E-01
     -6.524  0.3205E-14  0.5333E-01
     -6.433  0.1627E-16  0.5333E-01
     -6.342  0.0000E+00  0.5333E-01
     -6.251  0.0000E+00  0.5333E-01
     -6.160  0.0000E+00  0.5333E-01
     -6.069  0.0000E+00  0.5333E-01
     -5.978  0.0000E+00  0.5333E-01
     -5.887  0.0000E+00  0.5333E-01
     -5.796  0.0000E+00  0.5333E-01
     -5.705  0.0000E+00  0.5333E-01
     -5.614  0.0000E+00  0.5333E-01
     -5.523  0.0000E+00  0.5333E-01
     -5.432  0.0000E+00  0.5333E-01
     -5.341  0.0000E+00  0.5333E-01
     -5.250  0.0000E+00  0.5333E-01
     -5.159  0.0000E+00  0.5333E-01
     -5.068  0.0000E+00  0.5333E-01
     -4.977  0.0000E+00  0.5333E-01
     -4.886  0.0000E+00  0.5333E-01
     -4.795  0.0000E+00  0.5333E-01
     -4.704  0.0000E+00  0.5333E-01
     -4.613  0.0000E+00  0.5333E-01
     -4.522  0.0000E+00  0.5333E-01
     -4.431  0.0000E+00  0.5333E-01
     -4.340  0.5695E-16  0.5333E-01
     -4.249  0.8488E-14  0.5333E-01
     -4.158  0.8382E-12  0.5333E-01
     -4.067  0.5508E-10  0.5333E-01
     -3.976  0.2410E-08  0.5333E-01
     -3.885  0.7028E-07  0.5333E-01
     -3.794  0.1367E-05  0.5333E-01
     -3.703  0.1776E-04  0.5334E-01
     -3.612  0.1541E-03  0.5335E-01
     -3.521  0.8944E-03  0.5343E-01
     -3.430  0.3475E-02  0.5375E-01
     -3.340  0.9044E-02  0.5457E-01
     -3.249  0.1577E-01  0.5600E-01
     -3.158  0.1844E-01  0.5768E-01
     -3.067  0.1446E-01  0.5900E-01
     -2.976  0.7597E-02  0.5969E-01
     -2.885  0.2675E-02  0.5993E-01
     -2.794  0.6309E-03  0.5999E-01
     -2.703  0.9958E-04  0.6000E-01
     -2.612  0.1051E-04  0.6000E-01
     -2.521  0.7411E-06  0.6000E-01
     -2.430  0.3488E-07  0.6000E-01
     -2.339  0.1095E-08  0.6000E-01
     -2.248  0.2290E-10  0.6000E-01
     -2.157  0.3190E-12  0.6000E-01
     -2.066  0.2961E-14  0.6000E-01
     -1.975  0.1627E-16  0.6000E-01
     -1.884  0.0000E+00  0.6000E-01
     -1.793  0.0000E+00  0.6000E-01
     -1.702  0.0000E+00  0.6000E-01
     -1.611  0.1017E-15  0.6000E-01
     -1.520  0.1453E-13  0.6000E-01
     -1.429  0.1372E-11  0.6000E-01
     -1.338  0.8625E-10  0.6000E-01
     -1.247  0.3615E-08  0.6000E-01
     -1.156  0.1012E-06  0.6000E-01
     -1.065  0.1895E-05  0.6000E-01
     -0.974  0.2383E-04  0.6000E-01
     -0.883  0.2020E-03  0.6002E-01
     -0.792  0.1162E-02  0.6013E-01
     -0.701  0.4574E-02  0.6054E-01
     -0.610  0.1248E-01  0.6168E-01
     -0.519  0.2395E-01  0.6386E-01
     -0.428  0.3278E-01  0.6684E-01
     -0.337  0.3248E-01  0.6979E-01
     -0.246  0.2429E-01  0.7200E-01
     -0.155  0.1671E-01  0.7353E-01
     -0.064  0.1583E-01  0.7497E-01
      0.027  0.1858E-01  0.7666E-01
      0.118  0.1774E-01  0.7827E-01
      0.209  0.1179E-01  0.7934E-01
      0.300  0.5283E-02  0.7982E-01
      0.391  0.1588E-02  0.7997E-01
      0.482  0.3198E-03  0.8000E-01
      0.573  0.4308E-04  0.8000E-01
      0.664  0.3880E-05  0.8000E-01
      0.755  0.2334E-06  0.8000E-01
      0.846  0.9367E-08  0.8000E-01
      0.937  0.2506E-09  0.8000E-01
      1.028  0.4468E-11  0.8000E-01
      1.119  0.5301E-13  0.8000E-01
      1.210  0.4210E-15  0.8000E-01
      1.301  0.0000E+00  0.8000E-01
      1.391  0.0000E+00  0.8000E-01
      1.482  0.0000E+00  0.8000E-01
      1.573  0.0000E+00  0.8000E-01
      1.664  0.0000E+00  0.8000E-01
      1.755  0.0000E+00  0.8000E-01
      1.846  0.0000E+00  0.8000E-01
      1.937  0.0000E+00  0.8000E-01
      2.028  0.0000E+00  0.8000E-01
