    6    6  300    1
  0.4500000E+04  0.3000000E-08  0.3000000E-08  0.3000000E-08  0.0000000E+00
  1.000000000000000E-004
  CAR 
 unknown system                          
     16      4     12
 
  0.2500000E+00  0.2500000E+00  0.2500000E+00  0.2500000E+00
    1      -23.265889   1.000000
    2      -18.423232   1.000000
    3      -12.158914   1.000000
    4      -11.446519   1.000000
    5      -11.001414   1.000000
    6       -9.263110   1.000000
    7       -8.338495   1.000000
    8       -7.669517   1.000000
    9       -3.212939   0.000000
   10       -0.493749   0.000000
   11       -0.372305   0.000000
   12        0.028365   0.000000
 
 -0.2500000E+00  0.2500000E+00  0.2500000E+00  0.2500000E+00
    1      -23.265890   1.000000
    2      -18.423229   1.000000
    3      -12.158912   1.000000
    4      -11.446522   1.000000
    5      -11.001419   1.000000
    6       -9.263106   1.000000
    7       -8.338498   1.000000
    8       -7.669507   1.000000
    9       -3.212962   0.000000
   10       -0.493742   0.000000
   11       -0.372306   0.000000
   12        0.025424   0.000000
 
  0.2500000E+00 -0.2500000E+00  0.2500000E+00  0.2500000E+00
    1      -23.265890   1.000000
    2      -18.423230   1.000000
    3      -12.158912   1.000000
    4      -11.446529   1.000000
    5      -11.001419   1.000000
    6       -9.263106   1.000000
    7       -8.338503   1.000000
    8       -7.669513   1.000000
    9       -3.212944   0.000000
   10       -0.493749   0.000000
   11       -0.372304   0.000000
   12        0.026387   0.000000
 
 -0.2500000E+00 -0.2500000E+00  0.2500000E+00  0.2500000E+00
    1      -23.265890   1.000000
    2      -18.423230   1.000000
    3      -12.158914   1.000000
    4      -11.446523   1.000000
    5      -11.001417   1.000000
    6       -9.263102   1.000000
    7       -8.338517   1.000000
    8       -7.669513   1.000000
    9       -3.212945   0.000000
   10       -0.493748   0.000000
   11       -0.372305   0.000000
   12        0.025853   0.000000
