 vasp.5.4.1 24Jun15 (build Jan 13 2020 12:58:22) complex                        
  
 executed on           IFC91_ompi date 2020.02.03  02:42:24
 running on   15 total cores
 each image running on    1 cores
 distrk:  each k-point on    1 cores,    1 groups
 distr:  one band on NCORES_PER_BAND=   1 cores,    1 groups


--------------------------------------------------------------------------------------------------------


 INCAR:
 POTCAR:    PAW_PBE H 15Jun2001                   
 POTCAR:    PAW_PBE C 08Apr2002                   
 POTCAR:    PAW_PBE N 08Apr2002                   
 POTCAR:    PAW_PBE H 15Jun2001                   
   VRHFIN =H: ultrasoft test                                                    
   LEXCH  = PE                                                                  
   EATOM  =    12.4884 eV,    0.9179 Ry                                         
                                                                                
   TITEL  = PAW_PBE H 15Jun2001                                                 
   LULTRA =        F    use ultrasoft PP ?                                      
   IUNSCR =        0    unscreen: 0-lin 1-nonlin 2-no                           
   RPACOR =    0.000    partial core radius                                     
   POMASS =    1.000; ZVAL   =    1.000    mass and valenz                      
   RCORE  =    1.100    outmost cutoff radius                                   
   RWIGS  =    0.700; RWIGS  =    0.370    wigner-seitz radius (au A)           
   ENMAX  =  250.000; ENMIN  =  200.000 eV                                      
   RCLOC  =    0.701    cutoff for local pot                                    
   LCOR   =        T    correct aug charges                                     
   LPAW   =        T    paw PP                                                  
   EAUG   =  400.000                                                            
   RMAX   =    1.123    core radius for proj-oper                               
   RAUG   =    1.200    factor for augmentation sphere                          
   RDEP   =    1.112    radius for radial grids                                 
   RDEPT  =    0.926    core radius for aug-charge                              
                                                                                
   Atomic configuration                                                         
    2 entries                                                                   
     n  l   j            E        occ.                                          
     1  0  0.50        -6.4927   1.0000                                         
     2  1  0.50        -3.4015   0.0000                                         
   Description                                                                  
     l       E           TYP  RCUT    TYP  RCUT                                 
     0     -6.4927494     23  1.100                                             
     0      6.8029130     23  1.100                                             
     1     -4.0817478     23  1.100                                             
  local pseudopotential read in
  atomic valenz-charges read in
  non local Contribution for L=           0  read in
    real space projection operators read in
  non local Contribution for L=           0  read in
    real space projection operators read in
  non local Contribution for L=           1  read in
    real space projection operators read in
    PAW grid and wavefunctions read in
 
   number of l-projection  operators is LMAX  =           3
   number of lm-projection operators is LMMAX =           5
 
 POTCAR:    PAW_PBE C 08Apr2002                   
   VRHFIN =C: s2p2                                                              
   LEXCH  = PE                                                                  
   EATOM  =   147.1560 eV,   10.8157 Ry                                         
                                                                                
   TITEL  = PAW_PBE C 08Apr2002                                                 
   LULTRA =        F    use ultrasoft PP ?                                      
   IUNSCR =        1    unscreen: 0-lin 1-nonlin 2-no                           
   RPACOR =    1.200    partial core radius                                     
   POMASS =   12.011; ZVAL   =    4.000    mass and valenz                      
   RCORE  =    1.500    outmost cutoff radius                                   
   RWIGS  =    1.630; RWIGS  =    0.863    wigner-seitz radius (au A)           
   ENMAX  =  400.000; ENMIN  =  300.000 eV                                      
   ICORE  =        2    local potential                                         
   LCOR   =        T    correct aug charges                                     
   LPAW   =        T    paw PP                                                  
   EAUG   =  644.873                                                            
   DEXC   =    0.000                                                            
   RMAX   =    1.529    core radius for proj-oper                               
   RAUG   =    1.300    factor for augmentation sphere                          
   RDEP   =    1.501    radius for radial grids                                 
   RDEPT  =    1.300    core radius for aug-charge                              
                                                                                
   Atomic configuration                                                         
    4 entries                                                                   
     n  l   j            E        occ.                                          
     1  0  0.50      -273.3789   2.0000                                         
     2  0  0.50       -13.7508   2.0000                                         
     2  1  0.50        -5.2854   2.0000                                         
     3  2  1.50        -5.4423   0.0000                                         
   Description                                                                  
     l       E           TYP  RCUT    TYP  RCUT                                 
     0    -13.7508458     23  1.200                                             
     0     -8.2022199     23  1.200                                             
     1     -5.2854383     23  1.500                                             
     1     34.0145650     23  1.500                                             
     2     -5.4423304      7  1.500                                             
  local pseudopotential read in
  partial core-charges read in
  partial kinetic energy density read in
  atomic valenz-charges read in
  non local Contribution for L=           0  read in
    real space projection operators read in
  non local Contribution for L=           0  read in
    real space projection operators read in
  non local Contribution for L=           1  read in
    real space projection operators read in
  non local Contribution for L=           1  read in
    real space projection operators read in
    PAW grid and wavefunctions read in
 
   number of l-projection  operators is LMAX  =           4
   number of lm-projection operators is LMMAX =           8
 
 POTCAR:    PAW_PBE N 08Apr2002                   
   VRHFIN =N: s2p3                                                              
   LEXCH  = PE                                                                  
   EATOM  =   264.5486 eV,   19.4438 Ry                                         
                                                                                
   TITEL  = PAW_PBE N 08Apr2002                                                 
   LULTRA =        F    use ultrasoft PP ?                                      
   IUNSCR =        1    unscreen: 0-lin 1-nonlin 2-no                           
   RPACOR =    1.200    partial core radius                                     
   POMASS =   14.001; ZVAL   =    5.000    mass and valenz                      
   RCORE  =    1.500    outmost cutoff radius                                   
   RWIGS  =    1.400; RWIGS  =    0.741    wigner-seitz radius (au A)           
   ENMAX  =  400.000; ENMIN  =  300.000 eV                                      
   ICORE  =        2    local potential                                         
   LCOR   =        T    correct aug charges                                     
   LPAW   =        T    paw PP                                                  
   EAUG   =  627.112                                                            
   DEXC   =    0.000                                                            
   RMAX   =    1.529    core radius for proj-oper                               
   RAUG   =    1.300    factor for augmentation sphere                          
   RDEP   =    1.514    radius for radial grids                                 
   RDEPT  =    1.338    core radius for aug-charge                              
                                                                                
   Atomic configuration                                                         
    4 entries                                                                   
     n  l   j            E        occ.                                          
     1  0  0.50      -384.7179   2.0000                                         
     2  0  0.50       -18.5828   2.0000                                         
     2  1  0.50        -7.0898   3.0000                                         
     3  2  1.50        -6.8029   0.0000                                         
   Description                                                                  
     l       E           TYP  RCUT    TYP  RCUT                                 
     0    -18.5828119     23  1.200                                             
     0    -13.5018863     23  1.200                                             
     1     -7.0897853     23  1.500                                             
     1      9.5240782     23  1.500                                             
     2     -6.8029130      7  1.500                                             
  local pseudopotential read in
  partial core-charges read in
  partial kinetic energy density read in
  atomic valenz-charges read in
  non local Contribution for L=           0  read in
    real space projection operators read in
  non local Contribution for L=           0  read in
    real space projection operators read in
  non local Contribution for L=           1  read in
    real space projection operators read in
  non local Contribution for L=           1  read in
    real space projection operators read in
    PAW grid and wavefunctions read in
 
   number of l-projection  operators is LMAX  =           4
   number of lm-projection operators is LMMAX =           8
 

 ----------------------------------------------------------------------------- 
|                                                                             |
|  ADVICE TO THIS USER RUNNING 'VASP/VAMP'   (HEAR YOUR MASTER'S VOICE ...):  |
|                                                                             |
|      You have a (more or less) 'small supercell' and for smaller cells      |
|      it is recommended  to use the reciprocal-space projection scheme!      |
|      The real space optimization is not  efficient for small cells and it   |
|      is also less accurate ...                                              |
|      Therefore set LREAL=.FALSE. in the  INCAR file                         |
|                                                                             |
 ----------------------------------------------------------------------------- 

 Optimization of the real space projectors (new method)

 maximal supplied QI-value         = 34.20
 optimisation between [QCUT,QGAM] = [  9.92, 20.18] = [ 27.55,114.04] Ry 
 Optimized for a Real-space Cutoff    1.26 Angstroem

   l    n(q)    QCUT    max X(q) W(low)/X(q) W(high)/X(q)  e(spline) 
   0      8     9.919    19.460    0.50E-03    0.23E-03    0.29E-06
   0      8     9.919    12.209    0.48E-03    0.23E-03    0.28E-06
   1      7     9.919     4.655    0.17E-03    0.75E-03    0.30E-06
 Optimization of the real space projectors (new method)

 maximal supplied QI-value         = 25.13
 optimisation between [QCUT,QGAM] = [ 10.05, 20.36] = [ 28.30,116.06] Ry 
 Optimized for a Real-space Cutoff    1.30 Angstroem

   l    n(q)    QCUT    max X(q) W(low)/X(q) W(high)/X(q)  e(spline) 
   0      8    10.053   115.676    0.49E-03    0.72E-03    0.18E-06
   0      8    10.053    87.132    0.49E-03    0.71E-03    0.18E-06
   1      7    10.053     4.429    0.32E-03    0.31E-03    0.18E-06
   1      7    10.053     2.733    0.23E-03    0.19E-03    0.20E-06
 Optimization of the real space projectors (new method)

 maximal supplied QI-value         = 25.13
 optimisation between [QCUT,QGAM] = [ 10.05, 20.36] = [ 28.30,116.06] Ry 
 Optimized for a Real-space Cutoff    1.65 Angstroem

   l    n(q)    QCUT    max X(q) W(low)/X(q) W(high)/X(q)  e(spline) 
   0     10    10.053    79.467    0.76E-04    0.72E-04    0.56E-06
   0     10    10.053    66.151    0.76E-04    0.72E-04    0.55E-06
   1     10    10.053     8.350    0.25E-03    0.92E-03    0.41E-05
   1     10    10.053     5.531    0.27E-03    0.10E-02    0.45E-05
  PAW_PBE H 15Jun2001                   :
 energy of atom  1       EATOM=  -12.4884
 kinetic energy error for atom=    0.0098 (will be added to EATOM!!)
  PAW_PBE C 08Apr2002                   :
 energy of atom  2       EATOM= -147.1560
 kinetic energy error for atom=    0.0288 (will be added to EATOM!!)
  PAW_PBE N 08Apr2002                   :
 energy of atom  3       EATOM= -264.5486
 kinetic energy error for atom=    0.0736 (will be added to EATOM!!)
 
 
 POSCAR: H3 C2 N1                                
  positions in direct lattice
  velocities in cartesian coordinates
 exchange correlation table for  LEXCH =        8
   RHO(1)=    0.500       N(1)  =     2000
   RHO(2)=  100.500       N(2)  =     4000

 VTST: version 3.2, (02/03/18)

 CHAIN: initializing optimizer
 
 OPT: Using FIRE optimizer
 OPT: FIRE, Init
 OPT: FIRE, MAXMOVE       0.20000
 OPT: FIRE, TIMESTEP      0.10000
 OPT: FIRE, FTIMEMAX      1.00000
 OPT: FIRE, FTIMEINC      1.10000
 OPT: FIRE, FTIMEDEC      0.50000
 OPT: FIRE, FALPHADEC     0.99000
 OPT: FIRE, FALPHA        0.10000
 OPT: FIRE, FNMIN         5
 
 CHAIN: Read ICHAIN            0
 CHAIN: Running the NEB
 NEB:          SPRING     -5.000000
 NEB:          LCLIMB      T
 NEB:     LTANGENTOLD      F
 NEB:           LDNEB      F
 NEB:        LDNEBORG      F
 NEB:        LNEBCELL      F
 NEB:          EFIRST      0.000000
 NEB:           ELAST      0.000000
 
 POSCAR: H3 C2 N1                                
  positions in direct lattice
  No initial velocities read in
 
 POSCAR: H3 C2 N1                                
  positions in direct lattice
  No initial velocities read in
 


--------------------------------------------------------------------------------------------------------


 ion  position               nearest neighbor table
   1  0.472  0.465  0.505-   4 1.09
   2  0.474  0.510  0.464-   4 1.09
   3  0.477  0.522  0.522-   4 1.11
   4  0.485  0.497  0.496-   2 1.09   1 1.09   3 1.11   5 1.54
   5  0.536  0.491  0.492-   6 1.18   4 1.54
   6  0.554  0.513  0.520-   5 1.18
 
  LATTYP: Found a simple cubic cell.
 ALAT       =    30.0000000000
  
  Lattice vectors:
  
 A1 = (  30.0000000000,   0.0000000000,   0.0000000000)
 A2 = (   0.0000000000,  30.0000000000,   0.0000000000)
 A3 = (   0.0000000000,   0.0000000000,  30.0000000000)


Analysis of symmetry for initial positions (statically):
=====================================================================
 Subroutine PRICEL returns:
 Original cell was already a primitive cell.
 

 Routine SETGRP: Setting up the symmetry group for a 
 simple cubic supercell.


 Subroutine GETGRP returns: Found  1 space group operations
 (whereof  1 operations were pure point group operations)
 out of a pool of 48 trial point group operations.


The static configuration has the point symmetry C_1 .


Analysis of symmetry for dynamics (positions and initial velocities):
=====================================================================
 Subroutine PRICEL returns:
 Original cell was already a primitive cell.
 

 Routine SETGRP: Setting up the symmetry group for a 
 simple cubic supercell.


 Subroutine GETGRP returns: Found  1 space group operations
 (whereof  1 operations were pure point group operations)
 out of a pool of 48 trial point group operations.


The dynamic configuration has the point symmetry C_1 .
 
 
 KPOINTS: Mo2C                                    

Automatic generation of k-mesh.
Space group operators:
 irot       det(A)        alpha          n_x          n_y          n_z        tau_x        tau_y        tau_z
    1     1.000000     0.000000     1.000000     0.000000     0.000000     0.000000     0.000000     0.000000
 
 Subroutine IBZKPT returns following result:
 ===========================================
 
 Found      4 irreducible k-points:
 
 Following reciprocal coordinates:
            Coordinates               Weight
  0.250000  0.250000  0.250000      2.000000
 -0.250000  0.250000  0.250000      2.000000
  0.250000 -0.250000  0.250000      2.000000
 -0.250000 -0.250000  0.250000      2.000000
 
 Following cartesian coordinates:
            Coordinates               Weight
  0.008333  0.008333  0.008333      2.000000
 -0.008333  0.008333  0.008333      2.000000
  0.008333 -0.008333  0.008333      2.000000
 -0.008333 -0.008333  0.008333      2.000000
 


--------------------------------------------------------------------------------------------------------




 Dimension of arrays:
   k-points           NKPTS =      4   k-points in BZ     NKDIM =      4   number of bands    NBANDS=     12
   number of dos      NEDOS =    301   number of ions     NIONS =      6
   non local maximal  LDIM  =      4   non local SUM 2l+1 LMDIM =      8
   total plane-waves  NPLWV = ******
   max r-space proj   IRMAX =   2395   max aug-charges    IRDMAX=   1738
   dimension x,y,z NGX =   150 NGY =  150 NGZ =  150
   dimension x,y,z NGXF=   300 NGYF=  300 NGZF=  300
   support grid    NGXF=   300 NGYF=  300 NGZF=  300
   ions per type =               3   2   1
 NGX,Y,Z   is equivalent  to a cutoff of   8.31,  8.31,  8.31 a.u.
 NGXF,Y,Z  is equivalent  to a cutoff of  16.62, 16.62, 16.62 a.u.


 I would recommend the setting:
   dimension x,y,z NGX =   147 NGY =  147 NGZ =  147
 SYSTEM =  unknown system                          
 POSCAR =  H3 C2 N1                                

 Startparameter for this run:
   NWRITE =      2    write-flag & timer
   PREC   = normal    normal or accurate (medium, high low for compatibility)
   ISTART =      0    job   : 0-new  1-cont  2-samecut
   ICHARG =      2    charge: 1-file 2-atom 10-const
   ISPIN  =      1    spin polarized calculation?
   LNONCOLLINEAR =      F non collinear calculations
   LSORBIT =      F    spin-orbit coupling
   INIWAV =      1    electr: 0-lowe 1-rand  2-diag
   LASPH  =      F    aspherical Exc in radial PAW
   METAGGA=      F    non-selfconsistent MetaGGA calc.

 Electronic Relaxation 1
   ENCUT  =  400.0 eV  29.40 Ry    5.42 a.u.  48.92 48.92 48.92*2*pi/ulx,y,z
   ENINI  =  400.0     initial cutoff
   ENAUG  =  644.9 eV  augmentation charge cutoff
   NELM   =    500;   NELMIN=  6; NELMDL= -5     # of ELM steps 
   EDIFF  = 0.1E-03   stopping-criterion for ELM
   LREAL  =      T    real-space projection
   NLSPLINE    = F    spline interpolate recip. space projectors
   LCOMPAT=      F    compatible to vasp.4.4
   GGA_COMPAT  = T    GGA compatible to vasp.4.4-vasp.4.6
   LMAXPAW     = -100 max onsite density
   LMAXMIX     =    2 max onsite mixed and CHGCAR
   VOSKOWN=      0    Vosko Wilk Nusair interpolation
   ROPT   =   -0.00050  -0.00050  -0.00050
 Ionic relaxation
   EDIFFG = -.1E+00   stopping-criterion for IOM
   NSW    =    300    number of steps for IOM
   NBLOCK =      1;   KBLOCK =    300    inner block; outer block 
   IBRION =      3    ionic relax: 0-MD 1-quasi-New 2-CG
   NFREE  =      0    steps in history (QN), initial steepest desc. (CG)
   ISIF   =      2    stress and relaxation
   IWAVPR =     11    prediction:  0-non 1-charg 2-wave 3-comb
   ISYM   =      2    0-nonsym 1-usesym 2-fastsym
   LCORR  =      T    Harris-Foulkes like correction to forces

   POTIM  = 0.0000    time-step for ionic-motion
   TEIN   =    0.0    initial temperature
   TEBEG  =    0.0;   TEEND  =   0.0 temperature during run
   SMASS  =   2.00    Nose mass-parameter (am)
   estimated Nose-frequenzy (Omega)   =  0.12E+10 period in steps =  0.00 mass=   0.137E-25a.u.
   SCALEE = 1.0000    scale energy and forces
   NPACO  =    256;   APACO  = 16.0  distance and # of slots for P.C.
   PSTRESS=    0.0 pullay stress

  Mass of Ions in am
   POMASS =   1.00 12.01 14.00
  Ionic Valenz
   ZVAL   =   1.00  4.00  5.00
  Atomic Wigner-Seitz radii
   RWIGS  =  -1.00 -1.00 -1.00
  virtual crystal weights 
   VCA    =   1.00  1.00  1.00
   NELECT =      16.0000    total number of electrons
   NUPDOWN=      -1.0000    fix difference up-down

 DOS related values:
   EMIN   =  10.00;   EMAX   =-10.00  energy-range for DOS
   EFERMI =   0.00
   ISMEAR =     0;   SIGMA  =   0.20  broadening in eV -4-tet -1-fermi 0-gaus

 Electronic relaxation 2 (details)
   IALGO  =     38    algorithm
   LDIAG  =      T    sub-space diagonalisation (order eigenvalues)
   LSUBROT=      F    optimize rotation matrix (better conditioning)
   TURBO    =      0    0=normal 1=particle mesh
   IRESTART =      0    0=no restart 2=restart with 2 vectors
   NREBOOT  =      0    no. of reboots
   NMIN     =      0    reboot dimension
   EREF     =   0.00    reference energy to select bands
   IMIX   =      4    mixing-type and parameters
     AMIX     =   0.40;   BMIX     =  1.00
     AMIX_MAG =   1.60;   BMIX_MAG =  1.00
     AMIN     =   0.10
     WC   =   100.;   INIMIX=   1;  MIXPRE=   1;  MAXMIX= -45

 Intra band minimization:
   WEIMIN = 0.0010     energy-eigenvalue tresh-hold
   EBREAK =  0.21E-05  absolut break condition
   DEPER  =   0.30     relativ break condition  

   TIME   =   0.40     timestep for ELM

  volume/ion in A,a.u.               =    4500.00     30367.50
  Fermi-wavevector in a.u.,A,eV,Ry     =   0.137508  0.259852  0.257264  0.018908
  Thomas-Fermi vector in A             =   0.790710
 
 Write flags
   LWAVE  =      F    write WAVECAR
   LCHARG =      F    write CHGCAR
   LVTOT  =      F    write LOCPOT, total local potential
   LVHAR  =      F    write LOCPOT, Hartree potential only
   LELF   =      F    write electronic localiz. function (ELF)
   LORBIT =      0    0 simple, 1 ext, 2 COOP (PROOUT)


 Dipole corrections
   LMONO  =      F    monopole corrections only (constant potential shift)
   LDIPOL =      F    correct potential (dipole corrections)
   IDIPOL =      0    1-x, 2-y, 3-z, 4-all directions 
   EPSILON=  1.0000000 bulk dielectric constant

 Exchange correlation treatment:
   GGA     =    PE    GGA type
   LEXCH   =     8    internal setting for exchange type
   VOSKOWN=      0    Vosko Wilk Nusair interpolation
   LHFCALC =     F    Hartree Fock is set to
   LHFONE  =     F    Hartree Fock one center treatment
   AEXX    =    0.0000 exact exchange contribution

 Linear response parameters
   LEPSILON=     F    determine dielectric tensor
   LRPA    =     F    only Hartree local field effects (RPA)
   LNABLA  =     F    use nabla operator in PAW spheres
   LVEL    =     F    velocity operator in full k-point grid
   LINTERFAST=   F  fast interpolation
   KINTER  =     0    interpolate to denser k-point grid
   CSHIFT  =0.1000    complex shift for real part using Kramers Kronig
   OMEGAMAX=  -1.0    maximum frequency
   DEG_THRESHOLD= 0.2000000E-02 threshold for treating states as degnerate
   RTIME   =    0.100 relaxation time in fs

 Orbital magnetization related:
   ORBITALMAG=     F  switch on orbital magnetization
   LCHIMAG   =     F  perturbation theory with respect to B field
   DQ        =  0.001000  dq finite difference perturbation B field



--------------------------------------------------------------------------------------------------------


 quickmin algorithm: (dynamic with friction)
 charge density and potential will be updated during run
 non-spin polarized calculation
 Variant of blocked Davidson
 Davidson routine will perform the subspace rotation
 perform sub-space diagonalisation
    after iterative eigenvector-optimisation
 modified Broyden-mixing scheme, WC =      100.0
 initial mixing is a Kerker type mixing with AMIX =  0.4000 and BMIX =      1.0000
 Hartree-type preconditioning will be used
 using additional bands            4
 real space projection scheme for non local part
 use partial core corrections
 calculate Harris-corrections to forces 
   (improved forces if not selfconsistent)
 use gradient corrections 
 use of overlap-Matrix (Vanderbilt PP)
 Gauss-broadening in eV      SIGMA  =   0.20


--------------------------------------------------------------------------------------------------------


  energy-cutoff  :      400.00
  volume of cell :    27000.00
      direct lattice vectors                 reciprocal lattice vectors
    30.000000000  0.000000000  0.000000000     0.033333333  0.000000000  0.000000000
     0.000000000 30.000000000  0.000000000     0.000000000  0.033333333  0.000000000
     0.000000000  0.000000000 30.000000000     0.000000000  0.000000000  0.033333333

  length of vectors
    30.000000000 30.000000000 30.000000000     0.033333333  0.033333333  0.033333333


 
 k-points in units of 2pi/SCALE and weight: Mo2C                                    
   0.00833333  0.00833333  0.00833333       0.250
  -0.00833333  0.00833333  0.00833333       0.250
   0.00833333 -0.00833333  0.00833333       0.250
  -0.00833333 -0.00833333  0.00833333       0.250
 
 k-points in reciprocal lattice and weights: Mo2C                                    
   0.25000000  0.25000000  0.25000000       0.250
  -0.25000000  0.25000000  0.25000000       0.250
   0.25000000 -0.25000000  0.25000000       0.250
  -0.25000000 -0.25000000  0.25000000       0.250
 
 position of ions in fractional coordinates (direct lattice) 
   0.47165416  0.46499676  0.50501250
   0.47435780  0.50994968  0.46370632
   0.47658177  0.52200556  0.52220304
   0.48521978  0.49740994  0.49591790
   0.53610458  0.49119912  0.49246789
   0.55424731  0.51288947  0.51960709
 
 position of ions in cartesian coordinates  (Angst):
  14.14962479 13.94990266 15.15037503
  14.23073398 15.29849052 13.91118965
  14.29745310 15.66016675 15.66609132
  14.55659351 14.92229807 14.87753711
  16.08313743 14.73597356 14.77403664
  16.62741936 15.38668400 15.58821267
 


--------------------------------------------------------------------------------------------------------


 k-point  1 :   0.2500 0.2500 0.2500  plane waves:  490454
 k-point  2 :  -0.2500 0.2500 0.2500  plane waves:  490454
 k-point  3 :   0.2500-0.2500 0.2500  plane waves:  490454
 k-point  4 :  -0.2500-0.2500 0.2500  plane waves:  490454

 maximum and minimum number of plane-waves per node :    490454   490454

 maximum number of plane-waves:    490454
 maximum index in each direction: 
   IXMAX=   49   IYMAX=   49   IZMAX=   48
   IXMIN=  -49   IYMIN=  -49   IZMIN=  -49

 WARNING: aliasing errors must be expected set NGX to 198 to avoid them
 WARNING: aliasing errors must be expected set NGY to 198 to avoid them
 WARNING: aliasing errors must be expected set NGZ to 196 to avoid them
 aliasing errors are usually negligible using standard VASP settings
 and one can safely disregard these warnings

 serial   3D FFT for wavefunctions
 parallel 3D FFT for charge:
    minimum data exchange during FFTs selected (reduces bandwidth)


 total amount of memory used by VASP on root node  3203886. kBytes
========================================================================

   base      :      30000. kBytes
   nonlr-proj:        690. kBytes
   fftplans  :     924480. kBytes
   grid      :    1872000. kBytes
   one-center:         18. kBytes
   wavefun   :     376698. kBytes
 
     INWAV:  cpu time    0.0000: real time    0.0084
 Broyden mixing: mesh for mixing (old mesh)
   NGX = 97   NGY = 97   NGZ = 97
  (NGX  =300   NGY  =300   NGZ  =300)
  gives a total of 912673 points

 initial charge density was supplied:
 charge density of overlapping atoms calculated
 number of electron      16.0000000 magnetization 
 keeping initial charge density in first step


--------------------------------------------------------------------------------------------------------


 Maximum index for non-local projection operator         2269
 Maximum index for augmentation-charges         1490 (set IRDMAX)


--------------------------------------------------------------------------------------------------------


 First call to EWALD:  gamma=   0.059
 Maximum number of real-space cells 3x 3x 3
 Maximum number of reciprocal cells 3x 3x 3

 FEWALD executed in parallel
    FEWALD:  cpu time    0.0010: real time    0.0019


----------------------------------------- Iteration    1(   1)  ---------------------------------------


    POTLOK:  cpu time   27.3338: real time   27.3974
    SETDIJ:  cpu time    0.0070: real time    0.0068
     EDDAV:  cpu time  118.2570: real time  118.5289
       DOS:  cpu time    0.0000: real time    0.0003
    --------------------------------------------
      LOOP:  cpu time  145.6019: real time  145.9390

 eigenvalue-minimisations  :   160
 total energy-change (2. order) : 0.1124550E+03  (-0.2125592E+03)
 number of electron      16.0000000 magnetization 
 augmentation part       16.0000000 magnetization 

 Free energy of the ion-electron system (eV)
  ---------------------------------------------------
  alpha Z        PSCENC =         0.04144063
  Ewald energy   TEWEN  =       691.48327352
  -Hartree energ DENC   =     -1108.22669358
  -exchange      EXHF   =         0.00000000
  -V(xc)+E(xc)   XCENC  =        51.27350441
  PAW double counting   =       428.37890668     -430.73533574
  entropy T*S    EENTRO =        -0.21672074
  eigenvalues    EBANDS =      -115.70873726
  atomic energy  EATOM  =       596.16534815
  Solvation  Ediel_sol  =         0.00000000
  ---------------------------------------------------
  free energy    TOTEN  =       112.45498607 eV

  energy without entropy =      112.67170681  energy(sigma->0) =      112.56334644


--------------------------------------------------------------------------------------------------------




----------------------------------------- Iteration    1(   2)  ---------------------------------------


     EDDAV:  cpu time  142.7853: real time  143.1211
       DOS:  cpu time    0.0000: real time    0.0002
    --------------------------------------------
      LOOP:  cpu time  142.7873: real time  143.1247

 eigenvalue-minimisations  :   192
 total energy-change (2. order) :-0.1128255E+03  (-0.1097404E+03)
 number of electron      16.0000000 magnetization 
 augmentation part       16.0000000 magnetization 

 Free energy of the ion-electron system (eV)
  ---------------------------------------------------
  alpha Z        PSCENC =         0.04144063
  Ewald energy   TEWEN  =       691.48327352
  -Hartree energ DENC   =     -1108.22669358
  -exchange      EXHF   =         0.00000000
  -V(xc)+E(xc)   XCENC  =        51.27350441
  PAW double counting   =       428.37890668     -430.73533574
  entropy T*S    EENTRO =         0.00000000
  eigenvalues    EBANDS =      -228.75090980
  atomic energy  EATOM  =       596.16534815
  Solvation  Ediel_sol  =         0.00000000
  ---------------------------------------------------
  free energy    TOTEN  =        -0.37046574 eV

  energy without entropy =       -0.37046574  energy(sigma->0) =       -0.37046574


--------------------------------------------------------------------------------------------------------




----------------------------------------- Iteration    1(   3)  ---------------------------------------


     EDDAV:  cpu time  107.4097: real time  107.6659
       DOS:  cpu time    0.0000: real time    0.0002
    --------------------------------------------
      LOOP:  cpu time  107.4137: real time  107.6699

 eigenvalue-minimisations  :   128
 total energy-change (2. order) :-0.3518475E+02  (-0.3462949E+02)
 number of electron      16.0000000 magnetization 
 augmentation part       16.0000000 magnetization 

 Free energy of the ion-electron system (eV)
  ---------------------------------------------------
  alpha Z        PSCENC =         0.04144063
  Ewald energy   TEWEN  =       691.48327352
  -Hartree energ DENC   =     -1108.22669358
  -exchange      EXHF   =         0.00000000
  -V(xc)+E(xc)   XCENC  =        51.27350441
  PAW double counting   =       428.37890668     -430.73533574
  entropy T*S    EENTRO =         0.00000000
  eigenvalues    EBANDS =      -263.93566180
  atomic energy  EATOM  =       596.16534815
  Solvation  Ediel_sol  =         0.00000000
  ---------------------------------------------------
  free energy    TOTEN  =       -35.55521774 eV

  energy without entropy =      -35.55521774  energy(sigma->0) =      -35.55521774


--------------------------------------------------------------------------------------------------------




----------------------------------------- Iteration    1(   4)  ---------------------------------------


     EDDAV:  cpu time   88.6895: real time   88.8970
       DOS:  cpu time    0.0000: real time    0.0002
    --------------------------------------------
      LOOP:  cpu time   88.6905: real time   88.9017

 eigenvalue-minimisations  :   100
 total energy-change (2. order) :-0.3058404E+01  (-0.2939777E+01)
 number of electron      16.0000000 magnetization 
 augmentation part       16.0000000 magnetization 

 Free energy of the ion-electron system (eV)
  ---------------------------------------------------
  alpha Z        PSCENC =         0.04144063
  Ewald energy   TEWEN  =       691.48327352
  -Hartree energ DENC   =     -1108.22669358
  -exchange      EXHF   =         0.00000000
  -V(xc)+E(xc)   XCENC  =        51.27350441
  PAW double counting   =       428.37890668     -430.73533574
  entropy T*S    EENTRO =         0.00000000
  eigenvalues    EBANDS =      -266.99406572
  atomic energy  EATOM  =       596.16534815
  Solvation  Ediel_sol  =         0.00000000
  ---------------------------------------------------
  free energy    TOTEN  =       -38.61362165 eV

  energy without entropy =      -38.61362165  energy(sigma->0) =      -38.61362165


--------------------------------------------------------------------------------------------------------




----------------------------------------- Iteration    1(   5)  ---------------------------------------


     EDDAV:  cpu time  128.1365: real time  128.4322
       DOS:  cpu time    0.0000: real time    0.0002
    CHARGE:  cpu time    8.1198: real time    8.1395
    MIXING:  cpu time    0.6289: real time    0.6305
    --------------------------------------------
      LOOP:  cpu time  136.8882: real time  137.2065

 eigenvalue-minimisations  :   160
 total energy-change (2. order) :-0.9630481E-01  (-0.9621659E-01)
 number of electron      16.0000005 magnetization 
 augmentation part        0.5001512 magnetization 

 Broyden mixing:
  rms(total) = 0.10742E+01    rms(broyden)= 0.10734E+01
  rms(prec ) = 0.11150E+01
  weight for this iteration     100.00

 Free energy of the ion-electron system (eV)
  ---------------------------------------------------
  alpha Z        PSCENC =         0.04144063
  Ewald energy   TEWEN  =       691.48327352
  -Hartree energ DENC   =     -1108.22669358
  -exchange      EXHF   =         0.00000000
  -V(xc)+E(xc)   XCENC  =        51.27350441
  PAW double counting   =       428.37890668     -430.73533574
  entropy T*S    EENTRO =         0.00000000
  eigenvalues    EBANDS =      -267.09037052
  atomic energy  EATOM  =       596.16534815
  Solvation  Ediel_sol  =         0.00000000
  ---------------------------------------------------
  free energy    TOTEN  =       -38.70992646 eV

  energy without entropy =      -38.70992646  energy(sigma->0) =      -38.70992646


--------------------------------------------------------------------------------------------------------




----------------------------------------- Iteration    1(   6)  ---------------------------------------


    POTLOK:  cpu time   28.1287: real time   28.1963
    SETDIJ:  cpu time    0.0060: real time    0.0066
     EDDAV:  cpu time  106.1319: real time  106.3907
       DOS:  cpu time    0.0000: real time    0.0002
    CHARGE:  cpu time    8.5057: real time    8.5305
    MIXING:  cpu time    0.8699: real time    0.8727
    --------------------------------------------
      LOOP:  cpu time  143.6442: real time  144.0012

 eigenvalue-minimisations  :   124
 total energy-change (2. order) : 0.2937795E+01  (-0.5708159E+00)
 number of electron      16.0000004 magnetization 
 augmentation part        0.4295966 magnetization 

 Broyden mixing:
  rms(total) = 0.61031E+00    rms(broyden)= 0.61005E+00
  rms(prec ) = 0.62685E+00
  weight for this iteration     100.00

 eigenvalues of (default mixing * dielectric matrix)
  average eigenvalue GAMMA=   1.2478
  1.2478

 Free energy of the ion-electron system (eV)
  ---------------------------------------------------
  alpha Z        PSCENC =         0.04144063
  Ewald energy   TEWEN  =       691.48327352
  -Hartree energ DENC   =     -1139.01960604
  -exchange      EXHF   =         0.00000000
  -V(xc)+E(xc)   XCENC  =        52.94295450
  PAW double counting   =       708.61540240     -711.27477806
  entropy T*S    EENTRO =         0.00000000
  eigenvalues    EBANDS =      -234.72616640
  atomic energy  EATOM  =       596.16534815
  Solvation  Ediel_sol  =         0.00000000
  ---------------------------------------------------
  free energy    TOTEN  =       -35.77213130 eV

  energy without entropy =      -35.77213130  energy(sigma->0) =      -35.77213130


--------------------------------------------------------------------------------------------------------




----------------------------------------- Iteration    1(   7)  ---------------------------------------


    POTLOK:  cpu time   26.7389: real time   26.7982
    SETDIJ:  cpu time    0.0060: real time    0.0067
     EDDAV:  cpu time  100.1048: real time  100.3362
       DOS:  cpu time    0.0000: real time    0.0002
    CHARGE:  cpu time    7.9118: real time    7.9307
    MIXING:  cpu time    0.8349: real time    0.8358
    --------------------------------------------
      LOOP:  cpu time  135.5984: real time  135.9125

 eigenvalue-minimisations  :   116
 total energy-change (2. order) : 0.5823793E+00  (-0.1714038E+00)
 number of electron      16.0000004 magnetization 
 augmentation part        0.4427199 magnetization 

 Broyden mixing:
  rms(total) = 0.32522E+00    rms(broyden)= 0.32515E+00
  rms(prec ) = 0.33565E+00
  weight for this iteration     100.00

 eigenvalues of (default mixing * dielectric matrix)
  average eigenvalue GAMMA=   1.3235
  0.7426  1.9044

 Free energy of the ion-electron system (eV)
  ---------------------------------------------------
  alpha Z        PSCENC =         0.04144063
  Ewald energy   TEWEN  =       691.48327352
  -Hartree energ DENC   =     -1153.94987922
  -exchange      EXHF   =         0.00000000
  -V(xc)+E(xc)   XCENC  =        53.79400590
  PAW double counting   =       978.21239655     -980.97664041
  entropy T*S    EENTRO =         0.00000000
  eigenvalues    EBANDS =      -219.95969713
  atomic energy  EATOM  =       596.16534815
  Solvation  Ediel_sol  =         0.00000000
  ---------------------------------------------------
  free energy    TOTEN  =       -35.18975201 eV

  energy without entropy =      -35.18975201  energy(sigma->0) =      -35.18975201


--------------------------------------------------------------------------------------------------------




----------------------------------------- Iteration    1(   8)  ---------------------------------------


    POTLOK:  cpu time   26.1250: real time   26.1872
    SETDIJ:  cpu time    0.0060: real time    0.0065
     EDDAV:  cpu time  110.2302: real time  110.4893
       DOS:  cpu time    0.0000: real time    0.0002
    CHARGE:  cpu time    8.5927: real time    8.6138
    MIXING:  cpu time    1.0588: real time    1.0604
    --------------------------------------------
      LOOP:  cpu time  146.0148: real time  146.3620

 eigenvalue-minimisations  :   128
 total energy-change (2. order) : 0.1933573E+00  (-0.4379202E-01)
 number of electron      16.0000004 magnetization 
 augmentation part        0.4177449 magnetization 

 Broyden mixing:
  rms(total) = 0.12642E+00    rms(broyden)= 0.12636E+00
  rms(prec ) = 0.13027E+00
  weight for this iteration     100.00

 eigenvalues of (default mixing * dielectric matrix)
  average eigenvalue GAMMA=   1.4259
  2.2236  1.4037  0.6505

 Free energy of the ion-electron system (eV)
  ---------------------------------------------------
  alpha Z        PSCENC =         0.04144063
  Ewald energy   TEWEN  =       691.48327352
  -Hartree energ DENC   =     -1164.36423389
  -exchange      EXHF   =         0.00000000
  -V(xc)+E(xc)   XCENC  =        54.45801356
  PAW double counting   =      1189.25272554    -1192.07291746
  entropy T*S    EENTRO =         0.00000000
  eigenvalues    EBANDS =      -209.96004478
  atomic energy  EATOM  =       596.16534815
  Solvation  Ediel_sol  =         0.00000000
  ---------------------------------------------------
  free energy    TOTEN  =       -34.99639473 eV

  energy without entropy =      -34.99639473  energy(sigma->0) =      -34.99639473


--------------------------------------------------------------------------------------------------------




----------------------------------------- Iteration    1(   9)  ---------------------------------------


    POTLOK:  cpu time   27.6598: real time   27.7241
    SETDIJ:  cpu time    0.0060: real time    0.0067
     EDDAV:  cpu time   85.4670: real time   85.6669
       DOS:  cpu time    0.0000: real time    0.0002
    CHARGE:  cpu time    8.3707: real time    8.3928
    MIXING:  cpu time    1.0418: real time    1.0432
    --------------------------------------------
      LOOP:  cpu time  122.5464: real time  122.8377

 eigenvalue-minimisations  :    96
 total energy-change (2. order) : 0.2651647E-01  (-0.6050284E-02)
 number of electron      16.0000004 magnetization 
 augmentation part        0.4194433 magnetization 

 Broyden mixing:
  rms(total) = 0.38554E-01    rms(broyden)= 0.38540E-01
  rms(prec ) = 0.42302E-01
  weight for this iteration     100.00

 eigenvalues of (default mixing * dielectric matrix)
  average eigenvalue GAMMA=   1.3652
  2.2828  1.5480  0.9542  0.6759

 Free energy of the ion-electron system (eV)
  ---------------------------------------------------
  alpha Z        PSCENC =         0.04144063
  Ewald energy   TEWEN  =       691.48327352
  -Hartree energ DENC   =     -1166.95309272
  -exchange      EXHF   =         0.00000000
  -V(xc)+E(xc)   XCENC  =        54.63085311
  PAW double counting   =      1282.10492099    -1284.89917757
  entropy T*S    EENTRO =         0.00000000
  eigenvalues    EBANDS =      -207.54344439
  atomic energy  EATOM  =       596.16534815
  Solvation  Ediel_sol  =         0.00000000
  ---------------------------------------------------
  free energy    TOTEN  =       -34.96987827 eV

  energy without entropy =      -34.96987827  energy(sigma->0) =      -34.96987827


--------------------------------------------------------------------------------------------------------




----------------------------------------- Iteration    1(  10)  ---------------------------------------


    POTLOK:  cpu time   26.8469: real time   26.9138
    SETDIJ:  cpu time    0.0060: real time    0.0066
     EDDAV:  cpu time  108.8205: real time  109.1381
       DOS:  cpu time    0.0000: real time    0.0002
    CHARGE:  cpu time    8.2507: real time    8.2697
    MIXING:  cpu time    1.2028: real time    1.2062
    --------------------------------------------
      LOOP:  cpu time  145.1289: real time  145.5396

 eigenvalue-minimisations  :   128
 total energy-change (2. order) : 0.3462242E-02  (-0.5816013E-03)
 number of electron      16.0000004 magnetization 
 augmentation part        0.4209424 magnetization 

 Broyden mixing:
  rms(total) = 0.15946E-01    rms(broyden)= 0.15937E-01
  rms(prec ) = 0.20595E-01
  weight for this iteration     100.00

 eigenvalues of (default mixing * dielectric matrix)
  average eigenvalue GAMMA=   1.4389
  2.1519  2.1519  1.2996  0.6735  0.9177

 Free energy of the ion-electron system (eV)
  ---------------------------------------------------
  alpha Z        PSCENC =         0.04144063
  Ewald energy   TEWEN  =       691.48327352
  -Hartree energ DENC   =     -1167.79092249
  -exchange      EXHF   =         0.00000000
  -V(xc)+E(xc)   XCENC  =        54.65326649
  PAW double counting   =      1293.77258134    -1296.55840758
  entropy T*S    EENTRO =         0.00000000
  eigenvalues    EBANDS =      -206.73299608
  atomic energy  EATOM  =       596.16534815
  Solvation  Ediel_sol  =         0.00000000
  ---------------------------------------------------
  free energy    TOTEN  =       -34.96641603 eV

  energy without entropy =      -34.96641603  energy(sigma->0) =      -34.96641603


--------------------------------------------------------------------------------------------------------




----------------------------------------- Iteration    1(  11)  ---------------------------------------


    POTLOK:  cpu time   26.7319: real time   26.7933
    SETDIJ:  cpu time    0.0070: real time    0.0064
     EDDAV:  cpu time   85.4920: real time   85.6945
       DOS:  cpu time    0.0000: real time    0.0002
    CHARGE:  cpu time    7.9188: real time    7.9382
    MIXING:  cpu time    1.1068: real time    1.1087
    --------------------------------------------
      LOOP:  cpu time  121.2586: real time  121.5460

 eigenvalue-minimisations  :    96
 total energy-change (2. order) :-0.6932179E-04  (-0.1928916E-03)
 number of electron      16.0000004 magnetization 
 augmentation part        0.4206263 magnetization 

 Broyden mixing:
  rms(total) = 0.85519E-02    rms(broyden)= 0.85500E-02
  rms(prec ) = 0.12791E-01
  weight for this iteration     100.00

 eigenvalues of (default mixing * dielectric matrix)
  average eigenvalue GAMMA=   1.4545
  2.3036  2.3036  0.6741  0.9747  1.2353  1.2353

 Free energy of the ion-electron system (eV)
  ---------------------------------------------------
  alpha Z        PSCENC =         0.04144063
  Ewald energy   TEWEN  =       691.48327352
  -Hartree energ DENC   =     -1168.89634656
  -exchange      EXHF   =         0.00000000
  -V(xc)+E(xc)   XCENC  =        54.67837811
  PAW double counting   =      1295.63364281    -1298.41524010
  entropy T*S    EENTRO =         0.00000000
  eigenvalues    EBANDS =      -205.65698190
  atomic energy  EATOM  =       596.16534815
  Solvation  Ediel_sol  =         0.00000000
  ---------------------------------------------------
  free energy    TOTEN  =       -34.96648535 eV

  energy without entropy =      -34.96648535  energy(sigma->0) =      -34.96648535


--------------------------------------------------------------------------------------------------------




----------------------------------------- Iteration    1(  12)  ---------------------------------------


    POTLOK:  cpu time   29.0016: real time   29.0697
    SETDIJ:  cpu time    0.0060: real time    0.0067
     EDDAV:  cpu time   97.7731: real time   98.0043
       DOS:  cpu time    0.0000: real time    0.0002
    CHARGE:  cpu time    8.1808: real time    8.1993
    MIXING:  cpu time    1.2168: real time    1.2201
    --------------------------------------------
      LOOP:  cpu time  136.1793: real time  136.5047

 eigenvalue-minimisations  :   112
 total energy-change (2. order) :-0.2739776E-02  (-0.1005854E-03)
 number of electron      16.0000004 magnetization 
 augmentation part        0.4204936 magnetization 

 Broyden mixing:
  rms(total) = 0.48694E-02    rms(broyden)= 0.48681E-02
  rms(prec ) = 0.81428E-02
  weight for this iteration     100.00

 eigenvalues of (default mixing * dielectric matrix)
  average eigenvalue GAMMA=   1.6175
  3.3274  2.3342  0.6741  1.5705  0.8886  1.2638  1.2638

 Free energy of the ion-electron system (eV)
  ---------------------------------------------------
  alpha Z        PSCENC =         0.04144063
  Ewald energy   TEWEN  =       691.48327352
  -Hartree energ DENC   =     -1169.91153219
  -exchange      EXHF   =         0.00000000
  -V(xc)+E(xc)   XCENC  =        54.70029470
  PAW double counting   =      1293.30497319    -1296.08431635
  entropy T*S    EENTRO =         0.00000000
  eigenvalues    EBANDS =      -204.66870678
  atomic energy  EATOM  =       596.16534815
  Solvation  Ediel_sol  =         0.00000000
  ---------------------------------------------------
  free energy    TOTEN  =       -34.96922512 eV

  energy without entropy =      -34.96922512  energy(sigma->0) =      -34.96922512


--------------------------------------------------------------------------------------------------------




----------------------------------------- Iteration    1(  13)  ---------------------------------------


    POTLOK:  cpu time   27.3378: real time   27.4045
    SETDIJ:  cpu time    0.0060: real time    0.0064
     EDDAV:  cpu time  118.3690: real time  118.6469
       DOS:  cpu time    0.0000: real time    0.0002
    CHARGE:  cpu time    8.8846: real time    8.9059
    MIXING:  cpu time    1.7437: real time    1.7475
    --------------------------------------------
      LOOP:  cpu time  156.3452: real time  156.7159

 eigenvalue-minimisations  :   144
 total energy-change (2. order) :-0.4466516E-02  (-0.1986252E-03)
 number of electron      16.0000004 magnetization 
 augmentation part        0.4202054 magnetization 

 Broyden mixing:
  rms(total) = 0.32031E-02    rms(broyden)= 0.32006E-02
  rms(prec ) = 0.48276E-02
  weight for this iteration     100.00

 eigenvalues of (default mixing * dielectric matrix)
  average eigenvalue GAMMA=   1.7306
  4.0511  2.4843  1.6622  1.6622  1.4154  0.6739  0.9478  0.9478

 Free energy of the ion-electron system (eV)
  ---------------------------------------------------
  alpha Z        PSCENC =         0.04144063
  Ewald energy   TEWEN  =       691.48327352
  -Hartree energ DENC   =     -1171.08778791
  -exchange      EXHF   =         0.00000000
  -V(xc)+E(xc)   XCENC  =        54.72554323
  PAW double counting   =      1292.38103832    -1295.15939263
  entropy T*S    EENTRO =         0.00000000
  eigenvalues    EBANDS =      -203.52315494
  atomic energy  EATOM  =       596.16534815
  Solvation  Ediel_sol  =         0.00000000
  ---------------------------------------------------
  free energy    TOTEN  =       -34.97369164 eV

  energy without entropy =      -34.97369164  energy(sigma->0) =      -34.97369164


--------------------------------------------------------------------------------------------------------




----------------------------------------- Iteration    1(  14)  ---------------------------------------


    POTLOK:  cpu time   27.5898: real time   27.6539
    SETDIJ:  cpu time    0.0050: real time    0.0066
     EDDAV:  cpu time  104.1522: real time  104.3894
       DOS:  cpu time    0.0000: real time    0.0002
    CHARGE:  cpu time    8.2008: real time    8.2203
    MIXING:  cpu time    1.6278: real time    1.6311
    --------------------------------------------
      LOOP:  cpu time  141.5775: real time  141.9062

 eigenvalue-minimisations  :   124
 total energy-change (2. order) :-0.4184434E-02  (-0.5842771E-04)
 number of electron      16.0000004 magnetization 
 augmentation part        0.4201364 magnetization 

 Broyden mixing:
  rms(total) = 0.22417E-02    rms(broyden)= 0.22407E-02
  rms(prec ) = 0.31043E-02
  weight for this iteration     100.00

 eigenvalues of (default mixing * dielectric matrix)
  average eigenvalue GAMMA=   1.7862
  4.7898  2.5436  2.2044  1.6205  1.2259  1.2259  0.6738  0.8959  0.8959

 Free energy of the ion-electron system (eV)
  ---------------------------------------------------
  alpha Z        PSCENC =         0.04144063
  Ewald energy   TEWEN  =       691.48327352
  -Hartree energ DENC   =     -1171.45290145
  -exchange      EXHF   =         0.00000000
  -V(xc)+E(xc)   XCENC  =        54.72284462
  PAW double counting   =      1290.24544864    -1293.02353199
  entropy T*S    EENTRO =         0.00000000
  eigenvalues    EBANDS =      -203.15979820
  atomic energy  EATOM  =       596.16534815
  Solvation  Ediel_sol  =         0.00000000
  ---------------------------------------------------
  free energy    TOTEN  =       -34.97787607 eV

  energy without entropy =      -34.97787607  energy(sigma->0) =      -34.97787607


--------------------------------------------------------------------------------------------------------




----------------------------------------- Iteration    1(  15)  ---------------------------------------


    POTLOK:  cpu time   26.5320: real time   26.5918
    SETDIJ:  cpu time    0.0060: real time    0.0065
     EDDAV:  cpu time  105.0500: real time  105.2852
       DOS:  cpu time    0.0000: real time    0.0002
    CHARGE:  cpu time    7.3549: real time    7.3708
    MIXING:  cpu time    1.6677: real time    1.6721
    --------------------------------------------
      LOOP:  cpu time  140.6116: real time  140.9314

 eigenvalue-minimisations  :   128
 total energy-change (2. order) :-0.2237461E-02  (-0.2023317E-04)
 number of electron      16.0000004 magnetization 
 augmentation part        0.4200557 magnetization 

 Broyden mixing:
  rms(total) = 0.12065E-02    rms(broyden)= 0.12062E-02
  rms(prec ) = 0.18396E-02
  weight for this iteration     100.00

 eigenvalues of (default mixing * dielectric matrix)
  average eigenvalue GAMMA=   1.8974
  5.8792  2.8977  2.2902  0.6739  1.5654  1.3341  1.3341  0.8978  1.0509  1.0509

 Free energy of the ion-electron system (eV)
  ---------------------------------------------------
  alpha Z        PSCENC =         0.04144063
  Ewald energy   TEWEN  =       691.48327352
  -Hartree energ DENC   =     -1171.61823193
  -exchange      EXHF   =         0.00000000
  -V(xc)+E(xc)   XCENC  =        54.72260328
  PAW double counting   =      1290.18176017    -1292.95999984
  entropy T*S    EENTRO =         0.00000000
  eigenvalues    EBANDS =      -202.99630752
  atomic energy  EATOM  =       596.16534815
  Solvation  Ediel_sol  =         0.00000000
  ---------------------------------------------------
  free energy    TOTEN  =       -34.98011354 eV

  energy without entropy =      -34.98011354  energy(sigma->0) =      -34.98011354


--------------------------------------------------------------------------------------------------------




----------------------------------------- Iteration    1(  16)  ---------------------------------------


    POTLOK:  cpu time   25.3751: real time   25.4309
    SETDIJ:  cpu time    0.0060: real time    0.0066
     EDDAV:  cpu time   78.6170: real time   78.7900
       DOS:  cpu time    0.0010: real time    0.0002
    CHARGE:  cpu time    7.3409: real time    7.3587
    MIXING:  cpu time    1.6178: real time    1.6208
    --------------------------------------------
      LOOP:  cpu time  112.9588: real time  113.2108

 eigenvalue-minimisations  :    96
 total energy-change (2. order) :-0.1946274E-02  (-0.1748453E-04)
 number of electron      16.0000004 magnetization 
 augmentation part        0.4200634 magnetization 

 Broyden mixing:
  rms(total) = 0.88612E-03    rms(broyden)= 0.88588E-03
  rms(prec ) = 0.11953E-02
  weight for this iteration     100.00

 eigenvalues of (default mixing * dielectric matrix)
  average eigenvalue GAMMA=   2.0636
  6.9349  3.5176  2.5130  2.1819  1.6303  1.2212  1.2212  0.6739  0.8962  0.9549
  0.9549

 Free energy of the ion-electron system (eV)
  ---------------------------------------------------
  alpha Z        PSCENC =         0.04144063
  Ewald energy   TEWEN  =       691.48327352
  -Hartree energ DENC   =     -1171.70909530
  -exchange      EXHF   =         0.00000000
  -V(xc)+E(xc)   XCENC  =        54.72011100
  PAW double counting   =      1290.12794235    -1292.90616280
  entropy T*S    EENTRO =         0.00000000
  eigenvalues    EBANDS =      -202.90491736
  atomic energy  EATOM  =       596.16534815
  Solvation  Ediel_sol  =         0.00000000
  ---------------------------------------------------
  free energy    TOTEN  =       -34.98205981 eV

  energy without entropy =      -34.98205981  energy(sigma->0) =      -34.98205981


--------------------------------------------------------------------------------------------------------




----------------------------------------- Iteration    1(  17)  ---------------------------------------


    POTLOK:  cpu time   25.3991: real time   25.4575
    SETDIJ:  cpu time    0.0070: real time    0.0065
     EDDAV:  cpu time   81.8915: real time   82.0722
       DOS:  cpu time    0.0000: real time    0.0002
    CHARGE:  cpu time    7.5818: real time    7.5976
    MIXING:  cpu time    1.8737: real time    1.8781
    --------------------------------------------
      LOOP:  cpu time  116.7543: real time  117.0158

 eigenvalue-minimisations  :    96
 total energy-change (2. order) :-0.1340790E-02  (-0.8516287E-05)
 number of electron      16.0000004 magnetization 
 augmentation part        0.4200529 magnetization 

 Broyden mixing:
  rms(total) = 0.36470E-03    rms(broyden)= 0.36463E-03
  rms(prec ) = 0.51775E-03
  weight for this iteration     100.00

 eigenvalues of (default mixing * dielectric matrix)
  average eigenvalue GAMMA=   2.1008
  7.4437  4.0840  2.5115  2.3003  1.4768  1.4768  1.2248  1.2248  0.6739  0.8897
  0.9515  0.9515

 Free energy of the ion-electron system (eV)
  ---------------------------------------------------
  alpha Z        PSCENC =         0.04144063
  Ewald energy   TEWEN  =       691.48327352
  -Hartree energ DENC   =     -1171.73604740
  -exchange      EXHF   =         0.00000000
  -V(xc)+E(xc)   XCENC  =        54.71761741
  PAW double counting   =      1290.61310295    -1293.39137353
  entropy T*S    EENTRO =         0.00000000
  eigenvalues    EBANDS =      -202.87676232
  atomic energy  EATOM  =       596.16534815
  Solvation  Ediel_sol  =         0.00000000
  ---------------------------------------------------
  free energy    TOTEN  =       -34.98340060 eV

  energy without entropy =      -34.98340060  energy(sigma->0) =      -34.98340060


--------------------------------------------------------------------------------------------------------




----------------------------------------- Iteration    1(  18)  ---------------------------------------


    POTLOK:  cpu time   25.4921: real time   25.5485
    SETDIJ:  cpu time    0.0070: real time    0.0065
     EDDAV:  cpu time   81.4816: real time   81.6605
       DOS:  cpu time    0.0000: real time    0.0002
    CHARGE:  cpu time    7.3119: real time    7.3284
    MIXING:  cpu time    2.0287: real time    2.0332
    --------------------------------------------
      LOOP:  cpu time  116.3233: real time  116.5813

 eigenvalue-minimisations  :    96
 total energy-change (2. order) :-0.3770602E-03  (-0.4037820E-05)
 number of electron      16.0000004 magnetization 
 augmentation part        0.4200508 magnetization 

 Broyden mixing:
  rms(total) = 0.27114E-03    rms(broyden)= 0.27111E-03
  rms(prec ) = 0.35744E-03
  weight for this iteration     100.00

 eigenvalues of (default mixing * dielectric matrix)
  average eigenvalue GAMMA=   2.2436
  8.3494  4.7521  2.6851  2.6851  2.1219  1.6550  1.2056  1.2056  0.6739  0.8851
  0.9892  0.9794  0.9794

 Free energy of the ion-electron system (eV)
  ---------------------------------------------------
  alpha Z        PSCENC =         0.04144063
  Ewald energy   TEWEN  =       691.48327352
  -Hartree energ DENC   =     -1171.73464029
  -exchange      EXHF   =         0.00000000
  -V(xc)+E(xc)   XCENC  =        54.71669499
  PAW double counting   =      1290.55007005    -1293.32827144
  entropy T*S    EENTRO =         0.00000000
  eigenvalues    EBANDS =      -202.87769326
  atomic energy  EATOM  =       596.16534815
  Solvation  Ediel_sol  =         0.00000000
  ---------------------------------------------------
  free energy    TOTEN  =       -34.98377766 eV

  energy without entropy =      -34.98377766  energy(sigma->0) =      -34.98377766


--------------------------------------------------------------------------------------------------------




----------------------------------------- Iteration    1(  19)  ---------------------------------------


    POTLOK:  cpu time   25.5661: real time   25.6226
    SETDIJ:  cpu time    0.0070: real time    0.0065
     EDDAV:  cpu time   77.0373: real time   77.2064
       DOS:  cpu time    0.0000: real time    0.0002
    CHARGE:  cpu time    7.5858: real time    7.6037
    MIXING:  cpu time    2.1927: real time    2.1971
    --------------------------------------------
      LOOP:  cpu time  112.3919: real time  112.6404

 eigenvalue-minimisations  :    92
 total energy-change (2. order) :-0.2913652E-03  (-0.2369761E-05)
 number of electron      16.0000004 magnetization 
 augmentation part        0.4200475 magnetization 

 Broyden mixing:
  rms(total) = 0.12066E-03    rms(broyden)= 0.12062E-03
  rms(prec ) = 0.16120E-03
  weight for this iteration     100.00

 eigenvalues of (default mixing * dielectric matrix)
  average eigenvalue GAMMA=   2.2270
  8.5669  4.8094  3.2152  2.4667  2.1717  1.5331  1.5331  1.2220  1.2220  0.6739
  0.9524  0.9524  0.8959  0.9639

 Free energy of the ion-electron system (eV)
  ---------------------------------------------------
  alpha Z        PSCENC =         0.04144063
  Ewald energy   TEWEN  =       691.48327352
  -Hartree energ DENC   =     -1171.72733758
  -exchange      EXHF   =         0.00000000
  -V(xc)+E(xc)   XCENC  =        54.71586154
  PAW double counting   =      1290.38568060    -1293.16381687
  entropy T*S    EENTRO =         0.00000000
  eigenvalues    EBANDS =      -202.88451901
  atomic energy  EATOM  =       596.16534815
  Solvation  Ediel_sol  =         0.00000000
  ---------------------------------------------------
  free energy    TOTEN  =       -34.98406903 eV

  energy without entropy =      -34.98406903  energy(sigma->0) =      -34.98406903


--------------------------------------------------------------------------------------------------------




----------------------------------------- Iteration    1(  20)  ---------------------------------------


    POTLOK:  cpu time   25.6891: real time   25.7465
    SETDIJ:  cpu time    0.0060: real time    0.0064
     EDDAV:  cpu time   75.5135: real time   75.6751
       DOS:  cpu time    0.0000: real time    0.0002
    --------------------------------------------
      LOOP:  cpu time  101.2096: real time  101.4326

 eigenvalue-minimisations  :    96
 total energy-change (2. order) :-0.7957506E-04  (-0.6840781E-06)
 number of electron      16.0000004 magnetization 
 augmentation part        0.4200475 magnetization 

 Free energy of the ion-electron system (eV)
  ---------------------------------------------------
  alpha Z        PSCENC =         0.04144063
  Ewald energy   TEWEN  =       691.48327352
  -Hartree energ DENC   =     -1171.73539929
  -exchange      EXHF   =         0.00000000
  -V(xc)+E(xc)   XCENC  =        54.71602238
  PAW double counting   =      1290.41475205    -1293.19289402
  entropy T*S    EENTRO =         0.00000000
  eigenvalues    EBANDS =      -202.87669202
  atomic energy  EATOM  =       596.16534815
  Solvation  Ediel_sol  =         0.00000000
  ---------------------------------------------------
  free energy    TOTEN  =       -34.98414860 eV

  energy without entropy =      -34.98414860  energy(sigma->0) =      -34.98414860


--------------------------------------------------------------------------------------------------------




 average (electrostatic) potential at core
  the test charge radii are     0.5201  0.6991  0.7089
  (the norm of the test charge is              1.0000)
       1 -42.8439       2 -42.8375       3 -42.5298       4 -59.9397       5 -59.9553
       6 -73.9859
 
 
 
 E-fermi :  -6.7251     XC(G=0):  -0.0936     alpha+bet : -0.0137


 k-point     1 :       0.2500    0.2500    0.2500
  band No.  band energies     occupation 
      1     -23.2972      2.00000
      2     -18.3267      2.00000
      3     -12.1268      2.00000
      4     -11.4076      2.00000
      5     -10.9735      2.00000
      6      -9.3002      2.00000
      7      -8.3523      2.00000
      8      -7.6540      2.00000
      9      -3.2981      0.00000
     10      -0.5348      0.00000
     11      -0.3696      0.00000
     12      -0.0045      0.00000

 k-point     2 :      -0.2500    0.2500    0.2500
  band No.  band energies     occupation 
      1     -23.2972      2.00000
      2     -18.3267      2.00000
      3     -12.1268      2.00000
      4     -11.4076      2.00000
      5     -10.9735      2.00000
      6      -9.3002      2.00000
      7      -8.3523      2.00000
      8      -7.6540      2.00000
      9      -3.2981      0.00000
     10      -0.5348      0.00000
     11      -0.3696      0.00000
     12      -0.0084      0.00000

 k-point     3 :       0.2500   -0.2500    0.2500
  band No.  band energies     occupation 
      1     -23.2972      2.00000
      2     -18.3267      2.00000
      3     -12.1268      2.00000
      4     -11.4076      2.00000
      5     -10.9735      2.00000
      6      -9.3002      2.00000
      7      -8.3523      2.00000
      8      -7.6540      2.00000
      9      -3.2981      0.00000
     10      -0.5348      0.00000
     11      -0.3696      0.00000
     12       0.0142      0.00000

 k-point     4 :      -0.2500   -0.2500    0.2500
  band No.  band energies     occupation 
      1     -23.2972      2.00000
      2     -18.3267      2.00000
      3     -12.1268      2.00000
      4     -11.4076      2.00000
      5     -10.9735      2.00000
      6      -9.3002      2.00000
      7      -8.3523      2.00000
      8      -7.6540      2.00000
      9      -3.2981      0.00000
     10      -0.5348      0.00000
     11      -0.3696      0.00000
     12      -0.0067      0.00000


--------------------------------------------------------------------------------------------------------


 soft charge-density along one line, spin component           1
         0         1         2         3         4         5         6         7         8         9
 total charge-density along one line
 
 pseudopotential strength for first ion, spin component:           1
 -2.359  -4.068  -0.002   0.000  -0.001
 -4.068  -6.930  -0.005   0.001  -0.002
 -0.002  -0.005  -0.330  -0.001   0.002
  0.000   0.001  -0.001  -0.334   0.000
 -0.001  -0.002   0.002   0.000  -0.334
 total augmentation occupancy for first ion, spin component:           1
  3.558  -0.641   0.404  -0.115   0.170
 -0.641   0.132  -0.074   0.020  -0.033
  0.404  -0.074   0.048  -0.011   0.017
 -0.115   0.020  -0.011   0.012  -0.004
  0.170  -0.033   0.017  -0.004   0.015


------------------------ aborting loop because EDIFF is reached ----------------------------------------


    CHARGE:  cpu time    6.7100: real time    6.7241
    FORLOC:  cpu time    2.4746: real time    2.4808
    FORNL :  cpu time   19.8510: real time   19.8931
    STRESS:  cpu time   58.0442: real time   58.1654
    FORCOR:  cpu time   19.8370: real time   19.8760
    FORHAR:  cpu time    6.3480: real time    6.3601
    MIXING:  cpu time    1.4398: real time    1.4433
    OFIELD:  cpu time    0.0000: real time    0.0000

  FORCE on cell =-STRESS in cart. coord.  units (eV):
  Direction    XX          YY          ZZ          XY          YZ          ZX
  --------------------------------------------------------------------------------------
  Alpha Z     0.04144     0.04144     0.04144
  Ewald     392.22302   124.68392   174.57637    76.04612   101.83292   117.40453
  Hartree   511.92401   319.39050   340.41850    36.89752    40.08840    61.11397
  E(xc)     -59.46624   -59.75965   -59.60091     0.21938     0.33981     0.30628
  Local   -1065.75109  -609.34692  -676.51649  -109.80976  -133.38986  -173.94262
  n-local   -21.72233   -25.76868   -26.99856    -2.43633    -2.48906    -2.72237
  augment     0.37199     0.47572     0.48780     0.16286    -0.02856     0.17217
  Kinetic   244.46674   248.85954   246.38414     0.69995    -6.67655     0.04687
  Fock        0.00000     0.00000     0.00000     0.00000     0.00000     0.00000
  -------------------------------------------------------------------------------------
  Total       2.08755    -1.42413    -1.20770     1.77973    -0.32291     2.37882
  in kB       0.12388    -0.08451    -0.07166     0.10561    -0.01916     0.14116
  external pressure =       -0.01 kB  Pullay stress =        0.00 kB


 VOLUME and BASIS-vectors are now :
 -----------------------------------------------------------------------------
  energy-cutoff  :      400.00
  volume of cell :    27000.00
      direct lattice vectors                 reciprocal lattice vectors
    30.000000000  0.000000000  0.000000000     0.033333333  0.000000000  0.000000000
     0.000000000 30.000000000  0.000000000     0.000000000  0.033333333  0.000000000
     0.000000000  0.000000000 30.000000000     0.000000000  0.000000000  0.033333333

  length of vectors
    30.000000000 30.000000000 30.000000000     0.033333333  0.033333333  0.033333333


 FORCES acting on ions
    electron-ion (+dipol)            ewald-force                    non-local-force                 convergence-correction
 -----------------------------------------------------------------------------------------------
   0.351E+02 0.544E+02 -.135E+02   -.377E+02 -.598E+02 0.148E+02   0.212E+01 0.517E+01 -.152E+01   -.116E-04 0.153E-03 -.205E-04
   0.304E+02 -.204E+02 0.552E+02   -.326E+02 0.223E+02 -.606E+02   0.169E+01 -.208E+01 0.517E+01   -.213E-04 -.344E-04 0.150E-03
   0.319E+02 -.394E+02 -.405E+02   -.330E+02 0.427E+02 0.441E+02   0.135E+01 -.367E+01 -.392E+01   -.154E-04 -.645E-04 -.692E-04
   0.995E+02 0.518E+01 0.138E+02   -.105E+03 -.470E+01 -.137E+02   0.574E+01 -.836E+00 -.543E+00   -.400E-03 0.156E-03 0.152E-03
   -.327E+02 0.124E+03 0.145E+03   0.321E+02 -.131E+03 -.153E+03   -.864E+00 0.767E+01 0.902E+01   -.131E-03 0.471E-04 0.291E-04
   -.161E+03 -.109E+03 -.142E+03   0.177E+03 0.130E+03 0.168E+03   -.131E+02 -.211E+02 -.260E+02   -.287E-03 0.127E-03 0.114E-03
 -----------------------------------------------------------------------------------------------
   0.304E+01 0.149E+02 0.178E+02   -.284E-13 0.000E+00 0.000E+00   -.303E+01 -.149E+02 -.178E+02   -.865E-03 0.384E-03 0.355E-03
 
 
 POSITION                                       TOTAL-FORCE (eV/Angst)
 -----------------------------------------------------------------------------------
     14.14962     13.94990     15.15038        -0.460402     -0.162620     -0.294049
     14.23073     15.29849     13.91119        -0.518507     -0.223062     -0.255948
     14.29745     15.66017     15.66609         0.251549     -0.344436     -0.367581
     14.55659     14.92230     14.87754        -0.216409     -0.361871     -0.468929
     16.08314     14.73597     14.77404        -1.434319      1.232884      1.368542
     16.62742     15.38668     15.58821         2.378088     -0.140894      0.017966
 -----------------------------------------------------------------------------------
    total drift:                                0.006988      0.012075      0.002285


--------------------------------------------------------------------------------------------------------



  FREE ENERGIE OF THE ION-ELECTRON SYSTEM (eV)
  ---------------------------------------------------
  free  energy   TOTEN  =       -34.98414860 eV

  energy  without entropy=      -34.98414860  energy(sigma->0) =      -34.98414860
 


--------------------------------------------------------------------------------------------------------


    POTLOK:  cpu time   16.4465: real time   16.4779


--------------------------------------------------------------------------------------------------------


 NEB: the previous image is higher in energy: T
 NEB: the next image is higher in energy    : F
 NEB: only prev energy greater

 NEB: Tangent
 ----------------------------------------------
     -0.16312     -0.04595     -0.09509
     -0.15861     -0.03182     -0.06562
      0.05539     -0.07297     -0.06049
     -0.07461     -0.08408     -0.11453
     -0.37581      0.29746      0.32795
      0.73996     -0.09209      0.02579

 NEB: forces: par spring, perp REAL, dneb     0.313543    0.507539    0.000000
 NEB: distance to prev, next image, angle between     0.223735    0.286444  165.287513
 NEB: projections on to tangent (spring, REAL)     0.313543    3.505961

 stress matrix after NEB project (eV)
      2.08755      1.77973      2.37882
      1.77973     -1.42413     -0.32291
      2.37882     -0.32291     -1.20770
  FORCES: max atom, RMS     0.488556    0.243552
  FORCE total and by dimension    0.596578    0.321590
  Stress total and by dimension    5.070065    2.378821
 
 OPT: Flag T
 OPT: FIRE Step
 OPT: FIRE, TIMESTEP      0.10000
 OPT: FIRE, alpha         0.10000


--------------------------------------------------------------------------------------------------------


    WAVPRE:  cpu time    7.5109: real time    7.5293
 FEWALD executed in parallel
    FEWALD:  cpu time    0.0000: real time    0.0003
    ORTHCH:  cpu time    6.0121: real time    6.0265
     LOOP+:  cpu time 2807.6382: real time 2814.1799


----------------------------------------- Iteration    2(   1)  ---------------------------------------


    POTLOK:  cpu time   21.9307: real time   21.9823
    SETDIJ:  cpu time    0.0070: real time    0.0065
     EDDAV:  cpu time   76.3994: real time   76.5802
       DOS:  cpu time    0.0000: real time    0.0002
    CHARGE:  cpu time    5.9571: real time    5.9715
    MIXING:  cpu time    0.5529: real time    0.5544
    --------------------------------------------
      LOOP:  cpu time  104.8491: real time  105.0980

 eigenvalue-minimisations  :   108
 total energy-change (2. order) :-0.1357700E-01  (-0.7063481E-02)
 number of electron      16.0000004 magnetization 
 augmentation part        0.4219818 magnetization 

 Broyden mixing:
  rms(total) = 0.99397E-02    rms(broyden)= 0.98998E-02
  rms(prec ) = 0.10314E-01
  weight for this iteration     100.00

 Free energy of the ion-electron system (eV)
  ---------------------------------------------------
  alpha Z        PSCENC =         0.04144063
  Ewald energy   TEWEN  =       692.45952598
  -Hartree energ DENC   =     -1172.39042081
  -exchange      EXHF   =         0.00000000
  -V(xc)+E(xc)   XCENC  =        54.73584632
  PAW double counting   =      1290.42300592    -1293.20118224
  entropy T*S    EENTRO =         0.00000000
  eigenvalues    EBANDS =      -203.23120997
  atomic energy  EATOM  =       596.16534815
  Solvation  Ediel_sol  =         0.00000000
  ---------------------------------------------------
  free energy    TOTEN  =       -34.99764603 eV

  energy without entropy =      -34.99764603  energy(sigma->0) =      -34.99764603


--------------------------------------------------------------------------------------------------------




----------------------------------------- Iteration    2(   2)  ---------------------------------------


    POTLOK:  cpu time   18.4922: real time   18.5335
    SETDIJ:  cpu time    0.0060: real time    0.0064
     EDDAV:  cpu time   88.6725: real time   88.8821
       DOS:  cpu time    0.0000: real time    0.0002
    CHARGE:  cpu time    6.0231: real time    6.0366
    MIXING:  cpu time    0.6389: real time    0.6405
    --------------------------------------------
      LOOP:  cpu time  113.8337: real time  114.1042

 eigenvalue-minimisations  :   128
 total energy-change (2. order) : 0.1385008E-03  (-0.1086777E-03)
 number of electron      16.0000004 magnetization 
 augmentation part        0.4213445 magnetization 

 Broyden mixing:
  rms(total) = 0.54299E-02    rms(broyden)= 0.54244E-02
  rms(prec ) = 0.55936E-02
  weight for this iteration     100.00

 eigenvalues of (default mixing * dielectric matrix)
  average eigenvalue GAMMA=   0.8365
  0.8365

 Free energy of the ion-electron system (eV)
  ---------------------------------------------------
  alpha Z        PSCENC =         0.04144063
  Ewald energy   TEWEN  =       692.45952598
  -Hartree energ DENC   =     -1172.56596818
  -exchange      EXHF   =         0.00000000
  -V(xc)+E(xc)   XCENC  =        54.74389358
  PAW double counting   =      1292.64306811    -1295.42341503
  entropy T*S    EENTRO =         0.00000000
  eigenvalues    EBANDS =      -203.06140075
  atomic energy  EATOM  =       596.16534815
  Solvation  Ediel_sol  =         0.00000000
  ---------------------------------------------------
  free energy    TOTEN  =       -34.99750753 eV

  energy without entropy =      -34.99750753  energy(sigma->0) =      -34.99750753


--------------------------------------------------------------------------------------------------------




----------------------------------------- Iteration    2(   3)  ---------------------------------------


    POTLOK:  cpu time   18.9721: real time   19.0162
    SETDIJ:  cpu time    0.0060: real time    0.0065
     EDDAV:  cpu time   68.0826: real time   68.2438
       DOS:  cpu time    0.0000: real time    0.0002
    CHARGE:  cpu time    6.8150: real time    6.8322
    MIXING:  cpu time    0.7039: real time    0.7043
    --------------------------------------------
      LOOP:  cpu time   94.5816: real time   94.8074

 eigenvalue-minimisations  :    88
 total energy-change (2. order) : 0.2250118E-04  (-0.8570040E-05)
 number of electron      16.0000004 magnetization 
 augmentation part        0.4216290 magnetization 

 Broyden mixing:
  rms(total) = 0.30564E-02    rms(broyden)= 0.30556E-02
  rms(prec ) = 0.31075E-02
  weight for this iteration     100.00

 eigenvalues of (default mixing * dielectric matrix)
  average eigenvalue GAMMA=   1.4158
  0.7373  2.0942

 Free energy of the ion-electron system (eV)
  ---------------------------------------------------
  alpha Z        PSCENC =         0.04144063
  Ewald energy   TEWEN  =       692.45952598
  -Hartree energ DENC   =     -1172.58944110
  -exchange      EXHF   =         0.00000000
  -V(xc)+E(xc)   XCENC  =        54.74442688
  PAW double counting   =      1293.97693095    -1296.75792680
  entropy T*S    EENTRO =         0.00000000
  eigenvalues    EBANDS =      -203.03778971
  atomic energy  EATOM  =       596.16534815
  Solvation  Ediel_sol  =         0.00000000
  ---------------------------------------------------
  free energy    TOTEN  =       -34.99748503 eV

  energy without entropy =      -34.99748503  energy(sigma->0) =      -34.99748503


--------------------------------------------------------------------------------------------------------




----------------------------------------- Iteration    2(   4)  ---------------------------------------


    POTLOK:  cpu time   20.7398: real time   20.7881
    SETDIJ:  cpu time    0.0070: real time    0.0065
     EDDAV:  cpu time   67.2528: real time   67.4126
[...]
  Solvation  Ediel_sol  =         0.00000000
  ---------------------------------------------------
  free energy    TOTEN  =       -35.10458515 eV

  energy without entropy =      -35.10458515  energy(sigma->0) =      -35.10458515


--------------------------------------------------------------------------------------------------------




----------------------------------------- Iteration   28(   2)  ---------------------------------------


    POTLOK:  cpu time   29.6825: real time   31.9199
    SETDIJ:  cpu time    0.0070: real time    0.0071
     EDDAV:  cpu time   47.2448: real time   51.8096
       DOS:  cpu time    0.0000: real time    0.0002
    CHARGE:  cpu time    7.1559: real time    7.5134
    MIXING:  cpu time    0.7329: real time    0.7346
    --------------------------------------------
      LOOP:  cpu time   84.8251: real time   91.9973

 eigenvalue-minimisations  :    48
 total energy-change (2. order) :-0.1575499E-06  (-0.3082840E-06)
 number of electron      15.9999997 magnetization 
 augmentation part        0.4244961 magnetization 

 Broyden mixing:
  rms(total) = 0.14518E-03    rms(broyden)= 0.14497E-03
  rms(prec ) = 0.14774E-03
  weight for this iteration     100.00

 eigenvalues of (default mixing * dielectric matrix)
  average eigenvalue GAMMA=   1.0938
  1.0938

 Free energy of the ion-electron system (eV)
  ---------------------------------------------------
  alpha Z        PSCENC =         0.04144063
  Ewald energy   TEWEN  =       693.08904965
  -Hartree energ DENC   =     -1173.28183395
  -exchange      EXHF   =         0.00000000
  -V(xc)+E(xc)   XCENC  =        54.80596808
  PAW double counting   =      1310.08157009    -1312.87027069
  entropy T*S    EENTRO =         0.00000000
  eigenvalues    EBANDS =      -203.13585727
  atomic energy  EATOM  =       596.16534815
  Solvation  Ediel_sol  =         0.00000000
  ---------------------------------------------------
  free energy    TOTEN  =       -35.10458531 eV

  energy without entropy =      -35.10458531  energy(sigma->0) =      -35.10458531


--------------------------------------------------------------------------------------------------------




----------------------------------------- Iteration   28(   3)  ---------------------------------------


    POTLOK:  cpu time   33.2189: real time   36.7284
    SETDIJ:  cpu time    0.0060: real time    0.0066
     EDDAV:  cpu time   47.3978: real time   52.5164
       DOS:  cpu time    0.0000: real time    0.0002
    CHARGE:  cpu time    7.1309: real time    8.4380
    MIXING:  cpu time    0.7589: real time    1.0399
    --------------------------------------------
      LOOP:  cpu time   88.5155: real time   98.7499

 eigenvalue-minimisations  :    48
 total energy-change (2. order) :-0.4925323E-07  (-0.3709639E-07)
 number of electron      15.9999997 magnetization 
 augmentation part        0.4245012 magnetization 

 Broyden mixing:
  rms(total) = 0.87808E-04    rms(broyden)= 0.87769E-04
  rms(prec ) = 0.89127E-04
  weight for this iteration     100.00

 eigenvalues of (default mixing * dielectric matrix)
  average eigenvalue GAMMA=   1.4019
  0.8301  1.9737

 Free energy of the ion-electron system (eV)
  ---------------------------------------------------
  alpha Z        PSCENC =         0.04144063
  Ewald energy   TEWEN  =       693.08904965
  -Hartree energ DENC   =     -1173.28224380
  -exchange      EXHF   =         0.00000000
  -V(xc)+E(xc)   XCENC  =        54.80598027
  PAW double counting   =      1310.10061276    -1312.88932781
  entropy T*S    EENTRO =         0.00000000
  eigenvalues    EBANDS =      -203.13544522
  atomic energy  EATOM  =       596.16534815
  Solvation  Ediel_sol  =         0.00000000
  ---------------------------------------------------
  free energy    TOTEN  =       -35.10458536 eV

  energy without entropy =      -35.10458536  energy(sigma->0) =      -35.10458536


--------------------------------------------------------------------------------------------------------




----------------------------------------- Iteration   28(   4)  ---------------------------------------


    POTLOK:  cpu time   26.0190: real time   30.7688
    SETDIJ:  cpu time    0.0070: real time    0.0066
     EDDAV:  cpu time   48.1387: real time   54.7308
       DOS:  cpu time    0.0000: real time    0.0002
    CHARGE:  cpu time    6.4300: real time    7.0028
    MIXING:  cpu time    1.0428: real time    1.0461
    --------------------------------------------
      LOOP:  cpu time   81.6386: real time   93.5702

 eigenvalue-minimisations  :    48
 total energy-change (2. order) :-0.3617902E-07  (-0.1246319E-07)
 number of electron      15.9999997 magnetization 
 augmentation part        0.4244991 magnetization 

 Broyden mixing:
  rms(total) = 0.32161E-04    rms(broyden)= 0.32124E-04
  rms(prec ) = 0.32498E-04
  weight for this iteration     100.00

 eigenvalues of (default mixing * dielectric matrix)
  average eigenvalue GAMMA=   1.4235
  1.7532  1.7532  0.7640

 Free energy of the ion-electron system (eV)
  ---------------------------------------------------
  alpha Z        PSCENC =         0.04144063
  Ewald energy   TEWEN  =       693.08904965
  -Hartree energ DENC   =     -1173.28332898
  -exchange      EXHF   =         0.00000000
  -V(xc)+E(xc)   XCENC  =        54.80602757
  PAW double counting   =      1310.12686433    -1312.91560258
  entropy T*S    EENTRO =         0.00000000
  eigenvalues    EBANDS =      -203.13438416
  atomic energy  EATOM  =       596.16534815
  Solvation  Ediel_sol  =         0.00000000
  ---------------------------------------------------
  free energy    TOTEN  =       -35.10458540 eV

  energy without entropy =      -35.10458540  energy(sigma->0) =      -35.10458540


--------------------------------------------------------------------------------------------------------




----------------------------------------- Iteration   28(   5)  ---------------------------------------


    POTLOK:  cpu time   26.6589: real time   32.3493
    SETDIJ:  cpu time    0.0060: real time    0.0067
     EDDAV:  cpu time   46.8899: real time   52.5950
       DOS:  cpu time    0.0000: real time    0.0002
    CHARGE:  cpu time    6.2301: real time    7.0546
    MIXING:  cpu time    0.8789: real time    0.9860
    --------------------------------------------
      LOOP:  cpu time   80.6657: real time   93.0126

 eigenvalue-minimisations  :    48
 total energy-change (2. order) :-0.5373522E-08  (-0.5276746E-08)
 number of electron      15.9999997 magnetization 
 augmentation part        0.4244991 magnetization 

 Broyden mixing:
  rms(total) = 0.18754E-04    rms(broyden)= 0.18743E-04
  rms(prec ) = 0.18959E-04
  weight for this iteration     100.00

 eigenvalues of (default mixing * dielectric matrix)
  average eigenvalue GAMMA=   1.6419
  2.3912  2.3912  1.0224  0.7628

 Free energy of the ion-electron system (eV)
  ---------------------------------------------------
  alpha Z        PSCENC =         0.04144063
  Ewald energy   TEWEN  =       693.08904965
  -Hartree energ DENC   =     -1173.28343658
  -exchange      EXHF   =         0.00000000
  -V(xc)+E(xc)   XCENC  =        54.80603227
  PAW double counting   =      1310.13679019    -1312.92553023
  entropy T*S    EENTRO =         0.00000000
  eigenvalues    EBANDS =      -203.13427949
  atomic energy  EATOM  =       596.16534815
  Solvation  Ediel_sol  =         0.00000000
  ---------------------------------------------------
  free energy    TOTEN  =       -35.10458540 eV

  energy without entropy =      -35.10458540  energy(sigma->0) =      -35.10458540


--------------------------------------------------------------------------------------------------------




----------------------------------------- Iteration   28(   6)  ---------------------------------------


    POTLOK:  cpu time   30.1184: real time   31.8667
    SETDIJ:  cpu time    0.0070: real time    0.0073
     EDDAV:  cpu time   44.8022: real time   48.8139
       DOS:  cpu time    0.0000: real time    0.0002
    --------------------------------------------
      LOOP:  cpu time   74.9286: real time   80.6995

 eigenvalue-minimisations  :    48
 total energy-change (2. order) :-0.5291440E-08  (-0.3354945E-08)
 number of electron      15.9999997 magnetization 
 augmentation part        0.4244991 magnetization 

 Free energy of the ion-electron system (eV)
  ---------------------------------------------------
  alpha Z        PSCENC =         0.04144063
  Ewald energy   TEWEN  =       693.08904965
  -Hartree energ DENC   =     -1173.28352770
  -exchange      EXHF   =         0.00000000
  -V(xc)+E(xc)   XCENC  =        54.80603623
  PAW double counting   =      1310.14748398    -1312.93622555
  entropy T*S    EENTRO =         0.00000000
  eigenvalues    EBANDS =      -203.13419080
  atomic energy  EATOM  =       596.16534815
  Solvation  Ediel_sol  =         0.00000000
  ---------------------------------------------------
  free energy    TOTEN  =       -35.10458541 eV

  energy without entropy =      -35.10458541  energy(sigma->0) =      -35.10458541


--------------------------------------------------------------------------------------------------------




 average (electrostatic) potential at core
  the test charge radii are     0.5201  0.6991  0.7089
  (the norm of the test charge is              1.0000)
       1 -42.8607       2 -42.8549       3 -42.5524       4 -59.8944       5 -59.9646
       6 -73.9163
 
 
 
 E-fermi :  -6.7054     XC(G=0):  -0.0608     alpha+bet : -0.0137


 k-point     1 :       0.2500    0.2500    0.2500
  band No.  band energies     occupation 
      1     -23.2659      2.00000
      2     -18.4232      2.00000
      3     -12.1589      2.00000
      4     -11.4465      2.00000
      5     -11.0014      2.00000
      6      -9.2631      2.00000
      7      -8.3385      2.00000
      8      -7.6695      2.00000
      9      -3.2129      0.00000
     10      -0.4937      0.00000
     11      -0.3723      0.00000
     12       0.0284      0.00000

 k-point     2 :      -0.2500    0.2500    0.2500
  band No.  band energies     occupation 
      1     -23.2659      2.00000
      2     -18.4232      2.00000
      3     -12.1589      2.00000
      4     -11.4465      2.00000
      5     -11.0014      2.00000
      6      -9.2631      2.00000
      7      -8.3385      2.00000
      8      -7.6695      2.00000
      9      -3.2130      0.00000
     10      -0.4937      0.00000
     11      -0.3723      0.00000
     12       0.0254      0.00000

 k-point     3 :       0.2500   -0.2500    0.2500
  band No.  band energies     occupation 
      1     -23.2659      2.00000
      2     -18.4232      2.00000
      3     -12.1589      2.00000
      4     -11.4465      2.00000
      5     -11.0014      2.00000
      6      -9.2631      2.00000
      7      -8.3385      2.00000
      8      -7.6695      2.00000
      9      -3.2129      0.00000
     10      -0.4937      0.00000
     11      -0.3723      0.00000
     12       0.0264      0.00000

 k-point     4 :      -0.2500   -0.2500    0.2500
  band No.  band energies     occupation 
      1     -23.2659      2.00000
      2     -18.4232      2.00000
      3     -12.1589      2.00000
      4     -11.4465      2.00000
      5     -11.0014      2.00000
      6      -9.2631      2.00000
      7      -8.3385      2.00000
      8      -7.6695      2.00000
      9      -3.2129      0.00000
     10      -0.4937      0.00000
     11      -0.3723      0.00000
     12       0.0259      0.00000


--------------------------------------------------------------------------------------------------------


 soft charge-density along one line, spin component           1
         0         1         2         3         4         5         6         7         8         9
 total charge-density along one line
 
 pseudopotential strength for first ion, spin component:           1
 -2.359  -4.069  -0.002   0.000  -0.001
 -4.069  -6.931  -0.005   0.001  -0.002
 -0.002  -0.005  -0.330  -0.001   0.002
  0.000   0.001  -0.001  -0.334   0.000
 -0.001  -0.002   0.002   0.000  -0.334
 total augmentation occupancy for first ion, spin component:           1
  3.563  -0.641   0.406  -0.117   0.168
 -0.641   0.132  -0.074   0.020  -0.032
  0.406  -0.074   0.048  -0.011   0.017
 -0.117   0.020  -0.011   0.012  -0.005
  0.168  -0.032   0.017  -0.005   0.015


------------------------ aborting loop because EDIFF is reached ----------------------------------------


    CHARGE:  cpu time    6.4900: real time    6.7452
    FORLOC:  cpu time    2.4746: real time    3.0511
    FORNL :  cpu time   18.6392: real time   21.5984
    STRESS:  cpu time   60.9287: real time   67.8093
    FORCOR:  cpu time   20.8238: real time   21.2789
    FORHAR:  cpu time    6.8320: real time    7.9416
    MIXING:  cpu time    0.7529: real time    0.9423
    OFIELD:  cpu time    0.0000: real time    0.0000

  FORCE on cell =-STRESS in cart. coord.  units (eV):
  Direction    XX          YY          ZZ          XY          YZ          ZX
  --------------------------------------------------------------------------------------
  Alpha Z     0.04144     0.04144     0.04144
  Ewald     400.73830   123.72113   168.62977    82.12191    98.39239   122.22142
  Hartree   515.32290   319.43832   338.52239    39.84667    38.64102    63.19479
  E(xc)     -59.53064   -59.85987   -59.71880     0.23657     0.32503     0.32136
  Local   -1077.44952  -608.22438  -668.80472  -118.30507  -128.50493  -180.31771
  n-local   -22.40431   -25.90061   -26.97843    -2.49486    -2.32962    -2.77025
  augment     0.39905     0.44978     0.45852     0.15831    -0.03972     0.16503
  Kinetic   245.48430   249.06015   246.83130     0.30582    -6.69188    -0.36318
  Fock        0.00000     0.00000     0.00000     0.00000     0.00000     0.00000
  -------------------------------------------------------------------------------------
  Total       2.60152    -1.27403    -1.01854     1.86934    -0.20771     2.45146
  in kB       0.15437    -0.07560    -0.06044     0.11093    -0.01233     0.14547
  external pressure =        0.01 kB  Pullay stress =        0.00 kB


 VOLUME and BASIS-vectors are now :
 -----------------------------------------------------------------------------
  energy-cutoff  :      400.00
  volume of cell :    27000.00
      direct lattice vectors                 reciprocal lattice vectors
    30.000000000  0.000000000  0.000000000     0.033333333  0.000000000  0.000000000
     0.000000000 30.000000000  0.000000000     0.000000000  0.033333333  0.000000000
     0.000000000  0.000000000 30.000000000     0.000000000  0.000000000  0.033333333

  length of vectors
    30.000000000 30.000000000 30.000000000     0.033333333  0.033333333  0.033333333


 FORCES acting on ions
    electron-ion (+dipol)            ewald-force                    non-local-force                 convergence-correction
 -----------------------------------------------------------------------------------------------
   0.348E+02 0.548E+02 -.136E+02   -.375E+02 -.602E+02 0.149E+02   0.209E+01 0.519E+01 -.155E+01   0.762E-05 0.981E-05 -.430E-05
   0.302E+02 -.202E+02 0.555E+02   -.325E+02 0.221E+02 -.610E+02   0.166E+01 -.208E+01 0.519E+01   0.532E-05 -.829E-05 0.108E-04
   0.322E+02 -.394E+02 -.405E+02   -.334E+02 0.428E+02 0.441E+02   0.138E+01 -.369E+01 -.392E+01   0.265E-05 -.124E-04 -.101E-04
   0.101E+03 0.605E+01 0.146E+02   -.107E+03 -.558E+01 -.145E+02   0.564E+01 -.840E+00 -.544E+00   0.121E-04 -.246E-04 -.834E-05
   -.290E+02 0.123E+03 0.141E+03   0.282E+02 -.129E+03 -.148E+03   -.570E+00 0.721E+01 0.834E+01   -.105E-04 -.986E-05 0.488E-05
   -.165E+03 -.109E+03 -.139E+03   0.182E+03 0.130E+03 0.165E+03   -.142E+02 -.213E+02 -.257E+02   0.780E-04 -.587E-04 -.369E-04
 -----------------------------------------------------------------------------------------------
   0.402E+01 0.155E+02 0.182E+02   0.000E+00 0.000E+00 0.000E+00   -.401E+01 -.155E+02 -.182E+02   0.952E-04 -.104E-03 -.440E-04
 
 
 POSITION                                       TOTAL-FORCE (eV/Angst)
 -----------------------------------------------------------------------------------
     14.15353     13.94523     15.14871        -0.529898     -0.218440     -0.305006
     14.23325     15.29149     13.90612        -0.569632     -0.231917     -0.307012
     14.28890     15.65481     15.65764         0.209682     -0.301759     -0.323861
     14.55419     14.91763     14.87351        -0.261231     -0.371100     -0.467315
     16.06651     14.75269     14.79392        -1.387068      1.190960      1.287776
     16.64507     15.39602     15.58507         2.538147     -0.067743      0.115418
 -----------------------------------------------------------------------------------
    total drift:                                0.005143      0.004156     -0.001901


--------------------------------------------------------------------------------------------------------



  FREE ENERGIE OF THE ION-ELECTRON SYSTEM (eV)
  ---------------------------------------------------
  free  energy   TOTEN  =       -35.10458541 eV

  energy  without entropy=      -35.10458541  energy(sigma->0) =      -35.10458541
 
 d Force =-0.9315332E-04[-0.935E-04,-0.928E-04]  d Energy =-0.9312472E-04-0.286E-07
 d Force =-0.1473063E-01[-0.147E-01,-0.147E-01]  d Ewald  =-0.1473063E-01 0.808E-10


--------------------------------------------------------------------------------------------------------


    POTLOK:  cpu time   20.0120: real time   22.8025


--------------------------------------------------------------------------------------------------------


 NEB: the previous image is higher in energy: T
 NEB: the next image is higher in energy    : F
 NEB: only prev energy greater

 NEB: Tangent
 ----------------------------------------------
     -0.14245     -0.05491     -0.08251
     -0.15659     -0.06653     -0.08088
      0.03888     -0.08006     -0.09092
     -0.07100     -0.09693     -0.12435
     -0.38104      0.33159      0.35223
      0.71225     -0.03316      0.02632

 NEB: forces: par spring, perp REAL, dneb     0.004271    0.106991    0.000000
 NEB: distance to prev, next image, angle between     0.285659    0.284805  163.624798
 NEB: projections on to tangent (spring, REAL)    -0.004271    3.606615

 stress matrix after NEB project (eV)
      2.60152      1.86934      2.45146
      1.86934     -1.27403     -0.20771
      2.45146     -0.20771     -1.01854
  FORCES: max atom, RMS     0.070579    0.043714
  FORCE total and by dimension    0.107077    0.069292
  Stress total and by dimension    5.340690    2.601521
 OPT: skip step - force has converged


--------------------------------------------------------------------------------------------------------


  
 reached required accuracy - stopping structural energy minimisation
     LOOP+:  cpu time  670.0051: real time  741.1811
    4ORBIT:  cpu time    0.0000: real time    0.0000

 total amount of memory used by VASP on root node  3203886. kBytes
========================================================================

   base      :      30000. kBytes
   nonlr-proj:        690. kBytes
   fftplans  :     924480. kBytes
   grid      :    1872000. kBytes
   one-center:         18. kBytes
   wavefun   :     376698. kBytes
 
  
  
 General timing and accounting informations for this job:
 ========================================================
  
                  Total CPU time used (sec):    22473.145
                            User time (sec):    22178.814
                          System time (sec):      294.329
                         Elapsed time (sec):    22606.002
  
                   Maximum memory used (kb):     4760500.
                   Average memory used (kb):           0.
  
                          Minor page faults:      2555297
                          Major page faults:            9
                 Voluntary context switches:         3920
