 vasp.5.4.1 24Jun15 (build Jan 13 2020 12:58:22) complex                        
  
 POSCAR found type information on POSCAR  H  C  N 
 11/POSCAR found :  3 types and       6 ions
 scaLAPACK will be used

 ----------------------------------------------------------------------------- 
|                                                                             |
|  ADVICE TO THIS USER RUNNING 'VASP/VAMP'   (HEAR YOUR MASTER'S VOICE ...):  |
|                                                                             |
|      You have a (more or less) 'small supercell' and for smaller cells      |
|      it is recommended  to use the reciprocal-space projection scheme!      |
|      The real space optimization is not  efficient for small cells and it   |
|      is also less accurate ...                                              |
|      Therefore set LREAL=.FALSE. in the  INCAR file                         |
|                                                                             |
 ----------------------------------------------------------------------------- 

 LDA part: xc-table for Pade appr. of Perdew
 POSCAR found type information on POSCAR  H  C  N 
 00/POSCAR found :  3 types and       6 ions
 POSCAR found type information on POSCAR  H  C  N 
 16/POSCAR found :  3 types and       6 ions
 Jacobian:    40.4401846379183     
 POSCAR, INCAR and KPOINTS ok, starting setup
 WARNING: small aliasing (wrap around) errors must be expected
 FFT: planning ...
 WAVECAR not read
 entering main loop
       N       E                     dE             d eps       ncg     rms          rms(c)
DAV:   1     0.112454986065E+03    0.11245E+03   -0.21256E+03   160   0.366E+02
DAV:   2    -0.370465737955E+00   -0.11283E+03   -0.10974E+03   192   0.102E+02
DAV:   3    -0.355552177368E+02   -0.35185E+02   -0.34629E+02   128   0.962E+01
DAV:   4    -0.386136216518E+02   -0.30584E+01   -0.29398E+01   100   0.312E+01
DAV:   5    -0.387099264586E+02   -0.96305E-01   -0.96217E-01   160   0.538E+00    0.107E+01
DAV:   6    -0.357721312992E+02    0.29378E+01   -0.57082E+00   124   0.169E+01    0.610E+00
DAV:   7    -0.351897520131E+02    0.58238E+00   -0.17140E+00   116   0.984E+00    0.325E+00
DAV:   8    -0.349963947337E+02    0.19336E+00   -0.43792E-01   128   0.581E+00    0.126E+00
DAV:   9    -0.349698782680E+02    0.26516E-01   -0.60503E-02    96   0.202E+00    0.386E-01
DAV:  10    -0.349664160264E+02    0.34622E-02   -0.58160E-03   128   0.719E-01    0.159E-01
DAV:  11    -0.349664853481E+02   -0.69322E-04   -0.19289E-03    96   0.339E-01    0.855E-02
DAV:  12    -0.349692251245E+02   -0.27398E-02   -0.10059E-03   112   0.277E-01    0.487E-02
DAV:  13    -0.349736916400E+02   -0.44665E-02   -0.19863E-03   144   0.274E-01    0.320E-02
DAV:  14    -0.349778760742E+02   -0.41844E-02   -0.58428E-04   124   0.151E-01    0.224E-02
DAV:  15    -0.349801135357E+02   -0.22375E-02   -0.20233E-04   128   0.821E-02    0.121E-02
DAV:  16    -0.349820598099E+02   -0.19463E-02   -0.17485E-04    96   0.703E-02    0.886E-03
DAV:  17    -0.349834006000E+02   -0.13408E-02   -0.85163E-05    96   0.510E-02    0.365E-03
DAV:  18    -0.349837776602E+02   -0.37706E-03   -0.40378E-05    96   0.309E-02    0.271E-03
DAV:  19    -0.349840690255E+02   -0.29137E-03   -0.23698E-05    92   0.220E-02    0.121E-03
DAV:  20    -0.349841486005E+02   -0.79575E-04   -0.68408E-06    96   0.146E-02
   1 F= -.34984149E+02 E0= -.34984149E+02  d E =-.349841E+02
damped:  g(F)=  0.000E+00 g(S)=  0.000E+00 dE (1.order)= 0.000E+00
 bond charge predicted
       N       E                     dE             d eps       ncg     rms          rms(c)
DAV:   1    -0.349976460282E+02   -0.13577E-01   -0.70635E-02   108   0.246E+00    0.994E-02
DAV:   2    -0.349975075274E+02    0.13850E-03   -0.10868E-03   128   0.300E-01    0.543E-02
DAV:   3    -0.349974850262E+02    0.22501E-04   -0.85700E-05    88   0.106E-01    0.306E-02
DAV:   4    -0.349975050393E+02   -0.20013E-04   -0.78549E-05    88   0.763E-02    0.818E-03
DAV:   5    -0.349975099014E+02   -0.48622E-05   -0.12518E-05    80   0.343E-02    0.450E-03
DAV:   6    -0.349975160306E+02   -0.61291E-05   -0.21756E-06    84   0.132E-02
   2 F= -.34997516E+02 E0= -.34997516E+02  d E =-.133674E-01
damped:  g(F)=  0.000E+00 g(S)=  0.000E+00 dE (1.order)= 0.000E+00
 bond charge predicted
       N       E                     dE             d eps       ncg     rms          rms(c)
DAV:   1    -0.350221475169E+02   -0.24638E-01   -0.21676E-01    96   0.440E+00    0.148E-01
DAV:   2    -0.350219246648E+02    0.22285E-03   -0.30518E-03   116   0.480E-01    0.797E-02
DAV:   3    -0.350219151754E+02    0.94894E-05   -0.24504E-04   128   0.157E-01    0.427E-02
DAV:   4    -0.350219372492E+02   -0.22074E-04   -0.57131E-05    80   0.750E-02    0.129E-02
DAV:   5    -0.350219439146E+02   -0.66654E-05   -0.11746E-05    96   0.309E-02    0.451E-03
DAV:   6    -0.350219483420E+02   -0.44274E-05   -0.30453E-06    64   0.154E-02
   3 F= -.35021948E+02 E0= -.35021948E+02  d E =-.244323E-01
damped:  g(F)=  0.000E+00 g(S)=  0.000E+00 dE (1.order)= 0.000E+00
 bond charge predicted
       N       E                     dE             d eps       ncg     rms          rms(c)
DAV:   1    -0.350550255747E+02   -0.33082E-01   -0.34653E-01    96   0.556E+00    0.192E-01
DAV:   2    -0.350546276940E+02    0.39788E-03   -0.45070E-03   112   0.593E-01    0.103E-01
DAV:   3    -0.350546142461E+02    0.13448E-04   -0.34572E-04   120   0.190E-01    0.568E-02
DAV:   4    -0.350546618516E+02   -0.47605E-04   -0.92477E-05    76   0.947E-02    0.139E-02
DAV:   5    -0.350546715972E+02   -0.97456E-05   -0.16959E-05    96   0.373E-02    0.531E-03
DAV:   6    -0.350546799727E+02   -0.83755E-05   -0.46980E-06    64   0.183E-02
   4 F= -.35054680E+02 E0= -.35054680E+02  d E =-.327316E-01
damped:  g(F)=  0.000E+00 g(S)=  0.000E+00 dE (1.order)= 0.000E+00
 bond charge predicted
       N       E                     dE             d eps       ncg     rms          rms(c)
DAV:   1    -0.350928915736E+02   -0.38220E-01   -0.36671E-01    96   0.570E+00    0.225E-01
DAV:   2    -0.350921284263E+02    0.76315E-03   -0.41965E-03   128   0.633E-01    0.117E-01
DAV:   3    -0.350920719904E+02    0.56436E-04   -0.46978E-04   128   0.226E-01    0.641E-02
DAV:   4    -0.350921501616E+02   -0.78171E-04   -0.15312E-04    80   0.117E-01    0.117E-02
DAV:   5    -0.350921592432E+02   -0.90816E-05   -0.25292E-05    80   0.478E-02    0.626E-03
DAV:   6    -0.350921703674E+02   -0.11124E-04   -0.44903E-06    64   0.192E-02
   5 F= -.35092170E+02 E0= -.35092170E+02  d E =-.374904E-01
damped:  g(F)=  0.000E+00 g(S)=  0.000E+00 dE (1.order)= 0.000E+00
 bond charge predicted
       N       E                     dE             d eps       ncg     rms          rms(c)
DAV:   1    -0.350929826533E+02   -0.82341E-03   -0.26543E-03    96   0.458E-01    0.197E-02
DAV:   2    -0.350929849445E+02   -0.22912E-05   -0.37444E-05    96   0.573E-02    0.113E-02
DAV:   3    -0.350929883765E+02   -0.34320E-05   -0.74080E-06    48   0.268E-02    0.639E-03
DAV:   4    -0.350929968490E+02   -0.84725E-05   -0.47202E-06    88   0.181E-02    0.246E-03
DAV:   5    -0.350930018715E+02   -0.50225E-05   -0.77304E-07    80   0.773E-03    0.119E-03
DAV:   6    -0.350930077518E+02   -0.58803E-05   -0.37159E-07    80   0.409E-03
   6 F= -.35093008E+02 E0= -.35093008E+02  d E =-.837384E-03
damped:  g(F)=  0.000E+00 g(S)=  0.000E+00 dE (1.order)= 0.000E+00
 bond charge predicted
       N       E                     dE             d eps       ncg     rms          rms(c)
DAV:   1    -0.350944043662E+02   -0.14025E-02   -0.70502E-03    96   0.744E-01    0.287E-02
DAV:   2    -0.350943971408E+02    0.72254E-05   -0.93261E-05    84   0.870E-02    0.170E-02
DAV:   3    -0.350943957043E+02    0.14365E-05   -0.16913E-05    88   0.393E-02    0.985E-03
DAV:   4    -0.350943984847E+02   -0.27804E-05   -0.84151E-06    72   0.250E-02    0.435E-03
DAV:   5    -0.350944001846E+02   -0.17000E-05   -0.12754E-06    80   0.105E-02    0.200E-03
DAV:   6    -0.350944019174E+02   -0.17328E-05   -0.24779E-07    80   0.447E-03
   7 F= -.35094402E+02 E0= -.35094402E+02  d E =-.139417E-02
damped:  g(F)=  0.000E+00 g(S)=  0.000E+00 dE (1.order)= 0.000E+00
 bond charge predicted
       N       E                     dE             d eps       ncg     rms          rms(c)
DAV:   1    -0.350963351166E+02   -0.19349E-02   -0.91621E-03    96   0.853E-01    0.264E-02
DAV:   2    -0.350963298717E+02    0.52450E-05   -0.10113E-04    84   0.877E-02    0.161E-02
DAV:   3    -0.350963305031E+02   -0.63140E-06   -0.22518E-05    96   0.422E-02    0.642E-03
DAV:   4    -0.350963316729E+02   -0.11698E-05   -0.45020E-06    64   0.201E-02    0.406E-03
DAV:   5    -0.350963323005E+02   -0.62764E-06   -0.84242E-07    80   0.821E-03    0.204E-03
DAV:   6    -0.350963328741E+02   -0.57359E-06   -0.25014E-07    64   0.409E-03
   8 F= -.35096333E+02 E0= -.35096333E+02  d E =-.193096E-02
damped:  g(F)=  0.000E+00 g(S)=  0.000E+00 dE (1.order)= 0.000E+00
 bond charge predicted
       N       E                     dE             d eps       ncg     rms          rms(c)
DAV:   1    -0.350987915768E+02   -0.24593E-02   -0.12473E-02    96   0.101E+00    0.305E-02
DAV:   2    -0.350987850340E+02    0.65428E-05   -0.15809E-04    96   0.112E-01    0.185E-02
DAV:   3    -0.350987849652E+02    0.68821E-07   -0.18437E-05    64   0.408E-02    0.804E-03
DAV:   4    -0.350987866361E+02   -0.16709E-05   -0.42575E-06    64   0.211E-02    0.350E-03
DAV:   5    -0.350987869622E+02   -0.32612E-06   -0.76222E-07    64   0.906E-03    0.171E-03
DAV:   6    -0.350987873187E+02   -0.35650E-06   -0.28284E-07    68   0.419E-03
   9 F= -.35098787E+02 E0= -.35098787E+02  d E =-.245444E-02
damped:  g(F)=  0.000E+00 g(S)=  0.000E+00 dE (1.order)= 0.000E+00
 bond charge predicted
       N       E                     dE             d eps       ncg     rms          rms(c)
DAV:   1    -0.351015161524E+02   -0.27292E-02   -0.17927E-02    96   0.122E+00    0.396E-02
DAV:   2    -0.351015015007E+02    0.14652E-04   -0.25147E-04    96   0.146E-01    0.245E-02
DAV:   3    -0.351014982793E+02    0.32214E-05   -0.27381E-05    64   0.523E-02    0.132E-02
DAV:   4    -0.351015018899E+02   -0.36106E-05   -0.11055E-05    68   0.342E-02    0.462E-03
DAV:   5    -0.351015023698E+02   -0.47989E-06   -0.23119E-06    64   0.151E-02    0.237E-03
DAV:   6    -0.351015027921E+02   -0.42237E-06   -0.46400E-07    48   0.620E-03
  10 F= -.35101503E+02 E0= -.35101503E+02  d E =-.271547E-02
damped:  g(F)=  0.000E+00 g(S)=  0.000E+00 dE (1.order)= 0.000E+00
 bond charge predicted
       N       E                     dE             d eps       ncg     rms          rms(c)
DAV:   1    -0.351042597156E+02   -0.27573E-02   -0.19328E-02    96   0.126E+00    0.385E-02
DAV:   2    -0.351042509831E+02    0.87325E-05   -0.24732E-04    96   0.138E-01    0.240E-02
DAV:   3    -0.351042500422E+02    0.94081E-06   -0.23376E-05    64   0.488E-02    0.117E-02
DAV:   4    -0.351042534951E+02   -0.34528E-05   -0.85630E-06    64   0.303E-02    0.430E-03
DAV:   5    -0.351042538997E+02   -0.40468E-06   -0.17259E-06    48   0.135E-02    0.227E-03
DAV:   6    -0.351042544519E+02   -0.55218E-06   -0.46415E-07    64   0.575E-03
  11 F= -.35104254E+02 E0= -.35104254E+02  d E =-.275166E-02
damped:  g(F)=  0.000E+00 g(S)=  0.000E+00 dE (1.order)= 0.000E+00
 bond charge predicted
       N       E                     dE             d eps       ncg     rms          rms(c)
DAV:   1    -0.351072244058E+02   -0.29705E-02   -0.21027E-02    96   0.130E+00    0.380E-02
DAV:   2    -0.351072219187E+02    0.24871E-05   -0.22608E-04   112   0.120E-01    0.233E-02
DAV:   3    -0.351072253437E+02   -0.34249E-05   -0.15099E-05    84   0.425E-02    0.564E-03
DAV:   4    -0.351072267526E+02   -0.14089E-05   -0.47109E-06    48   0.195E-02    0.310E-03
DAV:   5    -0.351072273649E+02   -0.61236E-06   -0.61157E-07    48   0.704E-03    0.122E-03
DAV:   6    -0.351072279007E+02   -0.53575E-06   -0.15903E-07    48   0.332E-03
  12 F= -.35107228E+02 E0= -.35107228E+02  d E =-.297345E-02
damped:  g(F)=  0.000E+00 g(S)=  0.000E+00 dE (1.order)= 0.000E+00
 bond charge predicted
       N       E                     dE             d eps       ncg     rms          rms(c)
DAV:   1    -0.351101050868E+02   -0.28777E-02   -0.24552E-02    96   0.142E+00    0.447E-02
DAV:   2    -0.351100974236E+02    0.76632E-05   -0.29632E-04    96   0.136E-01    0.286E-02
DAV:   3    -0.351100956720E+02    0.17515E-05   -0.16800E-05    72   0.440E-02    0.141E-02
DAV:   4    -0.351101002416E+02   -0.45696E-05   -0.98333E-06    88   0.301E-02    0.431E-03
DAV:   5    -0.351101009174E+02   -0.67581E-06   -0.16703E-06    60   0.125E-02    0.235E-03
DAV:   6    -0.351101019247E+02   -0.10072E-05   -0.33940E-07    52   0.565E-03
  13 F= -.35110102E+02 E0= -.35110102E+02  d E =-.287402E-02
damped:  g(F)=  0.000E+00 g(S)=  0.000E+00 dE (1.order)= 0.000E+00
 bond charge predicted
       N       E                     dE             d eps       ncg     rms          rms(c)
DAV:   1    -0.351100596089E+02    0.41309E-04   -0.47174E-05    48   0.625E-02    0.258E-03
DAV:   2    -0.351100601081E+02   -0.49921E-06   -0.23420E-06    48   0.150E-02    0.160E-03
DAV:   3    -0.351100604149E+02   -0.30678E-06   -0.20196E-07    48   0.453E-03    0.108E-03
DAV:   4    -0.351100610405E+02   -0.62557E-06   -0.16903E-07    80   0.351E-03    0.352E-04
DAV:   5    -0.351100612094E+02   -0.16897E-06   -0.39246E-08    48   0.157E-03    0.268E-04
DAV:   6    -0.351100615871E+02   -0.37763E-06   -0.21199E-08    48   0.657E-04
  14 F= -.35110062E+02 E0= -.35110062E+02  d E =0.403376E-04
damped:  g(F)=  0.000E+00 g(S)=  0.000E+00 dE (1.order)= 0.000E+00
 bond charge predicted
       N       E                     dE             d eps       ncg     rms          rms(c)
DAV:   1    -0.351099500545E+02    0.11115E-03   -0.19228E-04    92   0.124E-01    0.556E-03
DAV:   2    -0.351099498865E+02    0.16801E-06   -0.30875E-06    72   0.161E-02    0.314E-03
DAV:   3    -0.351099499840E+02   -0.97478E-07   -0.64134E-07    56   0.763E-03    0.182E-03
DAV:   4    -0.351099501865E+02   -0.20254E-06   -0.33719E-07    52   0.490E-03    0.749E-04
DAV:   5    -0.351099503081E+02   -0.12155E-06   -0.57918E-08    48   0.203E-03    0.346E-04
DAV:   6    -0.351099504628E+02   -0.15474E-06   -0.21914E-08    80   0.887E-04
  15 F= -.35109950E+02 E0= -.35109950E+02  d E =0.111124E-03
damped:  g(F)=  0.000E+00 g(S)=  0.000E+00 dE (1.order)= 0.000E+00
 bond charge predicted
       N       E                     dE             d eps       ncg     rms          rms(c)
DAV:   1    -0.351097241022E+02    0.22621E-03   -0.37131E-04    96   0.174E-01    0.735E-03
DAV:   2    -0.351097235867E+02    0.51551E-06   -0.57676E-06    64   0.216E-02    0.423E-03
DAV:   3    -0.351097235614E+02    0.25281E-07   -0.12090E-06    64   0.103E-02    0.245E-03
DAV:   4    -0.351097236802E+02   -0.11876E-06   -0.54360E-07    60   0.633E-03    0.108E-03
DAV:   5    -0.351097237383E+02   -0.58111E-07   -0.92342E-08    48   0.261E-03    0.478E-04
DAV:   6    -0.351097237990E+02   -0.60703E-07   -0.30616E-08    64   0.111E-03
  16 F= -.35109724E+02 E0= -.35109724E+02  d E =0.226664E-03
damped:  g(F)=  0.000E+00 g(S)=  0.000E+00 dE (1.order)= 0.000E+00
 bond charge predicted
       N       E                     dE             d eps       ncg     rms          rms(c)
DAV:   1    -0.351093701642E+02    0.35357E-03   -0.47237E-04    96   0.198E-01    0.773E-03
DAV:   2    -0.351093695839E+02    0.58028E-06   -0.69596E-06    64   0.233E-02    0.451E-03
DAV:   3    -0.351093695494E+02    0.34554E-07   -0.16108E-06    64   0.113E-02    0.243E-03
DAV:   4    -0.351093696323E+02   -0.82932E-07   -0.53109E-07    48   0.644E-03    0.118E-03
DAV:   5    -0.351093696727E+02   -0.40343E-07   -0.10335E-07    48   0.264E-03    0.518E-04
DAV:   6    -0.351093697142E+02   -0.41540E-07   -0.40049E-08    64   0.117E-03
  17 F= -.35109370E+02 E0= -.35109370E+02  d E =0.354085E-03
damped:  g(F)=  0.000E+00 g(S)=  0.000E+00 dE (1.order)= 0.000E+00
 bond charge predicted
       N       E                     dE             d eps       ncg     rms          rms(c)
DAV:   1    -0.351088912903E+02    0.47838E-03   -0.47073E-04    96   0.202E-01    0.723E-03
DAV:   2    -0.351088908561E+02    0.43411E-06   -0.63863E-06    56   0.228E-02    0.414E-03
DAV:   3    -0.351088909565E+02   -0.10036E-06   -0.20987E-06    56   0.117E-02    0.162E-03
DAV:   4    -0.351088909918E+02   -0.35304E-07   -0.36547E-07    48   0.563E-03    0.951E-04
DAV:   5    -0.351088910230E+02   -0.31156E-07   -0.89960E-08    48   0.232E-03    0.439E-04
DAV:   6    -0.351088910547E+02   -0.31775E-07   -0.43984E-08    48   0.115E-03
  18 F= -.35108891E+02 E0= -.35108891E+02  d E =0.478659E-03
damped:  g(F)=  0.000E+00 g(S)=  0.000E+00 dE (1.order)= 0.000E+00
 bond charge predicted
       N       E                     dE             d eps       ncg     rms          rms(c)
DAV:   1    -0.351083012698E+02    0.58975E-03   -0.45992E-04    96   0.204E-01    0.703E-03
DAV:   2    -0.351083007537E+02    0.51609E-06   -0.61023E-06    64   0.244E-02    0.388E-03
DAV:   3    -0.351083008733E+02   -0.11955E-06   -0.19468E-06    48   0.111E-02    0.159E-03
DAV:   4    -0.351083009580E+02   -0.84721E-07   -0.35331E-07    48   0.533E-03    0.921E-04
DAV:   5    -0.351083009902E+02   -0.32146E-07   -0.88293E-08    48   0.253E-03    0.274E-04
DAV:   6    -0.351083010149E+02   -0.24687E-07   -0.45231E-08    48   0.120E-03
  19 F= -.35108301E+02 E0= -.35108301E+02  d E =0.590040E-03
damped:  g(F)=  0.000E+00 g(S)=  0.000E+00 dE (1.order)= 0.000E+00
 bond charge predicted
       N       E                     dE             d eps       ncg     rms          rms(c)
DAV:   1    -0.351075235238E+02    0.77747E-03   -0.64758E-04    96   0.244E-01    0.889E-03
DAV:   2    -0.351075222794E+02    0.12445E-05   -0.94649E-06    64   0.331E-02    0.489E-03
DAV:   3    -0.351075222580E+02    0.21345E-07   -0.23636E-06    64   0.138E-02    0.248E-03
DAV:   4    -0.351075224895E+02   -0.23152E-06   -0.70409E-07    48   0.753E-03    0.113E-03
DAV:   5    -0.351075225345E+02   -0.45010E-07   -0.15522E-07    48   0.343E-03    0.348E-04
DAV:   6    -0.351075225565E+02   -0.21924E-07   -0.57956E-08    48   0.151E-03
  20 F= -.35107523E+02 E0= -.35107523E+02  d E =0.778458E-03
damped:  g(F)=  0.000E+00 g(S)=  0.000E+00 dE (1.order)= 0.000E+00
 bond charge predicted
       N       E                     dE             d eps       ncg     rms          rms(c)
DAV:   1    -0.351064853999E+02    0.10371E-02   -0.10051E-03    96   0.305E-01    0.118E-02
DAV:   2    -0.351064829475E+02    0.24524E-05   -0.15975E-05    64   0.442E-02    0.648E-03
DAV:   3    -0.351064827350E+02    0.21245E-06   -0.36686E-06    64   0.182E-02    0.347E-03
DAV:   4    -0.351064830828E+02   -0.34775E-06   -0.13230E-06    48   0.104E-02    0.150E-03
DAV:   5    -0.351064831447E+02   -0.61969E-07   -0.27574E-07    48   0.471E-03    0.624E-04
DAV:   6    -0.351064831714E+02   -0.26713E-07   -0.78213E-08    48   0.212E-03
  21 F= -.35106483E+02 E0= -.35106483E+02  d E =0.103939E-02
damped:  g(F)=  0.000E+00 g(S)=  0.000E+00 dE (1.order)= 0.000E+00
 bond charge predicted
       N       E                     dE             d eps       ncg     rms          rms(c)
DAV:   1    -0.351050589044E+02    0.14242E-02   -0.13530E-03    96   0.352E-01    0.127E-02
DAV:   2    -0.351050564093E+02    0.24951E-05   -0.19400E-05    64   0.479E-02    0.703E-03
DAV:   3    -0.351050562562E+02    0.15312E-06   -0.39281E-06    64   0.194E-02    0.388E-03
DAV:   4    -0.351050567213E+02   -0.46509E-06   -0.14242E-06    48   0.109E-02    0.153E-03
DAV:   5    -0.351050567828E+02   -0.61529E-07   -0.30041E-07    48   0.490E-03    0.682E-04
DAV:   6    -0.351050568159E+02   -0.33129E-07   -0.87633E-08    48   0.225E-03
  22 F= -.35105057E+02 E0= -.35105057E+02  d E =0.142636E-02
damped:  g(F)=  0.000E+00 g(S)=  0.000E+00 dE (1.order)= 0.000E+00
 bond charge predicted
       N       E                     dE             d eps       ncg     rms          rms(c)
DAV:   1    -0.351050248920E+02    0.31891E-04   -0.23211E-06    48   0.145E-02    0.640E-04
DAV:   2    -0.351050249345E+02   -0.42528E-07   -0.14158E-07    48   0.351E-03    0.380E-04
DAV:   3    -0.351050249667E+02   -0.32232E-07   -0.41221E-08    48   0.113E-03    0.206E-04
DAV:   4    -0.351050250274E+02   -0.60675E-07   -0.38225E-08    48   0.859E-04    0.742E-05
DAV:   5    -0.351050250518E+02   -0.24418E-07   -0.31085E-08    48   0.408E-04    0.515E-05
DAV:   6    -0.351050251093E+02   -0.57528E-07   -0.30513E-08    48   0.233E-04
  23 F= -.35105025E+02 E0= -.35105025E+02  d E =0.317066E-04
damped:  g(F)=  0.000E+00 g(S)=  0.000E+00 dE (1.order)= 0.000E+00
 bond charge predicted
       N       E                     dE             d eps       ncg     rms          rms(c)
DAV:   1    -0.351049631825E+02    0.61869E-04   -0.89424E-06    48   0.283E-02    0.120E-03
DAV:   2    -0.351049632246E+02   -0.42033E-07   -0.43755E-07    48   0.660E-03    0.695E-04
DAV:   3    -0.351049632477E+02   -0.23087E-07   -0.73433E-08    48   0.207E-03    0.401E-04
DAV:   4    -0.351049632908E+02   -0.43188E-07   -0.55426E-08    48   0.151E-03    0.133E-04
DAV:   5    -0.351049633038E+02   -0.12967E-07   -0.35429E-08    48   0.690E-04    0.944E-05
DAV:   6    -0.351049633298E+02   -0.25959E-07   -0.31312E-08    48   0.326E-04
  24 F= -.35104963E+02 E0= -.35104963E+02  d E =0.617796E-04
damped:  g(F)=  0.000E+00 g(S)=  0.000E+00 dE (1.order)= 0.000E+00
 bond charge predicted
       N       E                     dE             d eps       ncg     rms          rms(c)
DAV:   1    -0.351048765648E+02    0.86739E-04   -0.19292E-05    48   0.416E-02    0.167E-03
DAV:   2    -0.351048766004E+02   -0.35694E-07   -0.89662E-07    48   0.961E-03    0.977E-04
DAV:   3    -0.351048766136E+02   -0.13187E-07   -0.12257E-07    48   0.299E-03    0.571E-04
DAV:   4    -0.351048766379E+02   -0.24286E-07   -0.78646E-08    48   0.211E-03    0.189E-04
DAV:   5    -0.351048766405E+02   -0.25734E-08   -0.39398E-08    48   0.975E-04    0.133E-04
DAV:   6    -0.351048766479E+02   -0.73774E-08   -0.30680E-08    48   0.452E-04
  25 F= -.35104877E+02 E0= -.35104877E+02  d E =0.866819E-04
damped:  g(F)=  0.000E+00 g(S)=  0.000E+00 dE (1.order)= 0.000E+00
 bond charge predicted
       N       E                     dE             d eps       ncg     rms          rms(c)
DAV:   1    -0.351047757550E+02    0.10089E-03   -0.32947E-05    48   0.543E-02    0.200E-03
DAV:   2    -0.351047758075E+02   -0.52489E-07   -0.14817E-06    48   0.125E-02    0.119E-03
DAV:   3    -0.351047758228E+02   -0.15230E-07   -0.18587E-07    48   0.385E-03    0.709E-04
DAV:   4    -0.351047758468E+02   -0.24032E-07   -0.10098E-07    48   0.255E-03    0.235E-04
DAV:   5    -0.351047758474E+02   -0.56752E-09   -0.43727E-08    48   0.119E-03    0.164E-04
DAV:   6    -0.351047758506E+02   -0.32771E-08   -0.30804E-08    48   0.552E-04
  26 F= -.35104776E+02 E0= -.35104776E+02  d E =0.100797E-03
damped:  g(F)=  0.000E+00 g(S)=  0.000E+00 dE (1.order)= 0.000E+00
 bond charge predicted
       N       E                     dE             d eps       ncg     rms          rms(c)
DAV:   1    -0.351046783740E+02    0.97473E-04   -0.50432E-05    48   0.673E-02    0.223E-03
DAV:   2    -0.351046784683E+02   -0.94324E-07   -0.22161E-06    48   0.154E-02    0.134E-03
DAV:   3    -0.351046784963E+02   -0.28030E-07   -0.27000E-07    48   0.470E-03    0.816E-04
DAV:   4    -0.351046785273E+02   -0.30943E-07   -0.11565E-07    48   0.276E-03    0.271E-04
DAV:   5    -0.351046785289E+02   -0.16871E-08   -0.48389E-08    48   0.130E-03    0.183E-04
DAV:   6    -0.351046785327E+02   -0.37167E-08   -0.31859E-08    48   0.620E-04
  27 F= -.35104679E+02 E0= -.35104679E+02  d E =0.973180E-04
damped:  g(F)=  0.000E+00 g(S)=  0.000E+00 dE (1.order)= 0.000E+00
 bond charge predicted
       N       E                     dE             d eps       ncg     rms          rms(c)
DAV:   1    -0.351045851543E+02    0.93375E-04   -0.71166E-05    48   0.799E-02    0.244E-03
DAV:   2    -0.351045853118E+02   -0.15755E-06   -0.30828E-06    48   0.182E-02    0.145E-03
DAV:   3    -0.351045853611E+02   -0.49253E-07   -0.37096E-07    48   0.555E-03    0.878E-04
DAV:   4    -0.351045853973E+02   -0.36179E-07   -0.12463E-07    48   0.283E-03    0.322E-04
DAV:   5    -0.351045854026E+02   -0.53735E-08   -0.52767E-08    48   0.135E-03    0.188E-04
DAV:   6    -0.351045854079E+02   -0.52914E-08   -0.33549E-08    48   0.697E-04
  28 F= -.35104585E+02 E0= -.35104585E+02  d E =0.931247E-04
damped:  g(F)=  0.000E+00 g(S)=  0.000E+00 dE (1.order)= 0.000E+00
 reached required accuracy - stopping structural energy minimisation
