unknown system                          
           1
    30.000000    0.000000    0.000000
     0.000000   30.000000    0.000000
     0.000000    0.000000   30.000000
   H    C    N 
   3   2   1
Direct configuration=     1
   0.47167427  0.46499144  0.50501568
   0.47435375  0.50990919  0.46369083
   0.47660667  0.52196840  0.52214489
   0.48522704  0.49737878  0.49588347
   0.53602639  0.49129354  0.49257508
   0.55425258  0.51294050  0.51958563
Direct configuration=     2
   0.47171154  0.46497601  0.50502172
   0.47434882  0.50983566  0.46365812
   0.47664554  0.52190455  0.52204212
   0.48523552  0.49732201  0.49582279
   0.53585267  0.49142328  0.49271580
   0.55430135  0.51307774  0.51960001
Direct configuration=     3
   0.47175269  0.46493913  0.50502639
   0.47434172  0.50974187  0.46360260
   0.47667759  0.52183079  0.52191828
   0.48522399  0.49725032  0.49574796
   0.53565284  0.49160204  0.49290894
   0.55438957  0.51324729  0.51961257
Direct configuration=     4
   0.47177936  0.46487357  0.50502338
   0.47433170  0.50965007  0.46352435
   0.47667221  0.52177068  0.52180910
   0.48517489  0.49718007  0.49567843
   0.53550781  0.49182517  0.49315205
   0.55451887  0.51337937  0.51958894
Direct configuration=     5
   0.47177627  0.46486906  0.50502146
   0.47433234  0.50965264  0.46352159
   0.47666155  0.52177500  0.52181487
   0.48517094  0.49718209  0.49568164
   0.53550765  0.49181642  0.49314084
   0.55453827  0.51338088  0.51959769
Direct configuration=     6
   0.47177005  0.46486029  0.50501752
   0.47433345  0.50965759  0.46351626
   0.47664038  0.52178327  0.52182606
   0.48516308  0.49718611  0.49568793
   0.53551136  0.49180429  0.49312509
   0.55457303  0.51337890  0.51960892
Direct configuration=     7
   0.47176100  0.46484817  0.50501147
   0.47433489  0.50966448  0.46350901
   0.47660949  0.52179461  0.52184165
   0.48515182  0.49719194  0.49569680
   0.53552439  0.49179691  0.49311514
   0.55461608  0.51336611  0.51961305
Direct configuration=     8
   0.47175025  0.46483439  0.50500360
   0.47433690  0.50967263  0.46350112
   0.47657061  0.52180762  0.52185996
   0.48513872  0.49719933  0.49570761
   0.53554773  0.49179850  0.49311659
   0.55466131  0.51333955  0.51960489
Direct configuration=     9
   0.47173938  0.46482083  0.50499420
   0.47434041  0.50968159  0.46349423
   0.47652439  0.52182117  0.52187974
   0.48512602  0.49720822  0.49572010
   0.53557652  0.49180639  0.49312662
   0.55470789  0.51330199  0.51958663
Direct configuration=    10
   0.47173085  0.46481001  0.50498352
   0.47434746  0.50969116  0.46349066
   0.47646997  0.52183417  0.52189991
   0.48511684  0.49721899  0.49573461
   0.53559927  0.49181041  0.49313356
   0.55476043  0.51326214  0.51956800
Direct configuration=    11
   0.47172619  0.46480325  0.50497147
   0.47435970  0.50970151  0.46349174
   0.47640539  0.52184630  0.52192032
   0.48511233  0.49723204  0.49575184
   0.53560808  0.49180251  0.49312817
   0.55482463  0.51322624  0.51955663
Direct configuration=    12
   0.47172839  0.46480383  0.50495848
   0.47437898  0.50971189  0.46349997
   0.47633202  0.52185530  0.52193850
   0.48511372  0.49724709  0.49577128
   0.53560015  0.49178313  0.49311238
   0.55489529  0.51319460  0.51955018
Direct configuration=    13
   0.47172951  0.46480506  0.50495841
   0.47437995  0.50971176  0.46350105
   0.47633135  0.52185456  0.52193784
   0.48511428  0.49724724  0.49577142
   0.53559965  0.49178389  0.49311398
   0.55489377  0.51319335  0.51954811
Direct configuration=    14
   0.47173195  0.46480752  0.50495827
   0.47438218  0.50971154  0.46350326
   0.47632949  0.52185311  0.52193655
   0.48511539  0.49724763  0.49577186
   0.53559865  0.49178517  0.49311707
   0.55489083  0.51319090  0.51954383
Direct configuration=    15
   0.47173588  0.46481116  0.50495801
   0.47438598  0.50971127  0.46350663
   0.47632627  0.52185093  0.52193467
   0.48511714  0.49724834  0.49577272
   0.53559671  0.49178635  0.49312113
   0.55488647  0.51318783  0.51953774
Direct configuration=    16
   0.47174127  0.46481587  0.50495769
   0.47439134  0.50971100  0.46351104
   0.47632173  0.52184809  0.52193230
   0.48511955  0.49724938  0.49577402
   0.53559329  0.49178662  0.49312517
   0.55488122  0.51318492  0.51953077
Direct configuration=    17
   0.47174796  0.46482137  0.50495738
   0.47439815  0.50971083  0.46351628
   0.47631605  0.52184477  0.52192960
   0.48512257  0.49725072  0.49577574
   0.53558795  0.49178516  0.49312810
   0.55487568  0.51318304  0.51952401
Direct configuration=    18
   0.47175560  0.46482729  0.50495714
   0.47440612  0.50971082  0.46352201
   0.47630956  0.52184116  0.52192680
   0.48512614  0.49725228  0.49577779
   0.53558062  0.49178155  0.49312924
   0.55487024  0.51318278  0.51951829
Direct configuration=    19
   0.47176478  0.46483388  0.50495700
   0.47441596  0.50971111  0.46352850
   0.47630190  0.52183705  0.52192382
   0.48513055  0.49725414  0.49578033
   0.53557060  0.49177505  0.49312830
   0.55486442  0.51318464  0.51951352
Direct configuration=    20
   0.47177535  0.46484062  0.50495706
   0.47442776  0.50971196  0.46353537
   0.47629344  0.52183255  0.52192097
   0.48513571  0.49725617  0.49578323
   0.53555832  0.49176556  0.49312547
   0.55485755  0.51318898  0.51950961
Direct configuration=    21
   0.47178680  0.46484635  0.50495745
   0.47444150  0.50971385  0.46354163
   0.47628522  0.52182792  0.52191889
   0.48514110  0.49725803  0.49578624
   0.53554608  0.49175433  0.49312298
   0.55484730  0.51319533  0.51950486
Direct configuration=    22
   0.47178674  0.46484611  0.50495747
   0.47444157  0.50971397  0.46354144
   0.47628543  0.52182794  0.52191902
   0.48514101  0.49725795  0.49578621
   0.53554646  0.49175446  0.49312335
   0.55484678  0.51319535  0.51950456
Direct configuration=    23
   0.47178658  0.46484563  0.50495751
   0.47444167  0.50971422  0.46354106
   0.47628604  0.52182796  0.52191927
   0.48514085  0.49725776  0.49578610
   0.53554715  0.49175473  0.49312409
   0.55484569  0.51319551  0.51950404
Direct configuration=    24
   0.47178630  0.46484488  0.50495752
   0.47444178  0.50971459  0.46354047
   0.47628725  0.52182793  0.52191964
   0.48514065  0.49725737  0.49578584
   0.53554802  0.49175508  0.49312520
   0.55484399  0.51319593  0.51950342
Direct configuration=    25
   0.47178584  0.46484385  0.50495748
   0.47444186  0.50971509  0.46353966
   0.47628931  0.52182779  0.52192010
   0.48514039  0.49725674  0.49578536
   0.53554891  0.49175550  0.49312667
   0.55484167  0.51319682  0.51950284
Direct configuration=    26
   0.47178514  0.46484255  0.50495733
   0.47444183  0.50971570  0.46353864
   0.47629244  0.52182746  0.52192061
   0.48514007  0.49725577  0.49578457
   0.53554967  0.49175593  0.49312850
   0.55483882  0.51319839  0.51950249
Direct configuration=    27
   0.47178421  0.46484097  0.50495706
   0.47444173  0.50971641  0.46353743
   0.47629658  0.52182693  0.52192117
   0.48513968  0.49725450  0.49578351
   0.53555023  0.49175628  0.49313055
   0.55483553  0.51320070  0.51950245
Direct configuration=    28
   0.47178421  0.46484097  0.50495706
   0.47444173  0.50971641  0.46353743
   0.47629658  0.52182693  0.52192117
   0.48513968  0.49725450  0.49578351
   0.53555023  0.49175628  0.49313055
   0.55483553  0.51320070  0.51950245
