   6   6   0   0
  0.4500000E+04  0.3000000E-08  0.3000000E-08  0.3000000E-08  0.0000000E+00
  1.000000000000000E-004
  CAR 
 unknown system                          
      2.02493364    -25.89001134  301     -6.16308674      1.00000000
    -25.890  0.0000E+00  0.0000E+00
    -25.797  0.0000E+00  0.0000E+00
    -25.704  0.0000E+00  0.0000E+00
    -25.611  0.0000E+00  0.0000E+00
    -25.518  0.0000E+00  0.0000E+00
    -25.425  0.0000E+00  0.0000E+00
    -25.332  0.0000E+00  0.0000E+00
    -25.239  0.0000E+00  0.0000E+00
    -25.146  0.0000E+00  0.0000E+00
    -25.053  0.7954E-17  0.7401E-18
    -24.960  0.1408E-14  0.1317E-15
    -24.866  0.1790E-12  0.1679E-13
    -24.773  0.1485E-10  0.1398E-11
    -24.680  0.8048E-09  0.7629E-10
    -24.587  0.2854E-07  0.2732E-08
    -24.494  0.6624E-06  0.6437E-07
    -24.401  0.1008E-04  0.1002E-05
    -24.308  0.1006E-03  0.1036E-04
    -24.215  0.6594E-03  0.7172E-04
    -24.122  0.2841E-02  0.3361E-03
    -24.029  0.8054E-02  0.1086E-02
    -23.936  0.1503E-01  0.2484E-02
    -23.843  0.1847E-01  0.4203E-02
    -23.750  0.1495E-01  0.5594E-02
    -23.657  0.7972E-02  0.6336E-02
    -23.564  0.2798E-02  0.6596E-02
    -23.471  0.6460E-03  0.6657E-02
    -23.378  0.9804E-04  0.6666E-02
    -23.285  0.9772E-05  0.6667E-02
    -23.192  0.6390E-06  0.6667E-02
    -23.099  0.2738E-07  0.6667E-02
    -23.005  0.7683E-09  0.6667E-02
    -22.912  0.1410E-10  0.6667E-02
    -22.819  0.1691E-12  0.6667E-02
    -22.726  0.1328E-14  0.6667E-02
    -22.633  0.7954E-17  0.6667E-02
    -22.540  0.0000E+00  0.6667E-02
    -22.447  0.0000E+00  0.6667E-02
    -22.354  0.0000E+00  0.6667E-02
    -22.261  0.0000E+00  0.6667E-02
    -22.168  0.0000E+00  0.6667E-02
    -22.075  0.0000E+00  0.6667E-02
    -21.982  0.0000E+00  0.6667E-02
    -21.889  0.0000E+00  0.6667E-02
    -21.796  0.0000E+00  0.6667E-02
    -21.703  0.0000E+00  0.6667E-02
    -21.610  0.0000E+00  0.6667E-02
    -21.517  0.0000E+00  0.6667E-02
    -21.424  0.0000E+00  0.6667E-02
    -21.331  0.0000E+00  0.6667E-02
    -21.238  0.0000E+00  0.6667E-02
    -21.144  0.0000E+00  0.6667E-02
    -21.051  0.0000E+00  0.6667E-02
    -20.958  0.0000E+00  0.6667E-02
    -20.865  0.0000E+00  0.6667E-02
    -20.772  0.0000E+00  0.6667E-02
    -20.679  0.0000E+00  0.6667E-02
    -20.586  0.0000E+00  0.6667E-02
    -20.493  0.0000E+00  0.6667E-02
    -20.400  0.2506E-15  0.6667E-02
    -20.307  0.3682E-13  0.6667E-02
    -20.214  0.3524E-11  0.6667E-02
    -20.121  0.2204E-09  0.6667E-02
    -20.028  0.9012E-08  0.6667E-02
    -19.935  0.2412E-06  0.6667E-02
    -19.842  0.4229E-05  0.6667E-02
    -19.749  0.4864E-04  0.6672E-02
    -19.656  0.3672E-03  0.6706E-02
    -19.563  0.1822E-02  0.6875E-02
    -19.470  0.5945E-02  0.7428E-02
    -19.377  0.1277E-01  0.8616E-02
    -19.283  0.1806E-01  0.1030E-01
    -19.190  0.1682E-01  0.1186E-01
    -19.097  0.1032E-01  0.1282E-01
    -19.004  0.4169E-02  0.1321E-01
    -18.911  0.1108E-02  0.1331E-01
    -18.818  0.1937E-03  0.1333E-01
    -18.725  0.2224E-04  0.1333E-01
    -18.632  0.1676E-05  0.1333E-01
    -18.539  0.8280E-07  0.1333E-01
    -18.446  0.2679E-08  0.1333E-01
    -18.353  0.5671E-10  0.1333E-01
    -18.260  0.7848E-12  0.1333E-01
    -18.167  0.7087E-14  0.1333E-01
    -18.074  0.4773E-16  0.1333E-01
    -17.981  0.0000E+00  0.1333E-01
    -17.888  0.0000E+00  0.1333E-01
    -17.795  0.0000E+00  0.1333E-01
    -17.702  0.0000E+00  0.1333E-01
    -17.609  0.0000E+00  0.1333E-01
    -17.516  0.0000E+00  0.1333E-01
    -17.422  0.0000E+00  0.1333E-01
    -17.329  0.0000E+00  0.1333E-01
    -17.236  0.0000E+00  0.1333E-01
    -17.143  0.0000E+00  0.1333E-01
    -17.050  0.0000E+00  0.1333E-01
    -16.957  0.0000E+00  0.1333E-01
    -16.864  0.0000E+00  0.1333E-01
    -16.771  0.0000E+00  0.1333E-01
    -16.678  0.0000E+00  0.1333E-01
    -16.585  0.0000E+00  0.1333E-01
    -16.492  0.0000E+00  0.1333E-01
    -16.399  0.0000E+00  0.1333E-01
    -16.306  0.0000E+00  0.1333E-01
    -16.213  0.0000E+00  0.1333E-01
    -16.120  0.0000E+00  0.1333E-01
    -16.027  0.0000E+00  0.1333E-01
    -15.934  0.0000E+00  0.1333E-01
    -15.841  0.0000E+00  0.1333E-01
    -15.748  0.0000E+00  0.1333E-01
    -15.655  0.0000E+00  0.1333E-01
    -15.561  0.0000E+00  0.1333E-01
    -15.468  0.0000E+00  0.1333E-01
    -15.375  0.0000E+00  0.1333E-01
    -15.282  0.0000E+00  0.1333E-01
    -15.189  0.0000E+00  0.1333E-01
    -15.096  0.0000E+00  0.1333E-01
    -15.003  0.8352E-16  0.1333E-01
    -14.910  0.1305E-13  0.1333E-01
    -14.817  0.1370E-11  0.1333E-01
    -14.724  0.9386E-10  0.1333E-01
    -14.631  0.4205E-08  0.1333E-01
    -14.538  0.1233E-06  0.1333E-01
    -14.445  0.2367E-05  0.1333E-01
    -14.352  0.2980E-04  0.1334E-01
    -14.259  0.2463E-03  0.1336E-01
    -14.166  0.1337E-02  0.1348E-01
    -14.073  0.4775E-02  0.1393E-01
    -13.980  0.1122E-01  0.1497E-01
    -13.887  0.1736E-01  0.1659E-01
    -13.794  0.1769E-01  0.1823E-01
    -13.700  0.1187E-01  0.1934E-01
    -13.607  0.5248E-02  0.1983E-01
    -13.514  0.1527E-02  0.1997E-01
    -13.421  0.2920E-03  0.2000E-01
    -13.328  0.3670E-04  0.2000E-01
    -13.235  0.3028E-05  0.2000E-01
    -13.142  0.1638E-06  0.2000E-01
    -13.049  0.5807E-08  0.2000E-01
    -12.956  0.1347E-09  0.2000E-01
    -12.863  0.2046E-11  0.2000E-01
    -12.770  0.4774E-12  0.2000E-01
    -12.677  0.3708E-10  0.2000E-01
    -12.584  0.1965E-08  0.2000E-01
    -12.491  0.6812E-07  0.2000E-01
    -12.398  0.1546E-05  0.2000E-01
    -12.305  0.2301E-04  0.2000E-01
    -12.212  0.2246E-03  0.2002E-01
    -12.119  0.1440E-02  0.2016E-01
    -12.026  0.6067E-02  0.2072E-01
    -11.933  0.1682E-01  0.2229E-01
    -11.839  0.3071E-01  0.2514E-01
    -11.746  0.3692E-01  0.2858E-01
    -11.653  0.2923E-01  0.3130E-01
    -11.560  0.1524E-01  0.3272E-01
    -11.467  0.5233E-02  0.3321E-01
    -11.374  0.1182E-02  0.3332E-01
    -11.281  0.1754E-03  0.3333E-01
    -11.188  0.1710E-04  0.3333E-01
    -11.095  0.1094E-05  0.3333E-01
    -11.002  0.4584E-07  0.3333E-01
    -10.909  0.1258E-08  0.3333E-01
    -10.816  0.2257E-10  0.3333E-01
    -10.723  0.2647E-12  0.3333E-01
    -10.630  0.2036E-14  0.3333E-01
    -10.537  0.0000E+00  0.3333E-01
    -10.444  0.0000E+00  0.3333E-01
    -10.351  0.0000E+00  0.3333E-01
    -10.258  0.0000E+00  0.3333E-01
    -10.165  0.0000E+00  0.3333E-01
    -10.072  0.0000E+00  0.3333E-01
     -9.978  0.0000E+00  0.3333E-01
     -9.885  0.0000E+00  0.3333E-01
     -9.792  0.0000E+00  0.3333E-01
     -9.699  0.0000E+00  0.3333E-01
     -9.606  0.0000E+00  0.3333E-01
     -9.513  0.0000E+00  0.3333E-01
     -9.420  0.1949E-15  0.3333E-01
     -9.327  0.3098E-13  0.3333E-01
     -9.234  0.3201E-11  0.3333E-01
     -9.141  0.2161E-09  0.3333E-01
     -9.048  0.9539E-08  0.3333E-01
     -8.955  0.2755E-06  0.3333E-01
     -8.862  0.5213E-05  0.3333E-01
     -8.769  0.6466E-04  0.3334E-01
     -8.676  0.5266E-03  0.3339E-01
     -8.583  0.2817E-02  0.3365E-01
     -8.490  0.9912E-02  0.3457E-01
     -8.397  0.2295E-01  0.3671E-01
     -8.304  0.3499E-01  0.3996E-01
     -8.211  0.3514E-01  0.4323E-01
     -8.117  0.2324E-01  0.4540E-01
     -8.024  0.1012E-01  0.4634E-01
     -7.931  0.2901E-02  0.4661E-01
     -7.838  0.5469E-03  0.4666E-01
     -7.745  0.6844E-04  0.4667E-01
     -7.652  0.1623E-04  0.4667E-01
     -7.559  0.1062E-03  0.4668E-01
     -7.466  0.6872E-03  0.4674E-01
     -7.373  0.2930E-02  0.4701E-01
     -7.280  0.8221E-02  0.4778E-01
     -7.187  0.1518E-01  0.4919E-01
     -7.094  0.1847E-01  0.5091E-01
     -7.001  0.1480E-01  0.5229E-01
     -6.908  0.7807E-02  0.5301E-01
     -6.815  0.2711E-02  0.5327E-01
     -6.722  0.6195E-03  0.5332E-01
     -6.629  0.9305E-04  0.5333E-01
     -6.536  0.9178E-05  0.5333E-01
     -6.443  0.5939E-06  0.5333E-01
     -6.350  0.2519E-07  0.5333E-01
     -6.257  0.6992E-09  0.5333E-01
     -6.163  0.1270E-10  0.5333E-01
     -6.070  0.1507E-12  0.5333E-01
     -5.977  0.1177E-14  0.5333E-01
     -5.884  0.0000E+00  0.5333E-01
     -5.791  0.0000E+00  0.5333E-01
     -5.698  0.0000E+00  0.5333E-01
     -5.605  0.0000E+00  0.5333E-01
     -5.512  0.0000E+00  0.5333E-01
     -5.419  0.0000E+00  0.5333E-01
     -5.326  0.0000E+00  0.5333E-01
     -5.233  0.0000E+00  0.5333E-01
     -5.140  0.0000E+00  0.5333E-01
     -5.047  0.0000E+00  0.5333E-01
     -4.954  0.0000E+00  0.5333E-01
     -4.861  0.0000E+00  0.5333E-01
     -4.768  0.0000E+00  0.5333E-01
     -4.675  0.0000E+00  0.5333E-01
     -4.582  0.0000E+00  0.5333E-01
     -4.489  0.0000E+00  0.5333E-01
     -4.396  0.0000E+00  0.5333E-01
     -4.302  0.0000E+00  0.5333E-01
     -4.209  0.0000E+00  0.5333E-01
     -4.116  0.0000E+00  0.5333E-01
     -4.023  0.0000E+00  0.5333E-01
     -3.930  0.0000E+00  0.5333E-01
     -3.837  0.0000E+00  0.5333E-01
     -3.744  0.0000E+00  0.5333E-01
     -3.651  0.0000E+00  0.5333E-01
     -3.558  0.0000E+00  0.5333E-01
     -3.465  0.0000E+00  0.5333E-01
     -3.372  0.0000E+00  0.5333E-01
     -3.279  0.0000E+00  0.5333E-01
     -3.186  0.0000E+00  0.5333E-01
     -3.093  0.0000E+00  0.5333E-01
     -3.000  0.0000E+00  0.5333E-01
     -2.907  0.0000E+00  0.5333E-01
     -2.814  0.0000E+00  0.5333E-01
     -2.721  0.0000E+00  0.5333E-01
     -2.628  0.0000E+00  0.5333E-01
     -2.535  0.0000E+00  0.5333E-01
     -2.441  0.0000E+00  0.5333E-01
     -2.348  0.0000E+00  0.5333E-01
     -2.255  0.0000E+00  0.5333E-01
     -2.162  0.0000E+00  0.5333E-01
     -2.069  0.0000E+00  0.5333E-01
     -1.976  0.0000E+00  0.5333E-01
     -1.883  0.8352E-16  0.5333E-01
     -1.790  0.1341E-13  0.5333E-01
     -1.697  0.1412E-11  0.5333E-01
     -1.604  0.9731E-10  0.5333E-01
     -1.511  0.4403E-08  0.5333E-01
     -1.418  0.1312E-06  0.5333E-01
     -1.325  0.2587E-05  0.5333E-01
     -1.232  0.3393E-04  0.5334E-01
     -1.139  0.2982E-03  0.5336E-01
     -1.046  0.1772E-02  0.5353E-01
     -0.953  0.7188E-02  0.5420E-01
     -0.860  0.2006E-01  0.5606E-01
     -0.767  0.3874E-01  0.5967E-01
     -0.674  0.5178E-01  0.6449E-01
     -0.580  0.4769E-01  0.6893E-01
     -0.487  0.3006E-01  0.7172E-01
     -0.394  0.1293E-01  0.7293E-01
     -0.301  0.4333E-02  0.7333E-01
     -0.208  0.3508E-02  0.7366E-01
     -0.115  0.8068E-02  0.7441E-01
     -0.022  0.1497E-01  0.7580E-01
      0.071  0.1847E-01  0.7752E-01
      0.164  0.1502E-01  0.7892E-01
      0.257  0.8048E-02  0.7966E-01
      0.350  0.2838E-02  0.7993E-01
      0.443  0.6584E-03  0.7999E-01
      0.536  0.1004E-03  0.8000E-01
      0.629  0.1006E-04  0.8000E-01
      0.722  0.6607E-06  0.8000E-01
      0.815  0.2845E-07  0.8000E-01
      0.908  0.8021E-09  0.8000E-01
      1.001  0.1479E-10  0.8000E-01
      1.094  0.1783E-12  0.8000E-01
      1.187  0.1404E-14  0.8000E-01
      1.281  0.7954E-17  0.8000E-01
      1.374  0.0000E+00  0.8000E-01
      1.467  0.0000E+00  0.8000E-01
      1.560  0.0000E+00  0.8000E-01
      1.653  0.0000E+00  0.8000E-01
      1.746  0.0000E+00  0.8000E-01
      1.839  0.0000E+00  0.8000E-01
      1.932  0.0000E+00  0.8000E-01
      2.025  0.0000E+00  0.8000E-01
