    6    6  300    1
  0.4500000E+04  0.3000000E-08  0.3000000E-08  0.3000000E-08  0.0000000E+00
  1.000000000000000E-004
  CAR 
 unknown system                          
     16      4     12
 
  0.2500000E+00  0.2500000E+00  0.2500000E+00  0.2500000E+00
    1      -23.890011   1.000000
    2      -19.299280   1.000000
    3      -13.882379   1.000000
    4      -11.799089   1.000000
    5      -11.797812   1.000000
    6       -8.302813   1.000000
    7       -8.302503   1.000000
    8       -7.143354   1.000000
    9       -0.762719   0.000000
   10       -0.663036   0.000000
   11       -0.661712   0.000000
   12        0.024934   0.000000
 
 -0.2500000E+00  0.2500000E+00  0.2500000E+00  0.2500000E+00
    1      -23.890011   1.000000
    2      -19.299282   1.000000
    3      -13.882377   1.000000
    4      -11.799093   1.000000
    5      -11.797812   1.000000
    6       -8.302809   1.000000
    7       -8.302500   1.000000
    8       -7.143361   1.000000
    9       -0.762718   0.000000
   10       -0.663034   0.000000
   11       -0.661712   0.000000
   12        0.024733   0.000000
 
  0.2500000E+00 -0.2500000E+00  0.2500000E+00  0.2500000E+00
    1      -23.890011   1.000000
    2      -19.299280   1.000000
    3      -13.882381   1.000000
    4      -11.799094   1.000000
    5      -11.797811   1.000000
    6       -8.302824   1.000000
    7       -8.302516   1.000000
    8       -7.143355   1.000000
    9       -0.762718   0.000000
   10       -0.663025   0.000000
   11       -0.661711   0.000000
   12        0.024885   0.000000
 
 -0.2500000E+00 -0.2500000E+00  0.2500000E+00  0.2500000E+00
    1      -23.890011   1.000000
    2      -19.299278   1.000000
    3      -13.882380   1.000000
    4      -11.799094   1.000000
    5      -11.797811   1.000000
    6       -8.302817   1.000000
    7       -8.302515   1.000000
    8       -7.143356   1.000000
    9       -0.762718   0.000000
   10       -0.663029   0.000000
   11       -0.661712   0.000000
   12        0.024853   0.000000
