       N       E                     dE             d eps       ncg     rms          rms(c)
DAV:   1     0.113496177488E+03    0.11350E+03   -0.21407E+03   160   0.366E+02
DAV:   2    -0.235519538264E+01   -0.11585E+03   -0.11359E+03   192   0.109E+02
DAV:   3    -0.348404113723E+02   -0.32485E+02   -0.32401E+02   144   0.867E+01
DAV:   4    -0.389525088868E+02   -0.41121E+01   -0.40671E+01   128   0.287E+01
DAV:   5    -0.390881354408E+02   -0.13563E+00   -0.13384E+00   112   0.559E+00    0.104E+01
DAV:   6    -0.364031603860E+02    0.26850E+01   -0.44141E+00   112   0.147E+01    0.562E+00
DAV:   7    -0.357026861207E+02    0.70047E+00   -0.18328E+00   124   0.929E+00    0.224E+00
DAV:   8    -0.356330191133E+02    0.69667E-01   -0.14076E-01   128   0.287E+00    0.886E-01
DAV:   9    -0.356143975762E+02    0.18622E-01   -0.22320E-02   128   0.125E+00    0.217E-01
DAV:  10    -0.356141467934E+02    0.25078E-03   -0.42733E-03   128   0.505E-01    0.131E-01
DAV:  11    -0.356157688525E+02   -0.16221E-02   -0.16253E-03   128   0.330E-01    0.815E-02
DAV:  12    -0.356214510415E+02   -0.56822E-02   -0.31664E-03   120   0.431E-01    0.462E-02
DAV:  13    -0.356275351581E+02   -0.60841E-02   -0.16562E-03   128   0.252E-01    0.290E-02
DAV:  14    -0.356313132346E+02   -0.37781E-02   -0.45634E-04   128   0.116E-01    0.189E-02
DAV:  15    -0.356346559379E+02   -0.33427E-02   -0.35533E-04   128   0.889E-02    0.125E-02
DAV:  16    -0.356359226486E+02   -0.12667E-02   -0.11752E-04   128   0.552E-02    0.684E-03
DAV:  17    -0.356366748714E+02   -0.75222E-03   -0.23148E-05    84   0.360E-02    0.407E-03
DAV:  18    -0.356371319828E+02   -0.45711E-03   -0.31193E-05    76   0.258E-02    0.270E-03
DAV:  19    -0.356373550071E+02   -0.22302E-03   -0.10507E-05    76   0.208E-02    0.230E-03
DAV:  20    -0.356374118682E+02   -0.56861E-04   -0.30412E-06    80   0.118E-02
   1 F= -.35637412E+02 E0= -.35637412E+02  d E =-.356374E+02
       N       E                     dE             d eps       ncg     rms          rms(c)
DAV:   1    -0.356376050972E+02   -0.25009E-03   -0.30748E-02   112   0.166E+00    0.580E-02
DAV:   2    -0.356375988025E+02    0.62947E-05   -0.62737E-04   128   0.215E-01    0.333E-02
DAV:   3    -0.356375902487E+02    0.85538E-05   -0.55134E-05    76   0.780E-02    0.172E-02
DAV:   4    -0.356376023285E+02   -0.12080E-04   -0.45509E-05    80   0.656E-02    0.585E-03
DAV:   5    -0.356376062971E+02   -0.39685E-05   -0.85563E-06    80   0.308E-02    0.289E-03
DAV:   6    -0.356376095761E+02   -0.32791E-05   -0.18104E-06    80   0.122E-02
   2 F= -.35637610E+02 E0= -.35637610E+02  d E =-.197708E-03
       N       E                     dE             d eps       ncg     rms          rms(c)
DAV:   1    -0.356380374445E+02   -0.43115E-03   -0.66688E-02    96   0.235E+00    0.556E-02
DAV:   2    -0.356380705878E+02   -0.33143E-04   -0.84834E-04   128   0.243E-01    0.366E-02
DAV:   3    -0.356380653341E+02    0.52537E-05   -0.42144E-05    96   0.699E-02    0.162E-02
DAV:   4    -0.356380731281E+02   -0.77940E-05   -0.25444E-05    64   0.471E-02    0.510E-03
DAV:   5    -0.356380748839E+02   -0.17558E-05   -0.54247E-06    64   0.229E-02    0.230E-03
DAV:   6    -0.356380762979E+02   -0.14140E-05   -0.12795E-06    64   0.994E-03
   3 F= -.35638076E+02 E0= -.35638076E+02  d E =-.466722E-03
       N       E                     dE             d eps       ncg     rms          rms(c)
DAV:   1    -0.356383857389E+02   -0.31086E-03   -0.12953E-01    96   0.327E+00    0.739E-02
DAV:   2    -0.356384554771E+02   -0.69738E-04   -0.15920E-03   128   0.331E-01    0.490E-02
DAV:   3    -0.356384473722E+02    0.81049E-05   -0.70307E-05    76   0.902E-02    0.204E-02
DAV:   4    -0.356384578438E+02   -0.10472E-04   -0.40096E-05    72   0.578E-02    0.650E-03
DAV:   5    -0.356384597200E+02   -0.18762E-05   -0.87761E-06    64   0.284E-02    0.282E-03
DAV:   6    -0.356384612578E+02   -0.15377E-05   -0.18874E-06    68   0.118E-02
   4 F= -.35638461E+02 E0= -.35638461E+02  d E =-.384960E-03
       N       E                     dE             d eps       ncg     rms          rms(c)
DAV:   1    -0.356389615274E+02   -0.50181E-03   -0.19221E-01    96   0.403E+00    0.952E-02
DAV:   2    -0.356390396780E+02   -0.78151E-04   -0.25640E-03   112   0.424E-01    0.629E-02
DAV:   3    -0.356390110857E+02    0.28592E-04   -0.14120E-04    96   0.127E-01    0.306E-02
DAV:   4    -0.356390277328E+02   -0.16647E-04   -0.98606E-05    64   0.957E-02    0.941E-03
DAV:   5    -0.356390294210E+02   -0.16882E-05   -0.20788E-05    96   0.457E-02    0.470E-03
DAV:   6    -0.356390315792E+02   -0.21582E-05   -0.48576E-06    64   0.197E-02
   5 F= -.35639032E+02 E0= -.35639032E+02  d E =-.570321E-03
       N       E                     dE             d eps       ncg     rms          rms(c)
DAV:   1    -0.356396528846E+02   -0.62346E-03   -0.21280E-01    96   0.422E+00    0.916E-02
DAV:   2    -0.356397783499E+02   -0.12547E-03   -0.26430E-03   112   0.425E-01    0.620E-02
DAV:   3    -0.356397599873E+02    0.18363E-04   -0.11676E-04    96   0.115E-01    0.278E-02
DAV:   4    -0.356397761878E+02   -0.16200E-04   -0.68806E-05    64   0.775E-02    0.817E-03
DAV:   5    -0.356397794471E+02   -0.32593E-05   -0.15420E-05    96   0.376E-02    0.385E-03
DAV:   6    -0.356397821251E+02   -0.26780E-05   -0.33059E-06    64   0.158E-02
   6 F= -.35639782E+02 E0= -.35639782E+02  d E =-.750546E-03
       N       E                     dE             d eps       ncg     rms          rms(c)
DAV:   1    -0.356403918918E+02   -0.61244E-03   -0.20447E-01    96   0.414E+00    0.805E-02
DAV:   2    -0.356405421209E+02   -0.15023E-03   -0.24230E-03   128   0.402E-01    0.555E-02
DAV:   3    -0.356405326697E+02    0.94511E-05   -0.76781E-05    80   0.937E-02    0.244E-02
DAV:   4    -0.356405452960E+02   -0.12626E-04   -0.53375E-05    80   0.667E-02    0.685E-03
DAV:   5    -0.356405479069E+02   -0.26109E-05   -0.12595E-05    64   0.339E-02    0.313E-03
DAV:   6    -0.356405498985E+02   -0.19916E-05   -0.22339E-06    48   0.125E-02
   7 F= -.35640550E+02 E0= -.35640550E+02  d E =-.767773E-03
       N       E                     dE             d eps       ncg     rms          rms(c)
DAV:   1    -0.356412027491E+02   -0.65484E-03   -0.22619E-01    96   0.439E+00    0.790E-02
DAV:   2    -0.356413892056E+02   -0.18646E-03   -0.26273E-03   128   0.409E-01    0.565E-02
DAV:   3    -0.356413842027E+02    0.50029E-05   -0.62449E-05    72   0.814E-02    0.255E-02
DAV:   4    -0.356413970419E+02   -0.12839E-04   -0.38879E-05    80   0.562E-02    0.511E-03
DAV:   5    -0.356413997366E+02   -0.26947E-05   -0.90718E-06    48   0.254E-02    0.292E-03
DAV:   6    -0.356414020158E+02   -0.22791E-05   -0.17631E-06    64   0.104E-02
   8 F= -.35641402E+02 E0= -.35641402E+02  d E =-.852117E-03
       N       E                     dE             d eps       ncg     rms          rms(c)
DAV:   1    -0.356420437514E+02   -0.64401E-03   -0.27580E-01    96   0.491E+00    0.882E-02
DAV:   2    -0.356422483930E+02   -0.20464E-03   -0.30331E-03   128   0.424E-01    0.637E-02
DAV:   3    -0.356422456230E+02    0.27700E-05   -0.73736E-05    88   0.866E-02    0.262E-02
DAV:   4    -0.356422614827E+02   -0.15860E-04   -0.37391E-05    80   0.536E-02    0.499E-03
DAV:   5    -0.356422637046E+02   -0.22219E-05   -0.87551E-06    48   0.246E-02    0.306E-03
DAV:   6    -0.356422658493E+02   -0.21447E-05   -0.20651E-06    64   0.114E-02
   9 F= -.35642266E+02 E0= -.35642266E+02  d E =-.863834E-03
       N       E                     dE             d eps       ncg     rms          rms(c)
DAV:   1    -0.356426182802E+02   -0.35458E-03   -0.42354E-01    96   0.616E+00    0.120E-01
DAV:   2    -0.356428802313E+02   -0.26195E-03   -0.46503E-03   128   0.530E-01    0.860E-02
DAV:   3    -0.356428751808E+02    0.50505E-05   -0.13273E-04    64   0.116E-01    0.309E-02
DAV:   4    -0.356429021825E+02   -0.27002E-04   -0.60834E-05    96   0.671E-02    0.745E-03
DAV:   5    -0.356429060436E+02   -0.38611E-05   -0.13892E-05    96   0.322E-02    0.242E-03
DAV:   6    -0.356429080417E+02   -0.19981E-05   -0.28629E-06    56   0.127E-02
  10 F= -.35642908E+02 E0= -.35642908E+02  d E =-.642192E-03
       N       E                     dE             d eps       ncg     rms          rms(c)
DAV:   1    -0.356420590998E+02    0.84694E-03   -0.81677E-01    96   0.858E+00    0.191E-01
DAV:   2    -0.356424415103E+02   -0.38241E-03   -0.10101E-02   128   0.812E-01    0.133E-01
DAV:   3    -0.356424089688E+02    0.32542E-04   -0.56078E-04   128   0.228E-01    0.533E-02
DAV:   4    -0.356424785520E+02   -0.69583E-04   -0.95222E-05    68   0.935E-02    0.150E-02
DAV:   5    -0.356424863893E+02   -0.78374E-05   -0.21976E-05    96   0.436E-02    0.612E-03
DAV:   6    -0.356424926128E+02   -0.62235E-05   -0.60169E-06    64   0.210E-02
  11 F= -.35642493E+02 E0= -.35642493E+02  d E =0.415429E-03
       N       E                     dE             d eps       ncg     rms          rms(c)
DAV:   1    -0.356301996337E+02    0.12287E-01   -0.20606E+00    96   0.139E+01    0.431E-01
DAV:   2    -0.356305607318E+02   -0.36110E-03   -0.40730E-02   128   0.169E+00    0.274E-01
DAV:   3    -0.356295664567E+02    0.99428E-03   -0.33566E-03   128   0.572E-01    0.146E-01
DAV:   4    -0.356296983780E+02   -0.13192E-03   -0.16920E-03   128   0.395E-01    0.428E-02
DAV:   5    -0.356296898298E+02    0.85481E-05   -0.29554E-04   112   0.166E-01    0.216E-02
DAV:   6    -0.356297048841E+02   -0.15054E-04   -0.25869E-05    96   0.487E-02
  12 F= -.35629705E+02 E0= -.35629705E+02  d E =0.127877E-01
       N       E                     dE             d eps       ncg     rms          rms(c)
DAV:   1    -0.356423816078E+02   -0.12692E-01   -0.11396E+00    96   0.102E+01    0.549E-01
DAV:   2    -0.356396029773E+02    0.27786E-02   -0.29792E-02   128   0.158E+00    0.251E-01
DAV:   3    -0.356384874937E+02    0.11155E-02   -0.50644E-03   128   0.680E-01    0.118E-01
DAV:   4    -0.356384496009E+02    0.37893E-04   -0.11944E-03   112   0.344E-01    0.381E-02
DAV:   5    -0.356384474948E+02    0.21060E-05   -0.85588E-05    96   0.986E-02    0.163E-02
DAV:   6    -0.356384545620E+02   -0.70672E-05   -0.25531E-05    64   0.458E-02
  13 F= -.35638455E+02 E0= -.35638455E+02  d E =-.874968E-02
       N       E                     dE             d eps       ncg     rms          rms(c)
DAV:   1    -0.356405623845E+02   -0.21149E-02   -0.18459E-02    96   0.129E+00    0.704E-02
DAV:   2    -0.356405347805E+02    0.27604E-04   -0.50077E-04   128   0.205E-01    0.317E-02
DAV:   3    -0.356405227537E+02    0.12027E-04   -0.64240E-05    96   0.839E-02    0.157E-02
DAV:   4    -0.356405324228E+02   -0.96691E-05   -0.49515E-05    64   0.687E-02    0.543E-03
DAV:   5    -0.356405375209E+02   -0.50981E-05   -0.85824E-06    96   0.288E-02    0.281E-03
DAV:   6    -0.356405421370E+02   -0.46161E-05   -0.16146E-06    64   0.131E-02
  14 F= -.35640542E+02 E0= -.35640542E+02  d E =-.208757E-02
       N       E                     dE             d eps       ncg     rms          rms(c)
DAV:   1    -0.356421222221E+02   -0.15847E-02   -0.50110E-02    96   0.213E+00    0.118E-01
DAV:   2    -0.356420126367E+02    0.10959E-03   -0.13493E-03   128   0.337E-01    0.521E-02
DAV:   3    -0.356419668672E+02    0.45770E-04   -0.22236E-04   128   0.143E-01    0.245E-02
DAV:   4    -0.356419657660E+02    0.11012E-05   -0.46429E-05    64   0.731E-02    0.793E-03
DAV:   5    -0.356419671346E+02   -0.13686E-05   -0.78915E-06    80   0.280E-02    0.286E-03
DAV:   6    -0.356419675986E+02   -0.46407E-06   -0.14987E-06    96   0.119E-02
  15 F= -.35641968E+02 E0= -.35641968E+02  d E =-.142546E-02
       N       E                     dE             d eps       ncg     rms          rms(c)
DAV:   1    -0.356411561793E+02    0.81096E-03   -0.48839E-02    96   0.210E+00    0.115E-01
DAV:   2    -0.356410394421E+02    0.11674E-03   -0.13288E-03   128   0.335E-01    0.512E-02
DAV:   3    -0.356409874546E+02    0.51987E-04   -0.18582E-04    96   0.142E-01    0.246E-02
DAV:   4    -0.356409854417E+02    0.20129E-05   -0.13146E-04    88   0.113E-01    0.885E-03
DAV:   5    -0.356409856877E+02   -0.24593E-06   -0.23395E-05    64   0.471E-02    0.472E-03
DAV:   6    -0.356409863476E+02   -0.65996E-06   -0.43578E-06    64   0.204E-02
  16 F= -.35640986E+02 E0= -.35640986E+02  d E =0.981251E-03
       N       E                     dE             d eps       ncg     rms          rms(c)
DAV:   1    -0.356411775320E+02   -0.19184E-03   -0.36716E-04   100   0.182E-01    0.988E-03
DAV:   2    -0.356411783031E+02   -0.77107E-06   -0.82200E-06    52   0.287E-02    0.455E-03
DAV:   3    -0.356411798587E+02   -0.15557E-05   -0.25844E-06    72   0.159E-02    0.196E-03
DAV:   4    -0.356411821499E+02   -0.22912E-05   -0.11184E-06    64   0.986E-03    0.707E-04
DAV:   5    -0.356411838400E+02   -0.16901E-05   -0.24279E-07    52   0.456E-03    0.330E-04
DAV:   6    -0.356411851457E+02   -0.13057E-05   -0.85290E-08    60   0.235E-03
  17 F= -.35641185E+02 E0= -.35641185E+02  d E =-.198798E-03
       N       E                     dE             d eps       ncg     rms          rms(c)
DAV:   1    -0.356414967947E+02   -0.31295E-03   -0.13352E-03    96   0.347E-01    0.189E-02
DAV:   2    -0.356414938198E+02    0.29749E-05   -0.30183E-05    96   0.544E-02    0.866E-03
DAV:   3    -0.356414934572E+02    0.36256E-06   -0.90471E-06    64   0.301E-02    0.378E-03
DAV:   4    -0.356414944548E+02   -0.99752E-06   -0.39384E-06    64   0.188E-02    0.132E-03
DAV:   5    -0.356414952188E+02   -0.76407E-06   -0.76782E-07    64   0.833E-03    0.616E-04
DAV:   6    -0.356414956305E+02   -0.41170E-06   -0.14043E-07    48   0.369E-03
  18 F= -.35641496E+02 E0= -.35641496E+02  d E =-.310485E-03
       N       E                     dE             d eps       ncg     rms          rms(c)
DAV:   1    -0.356418177383E+02   -0.32252E-03   -0.25396E-03    96   0.479E-01    0.260E-02
DAV:   2    -0.356418102572E+02    0.74811E-05   -0.57594E-05    64   0.751E-02    0.119E-02
DAV:   3    -0.356418081953E+02    0.20619E-05   -0.17123E-05    96   0.414E-02    0.524E-03
DAV:   4    -0.356418084387E+02   -0.24340E-06   -0.75490E-06    64   0.260E-02    0.182E-03
DAV:   5    -0.356418085703E+02   -0.13169E-06   -0.14572E-06    96   0.115E-02    0.862E-04
DAV:   6    -0.356418086258E+02   -0.55475E-07   -0.26294E-07    64   0.500E-03
  19 F= -.35641809E+02 E0= -.35641809E+02  d E =-.312995E-03
       N       E                     dE             d eps       ncg     rms          rms(c)
DAV:   1    -0.356420288560E+02   -0.22029E-03   -0.35337E-03    96   0.565E-01    0.305E-02
DAV:   2    -0.356420180759E+02    0.10780E-04   -0.80551E-05    96   0.885E-02    0.140E-02
DAV:   3    -0.356420149034E+02    0.31725E-05   -0.23560E-05    88   0.485E-02    0.617E-03
DAV:   4    -0.356420149595E+02   -0.56095E-07   -0.10574E-05    72   0.308E-02    0.214E-03
DAV:   5    -0.356420150553E+02   -0.95763E-07   -0.20093E-06    52   0.135E-02    0.103E-03
DAV:   6    -0.356420151969E+02   -0.14163E-06   -0.35840E-07    60   0.593E-03
  20 F= -.35642015E+02 E0= -.35642015E+02  d E =-.206571E-03
       N       E                     dE             d eps       ncg     rms          rms(c)
DAV:   1    -0.356420624185E+02   -0.47363E-04   -0.38995E-03    96   0.593E-01    0.317E-02
DAV:   2    -0.356420508288E+02    0.11590E-04   -0.89961E-05    64   0.930E-02    0.147E-02
DAV:   3    -0.356420474617E+02    0.33671E-05   -0.25735E-05    96   0.505E-02    0.644E-03
DAV:   4    -0.356420476560E+02   -0.19433E-06   -0.11755E-05    48   0.324E-02    0.224E-03
DAV:   5    -0.356420478759E+02   -0.21983E-06   -0.21959E-06    48   0.143E-02    0.109E-03
DAV:   6    -0.356420481341E+02   -0.25821E-06   -0.40655E-07    48   0.629E-03
  21 F= -.35642048E+02 E0= -.35642048E+02  d E =-.329371E-04
       N       E                     dE             d eps       ncg     rms          rms(c)
DAV:   1    -0.356420495175E+02   -0.16416E-05   -0.40175E-07    52   0.618E-03    0.418E-04
DAV:   2    -0.356420497616E+02   -0.24413E-06   -0.79030E-08    48   0.207E-03    0.323E-04
DAV:   3    -0.356420502161E+02   -0.45451E-06   -0.53726E-08    76   0.108E-03    0.132E-04
DAV:   4    -0.356420506163E+02   -0.40020E-06   -0.44631E-08    60   0.695E-04    0.695E-05
DAV:   5    -0.356420511865E+02   -0.57018E-06   -0.52225E-08    96   0.665E-04    0.637E-05
DAV:   6    -0.356420515033E+02   -0.31675E-06   -0.43737E-08    64   0.500E-04
  22 F= -.35642052E+02 E0= -.35642052E+02  d E =-.336917E-05
       N       E                     dE             d eps       ncg     rms          rms(c)
DAV:   1    -0.356420538681E+02   -0.26816E-05   -0.13736E-06    96   0.113E-02    0.458E-04
DAV:   2    -0.356420539380E+02   -0.69886E-07   -0.12042E-07    64   0.288E-03    0.259E-04
DAV:   3    -0.356420539930E+02   -0.55096E-07   -0.44155E-08    48   0.952E-04    0.170E-04
DAV:   4    -0.356420540978E+02   -0.10480E-06   -0.41642E-08    64   0.905E-04    0.537E-05
DAV:   5    -0.356420541237E+02   -0.25903E-07   -0.35755E-08    48   0.440E-04    0.475E-05
DAV:   6    -0.356420541564E+02   -0.32626E-07   -0.33734E-08    48   0.193E-04
  23 F= -.35642054E+02 E0= -.35642054E+02  d E =-.265312E-05
       N       E                     dE             d eps       ncg     rms          rms(c)
DAV:   1    -0.356420570433E+02   -0.29195E-05   -0.29053E-06    96   0.166E-02    0.696E-04
DAV:   2    -0.356420570718E+02   -0.28513E-07   -0.20769E-07    48   0.419E-03    0.386E-04
DAV:   3    -0.356420570864E+02   -0.14624E-07   -0.49653E-08    48   0.136E-03    0.250E-04
DAV:   4    -0.356420571131E+02   -0.26683E-07   -0.43788E-08    48   0.129E-03    0.824E-05
DAV:   5    -0.356420571194E+02   -0.63260E-08   -0.32580E-08    48   0.620E-04    0.704E-05
DAV:   6    -0.356420571266E+02   -0.71414E-08   -0.29246E-08    48   0.268E-04
  24 F= -.35642057E+02 E0= -.35642057E+02  d E =-.297018E-05
       N       E                     dE             d eps       ncg     rms          rms(c)
DAV:   1    -0.356420605044E+02   -0.33850E-05   -0.48943E-06    48   0.216E-02    0.901E-04
DAV:   2    -0.356420605253E+02   -0.20906E-07   -0.32781E-07    48   0.546E-03    0.502E-04
DAV:   3    -0.356420605261E+02   -0.79785E-09   -0.59958E-08    48   0.178E-03    0.326E-04
DAV:   4    -0.356420605303E+02   -0.41791E-08   -0.51611E-08    48   0.168E-03    0.107E-04
DAV:   5    -0.356420605318E+02   -0.14702E-08   -0.33268E-08    48   0.807E-04    0.920E-05
DAV:   6    -0.356420605335E+02   -0.17483E-08   -0.28021E-08    48   0.351E-04
  25 F= -.35642061E+02 E0= -.35642061E+02  d E =-.340695E-05
       N       E                     dE             d eps       ncg     rms          rms(c)
DAV:   1    -0.356420641585E+02   -0.36267E-05   -0.71418E-06    48   0.261E-02    0.108E-03
DAV:   2    -0.356420641828E+02   -0.24392E-07   -0.46593E-07    48   0.660E-03    0.607E-04
DAV:   3    -0.356420641798E+02    0.30509E-08   -0.74635E-08    48   0.216E-03    0.395E-04
DAV:   4    -0.356420641783E+02    0.15093E-08   -0.61915E-08    48   0.202E-03    0.129E-04
DAV:   5    -0.356420641789E+02   -0.63028E-09   -0.35555E-08    48   0.972E-04    0.112E-04
DAV:   6    -0.356420641803E+02   -0.13763E-08   -0.28097E-08    48   0.429E-04
  26 F= -.35642064E+02 E0= -.35642064E+02  d E =-.364679E-05
       N       E                     dE             d eps       ncg     rms          rms(c)
DAV:   1    -0.356420678175E+02   -0.36385E-05   -0.94203E-06    48   0.300E-02    0.121E-03
DAV:   2    -0.356420678482E+02   -0.30700E-07   -0.60473E-07    48   0.758E-03    0.694E-04
DAV:   3    -0.356420678435E+02    0.46671E-08   -0.89815E-08    48   0.248E-03    0.453E-04
DAV:   4    -0.356420678414E+02    0.21244E-08   -0.71986E-08    48   0.230E-03    0.146E-04
DAV:   5    -0.356420678423E+02   -0.96270E-09   -0.37917E-08    48   0.110E-03    0.128E-04
DAV:   6    -0.356420678443E+02   -0.19331E-08   -0.28351E-08    48   0.497E-04
  27 F= -.35642068E+02 E0= -.35642068E+02  d E =-.366398E-05
       N       E                     dE             d eps       ncg     rms          rms(c)
DAV:   1    -0.356420718866E+02   -0.40443E-05   -0.14142E-05    48   0.368E-02    0.146E-03
DAV:   2    -0.356420719304E+02   -0.43750E-07   -0.89114E-07    48   0.928E-03    0.844E-04
DAV:   3    -0.356420719233E+02    0.71011E-08   -0.12122E-07    48   0.304E-03    0.554E-04
DAV:   4    -0.356420719196E+02    0.36978E-08   -0.93919E-08    48   0.279E-03    0.178E-04
DAV:   5    -0.356420719211E+02   -0.15414E-08   -0.43605E-08    48   0.134E-03    0.157E-04
DAV:   6    -0.356420719240E+02   -0.28922E-08   -0.29448E-08    48   0.611E-04
  28 F= -.35642072E+02 E0= -.35642072E+02  d E =-.407974E-05
       N       E                     dE             d eps       ncg     rms          rms(c)
DAV:   1    -0.356420765381E+02   -0.46169E-05   -0.19541E-05    48   0.434E-02    0.169E-03
DAV:   2    -0.356420765961E+02   -0.58039E-07   -0.12149E-06    48   0.109E-02    0.983E-04
DAV:   3    -0.356420765857E+02    0.10415E-07   -0.15598E-07    48   0.356E-03    0.646E-04
DAV:   4    -0.356420765810E+02    0.46650E-08   -0.11985E-07    48   0.327E-03    0.210E-04
DAV:   5    -0.356420765832E+02   -0.22026E-08   -0.50148E-08    48   0.157E-03    0.186E-04
DAV:   6    -0.356420765868E+02   -0.36066E-08   -0.30814E-08    48   0.719E-04
  29 F= -.35642077E+02 E0= -.35642077E+02  d E =-.466282E-05
       N       E                     dE             d eps       ncg     rms          rms(c)
DAV:   1    -0.356420820543E+02   -0.54711E-05   -0.24168E-05    48   0.486E-02    0.181E-03
DAV:   2    -0.356420821239E+02   -0.69554E-07   -0.14741E-06    48   0.122E-02    0.107E-03
DAV:   3    -0.356420821119E+02    0.11951E-07   -0.18111E-07    48   0.392E-03    0.707E-04
DAV:   4    -0.356420821069E+02    0.50318E-08   -0.14061E-07    48   0.360E-03    0.232E-04
DAV:   5    -0.356420821101E+02   -0.32253E-08   -0.55267E-08    48   0.174E-03    0.207E-04
DAV:   6    -0.356420821149E+02   -0.47933E-08   -0.31972E-08    48   0.788E-04
  30 F= -.35642082E+02 E0= -.35642082E+02  d E =-.552809E-05
       N       E                     dE             d eps       ncg     rms          rms(c)
DAV:   1    -0.356420889552E+02   -0.68450E-05   -0.28129E-05    48   0.529E-02    0.179E-03
DAV:   2    -0.356420890359E+02   -0.80758E-07   -0.16370E-06    48   0.130E-02    0.109E-03
DAV:   3    -0.356420890253E+02    0.10600E-07   -0.19213E-07    48   0.411E-03    0.726E-04
DAV:   4    -0.356420890230E+02    0.23514E-08   -0.14766E-07    48   0.368E-03    0.238E-04
DAV:   5    -0.356420890270E+02   -0.40304E-08   -0.56832E-08    48   0.177E-03    0.216E-04
DAV:   6    -0.356420890328E+02   -0.58208E-08   -0.32316E-08    48   0.791E-04
  31 F= -.35642089E+02 E0= -.35642089E+02  d E =-.691790E-05
       N       E                     dE             d eps       ncg     rms          rms(c)
DAV:   1    -0.356420983351E+02   -0.93081E-05   -0.36148E-05    48   0.601E-02    0.171E-03
DAV:   2    -0.356420984402E+02   -0.10517E-06   -0.18794E-06    48   0.143E-02    0.108E-03
DAV:   3    -0.356420984369E+02    0.33301E-08   -0.21329E-07    48   0.440E-03    0.708E-04
DAV:   4    -0.356420984407E+02   -0.37414E-08   -0.13846E-07    48   0.344E-03    0.222E-04
DAV:   5    -0.356420984464E+02   -0.56991E-08   -0.55017E-08    48   0.165E-03    0.215E-04
DAV:   6    -0.356420984531E+02   -0.67953E-08   -0.31951E-08    48   0.737E-04
  32 F= -.35642098E+02 E0= -.35642098E+02  d E =-.942033E-05
       N       E                     dE             d eps       ncg     rms          rms(c)
DAV:   1    -0.356421121129E+02   -0.13667E-04   -0.62557E-05    48   0.778E-02    0.187E-03
DAV:   2    -0.356421123023E+02   -0.18935E-06   -0.28116E-06    48   0.179E-02    0.117E-03
DAV:   3    -0.356421123202E+02   -0.17905E-07   -0.32281E-07    48   0.541E-03    0.663E-04
DAV:   4    -0.356421123346E+02   -0.14441E-07   -0.13568E-07    48   0.311E-03    0.212E-04
DAV:   5    -0.356421123427E+02   -0.80784E-08   -0.55952E-08    48   0.148E-03    0.199E-04
DAV:   6    -0.356421123539E+02   -0.11245E-07   -0.35218E-08    48   0.823E-04
  33 F= -.35642112E+02 E0= -.35642112E+02  d E =-.139008E-04
       N       E                     dE             d eps       ncg     rms          rms(c)
DAV:   1    -0.356421335936E+02   -0.21251E-04   -0.15184E-04    96   0.117E-01    0.275E-03
DAV:   2    -0.356421335661E+02    0.27460E-07   -0.15666E-06    48   0.110E-02    0.174E-03
DAV:   3    -0.356421335992E+02   -0.33090E-07   -0.35528E-07    48   0.508E-03    0.495E-04
DAV:   4    -0.356421336146E+02   -0.15461E-07   -0.97805E-08    48   0.232E-03    0.292E-04
DAV:   5    -0.356421336238E+02   -0.91745E-08   -0.43985E-08    48   0.112E-03    0.833E-05
DAV:   6    -0.356421336317E+02   -0.78617E-08   -0.33985E-08    48   0.618E-04
  34 F= -.35642134E+02 E0= -.35642134E+02  d E =-.212777E-04
       N       E                     dE             d eps       ncg     rms          rms(c)
DAV:   1    -0.356421657065E+02   -0.32083E-04   -0.39976E-04    96   0.189E-01    0.439E-03
DAV:   2    -0.356421656987E+02    0.78090E-08   -0.40929E-06    48   0.177E-02    0.283E-03
DAV:   3    -0.356421657849E+02   -0.86197E-07   -0.73762E-07    64   0.747E-03    0.741E-04
DAV:   4    -0.356421658129E+02   -0.27957E-07   -0.17836E-07    48   0.331E-03    0.393E-04
DAV:   5    -0.356421658275E+02   -0.14632E-07   -0.69630E-08    48   0.161E-03    0.134E-04
DAV:   6    -0.356421658384E+02   -0.10911E-07   -0.43827E-08    48   0.899E-04
  35 F= -.35642166E+02 E0= -.35642166E+02  d E =-.322068E-04
       N       E                     dE             d eps       ncg     rms          rms(c)
DAV:   1    -0.356422123832E+02   -0.46556E-04   -0.10504E-03    96   0.305E-01    0.719E-03
DAV:   2    -0.356422124587E+02   -0.75507E-07   -0.11109E-05    64   0.292E-02    0.467E-03
DAV:   3    -0.356422126472E+02   -0.18850E-06   -0.18158E-06    80   0.121E-02    0.129E-03
DAV:   4    -0.356422127206E+02   -0.73336E-07   -0.43262E-07    48   0.542E-03    0.611E-04
DAV:   5    -0.356422127554E+02   -0.34796E-07   -0.14016E-07    48   0.263E-03    0.224E-04
DAV:   6    -0.356422127818E+02   -0.26432E-07   -0.68798E-08    48   0.143E-03
  36 F= -.35642213E+02 E0= -.35642213E+02  d E =-.469434E-04
       N       E                     dE             d eps       ncg     rms          rms(c)
DAV:   1    -0.356422760362E+02   -0.63281E-04   -0.26509E-03    96   0.484E-01    0.115E-02
DAV:   2    -0.356422764646E+02   -0.42839E-06   -0.28402E-05    64   0.468E-02    0.746E-03
DAV:   3    -0.356422769182E+02   -0.45359E-06   -0.44775E-06    64   0.194E-02    0.208E-03
DAV:   4    -0.356422771077E+02   -0.18950E-06   -0.10649E-06    48   0.866E-03    0.941E-04
DAV:   5    -0.356422771874E+02   -0.79689E-07   -0.31055E-07    48   0.420E-03    0.352E-04
DAV:   6    -0.356422772495E+02   -0.62069E-07   -0.12835E-07    48   0.228E-03
  37 F= -.35642277E+02 E0= -.35642277E+02  d E =-.644677E-04
       N       E                     dE             d eps       ncg     rms          rms(c)
DAV:   1    -0.356423572143E+02   -0.80027E-04   -0.63901E-03    96   0.749E-01    0.178E-02
DAV:   2    -0.356423586922E+02   -0.14779E-05   -0.68325E-05    72   0.727E-02    0.115E-02
DAV:   3    -0.356423598608E+02   -0.11686E-05   -0.10542E-05    72   0.299E-02    0.308E-03
DAV:   4    -0.356423602929E+02   -0.43213E-06   -0.24812E-06    48   0.133E-02    0.139E-03
DAV:   5    -0.356423604746E+02   -0.18171E-06   -0.70280E-07    48   0.649E-03    0.513E-04
DAV:   6    -0.356423606163E+02   -0.14169E-06   -0.26746E-07    48   0.355E-03
  38 F= -.35642361E+02 E0= -.35642361E+02  d E =-.833669E-04
       N       E                     dE             d eps       ncg     rms          rms(c)
DAV:   1    -0.356424564184E+02   -0.95944E-04   -0.14684E-02    96   0.113E+00    0.268E-02
DAV:   2    -0.356424604504E+02   -0.40320E-05   -0.15561E-04    88   0.110E-01    0.173E-02
DAV:   3    -0.356424635533E+02   -0.31030E-05   -0.23540E-05    80   0.447E-02    0.431E-03
DAV:   4    -0.356424644954E+02   -0.94211E-06   -0.54581E-06    48   0.196E-02    0.196E-03
DAV:   5    -0.356424648903E+02   -0.39490E-06   -0.15679E-06    48   0.973E-03    0.688E-04
DAV:   6    -0.356424651672E+02   -0.27686E-06   -0.57784E-07    48   0.536E-03
  39 F= -.35642465E+02 E0= -.35642465E+02  d E =-.104551E-03
       N       E                     dE             d eps       ncg     rms          rms(c)
DAV:   1    -0.356425725527E+02   -0.10766E-03   -0.32177E-02    96   0.167E+00    0.397E-02
DAV:   2    -0.356425879084E+02   -0.15356E-04   -0.39405E-04   128   0.163E-01    0.269E-02
DAV:   3    -0.356425901874E+02   -0.22790E-05   -0.15888E-05    80   0.414E-02    0.742E-03
DAV:   4    -0.356425921314E+02   -0.19440E-05   -0.59121E-06    48   0.200E-02    0.287E-03
DAV:   5    -0.356425927059E+02   -0.57456E-06   -0.11022E-06    48   0.895E-03    0.948E-04
DAV:   6    -0.356425931482E+02   -0.44222E-06   -0.27647E-07    48   0.395E-03
  40 F= -.35642593E+02 E0= -.35642593E+02  d E =-.127981E-03
       N       E                     dE             d eps       ncg     rms          rms(c)
DAV:   1    -0.356426892460E+02   -0.96540E-04   -0.66675E-02    96   0.240E+00    0.575E-02
DAV:   2    -0.356427219753E+02   -0.32729E-04   -0.81356E-04   128   0.235E-01    0.387E-02
DAV:   3    -0.356427273718E+02   -0.53966E-05   -0.32414E-05    80   0.600E-02    0.105E-02
DAV:   4    -0.356427314543E+02   -0.40825E-05   -0.12725E-05    64   0.292E-02    0.420E-03
DAV:   5    -0.356427327031E+02   -0.12488E-05   -0.23242E-06    64   0.133E-02    0.119E-03
DAV:   6    -0.356427335359E+02   -0.83278E-06   -0.54723E-07    48   0.566E-03
  41 F= -.35642734E+02 E0= -.35642734E+02  d E =-.140388E-03
       N       E                     dE             d eps       ncg     rms          rms(c)
DAV:   1    -0.356427722212E+02   -0.39518E-04   -0.12843E-01    96   0.331E+00    0.810E-02
DAV:   2    -0.356428352841E+02   -0.63063E-04   -0.15726E-03   128   0.327E-01    0.539E-02
DAV:   3    -0.356428466153E+02   -0.11331E-04   -0.65276E-05    80   0.867E-02    0.149E-02
DAV:   4    -0.356428547739E+02   -0.81587E-05   -0.26926E-05    96   0.428E-02    0.619E-03
DAV:   5    -0.356428570061E+02   -0.22322E-05   -0.48723E-06    64   0.202E-02    0.160E-03
DAV:   6    -0.356428584750E+02   -0.14689E-05   -0.11302E-06    48   0.826E-03
  42 F= -.35642858E+02 E0= -.35642858E+02  d E =-.124939E-03
       N       E                     dE             d eps       ncg     rms          rms(c)
DAV:   1    -0.356427410255E+02    0.11598E-03   -0.22581E-01    96   0.437E+00    0.109E-01
DAV:   2    -0.356428492665E+02   -0.10824E-03   -0.27313E-03   128   0.431E-01    0.719E-02
DAV:   3    -0.356428701492E+02   -0.20883E-04   -0.11864E-04    80   0.117E-01    0.194E-02
DAV:   4    -0.356428847615E+02   -0.14612E-04   -0.48914E-05    88   0.577E-02    0.842E-03
DAV:   5    -0.356428884967E+02   -0.37352E-05   -0.85196E-06    64   0.269E-02    0.221E-03
DAV:   6    -0.356428909958E+02   -0.24992E-05   -0.19899E-06    48   0.111E-02
  43 F= -.35642891E+02 E0= -.35642891E+02  d E =-.325208E-04
       N       E                     dE             d eps       ncg     rms          rms(c)
DAV:   1    -0.356425497174E+02    0.33878E-03   -0.36201E-01    96   0.549E+00    0.141E-01
DAV:   2    -0.356427170652E+02   -0.16735E-03   -0.43071E-03   128   0.539E-01    0.913E-02
DAV:   3    -0.356427514843E+02   -0.34419E-04   -0.23503E-04   112   0.153E-01    0.247E-02
DAV:   4    -0.356427722174E+02   -0.20733E-04   -0.51872E-05    96   0.588E-02    0.109E-02
DAV:   5    -0.356427773587E+02   -0.51413E-05   -0.80784E-06    64   0.266E-02    0.341E-03
DAV:   6    -0.356427815916E+02   -0.42329E-05   -0.19231E-06    48   0.118E-02
  44 F= -.35642782E+02 E0= -.35642782E+02  d E =0.109404E-03
       N       E                     dE             d eps       ncg     rms          rms(c)
DAV:   1    -0.356422702083E+02    0.50715E-03   -0.57312E-01    96   0.689E+00    0.178E-01
DAV:   2    -0.356425340511E+02   -0.26384E-03   -0.66432E-03   116   0.669E-01    0.114E-01
DAV:   3    -0.356425890756E+02   -0.55024E-04   -0.35599E-04   112   0.188E-01    0.288E-02
DAV:   4    -0.356426199358E+02   -0.30860E-04   -0.80802E-05    84   0.711E-02    0.133E-02
DAV:   5    -0.356426282799E+02   -0.83441E-05   -0.11307E-05    64   0.303E-02    0.406E-03
DAV:   6    -0.356426343688E+02   -0.60889E-05   -0.23453E-06    64   0.129E-02
  45 F= -.35642634E+02 E0= -.35642634E+02  d E =0.147223E-03
       N       E                     dE             d eps       ncg     rms          rms(c)
DAV:   1    -0.356418976777E+02    0.73060E-03   -0.87524E-01    96   0.845E+00    0.221E-01
DAV:   2    -0.356423220359E+02   -0.42436E-03   -0.10160E-02   112   0.830E-01    0.141E-01
DAV:   3    -0.356423680776E+02   -0.46042E-04   -0.53941E-04   128   0.232E-01    0.380E-02
DAV:   4    -0.356424252456E+02   -0.57168E-04   -0.14149E-04    96   0.898E-02    0.179E-02
DAV:   5    -0.356424345577E+02   -0.93121E-05   -0.74099E-06    64   0.281E-02    0.537E-03
DAV:   6    -0.356424438822E+02   -0.93245E-05   -0.34573E-06    64   0.151E-02
  46 F= -.35642444E+02 E0= -.35642444E+02  d E =0.190487E-03
       N       E                     dE             d eps       ncg     rms          rms(c)
DAV:   1    -0.356414890516E+02    0.94551E-03   -0.12535E+00    96   0.101E+01    0.262E-01
DAV:   2    -0.356421570654E+02   -0.66801E-03   -0.14327E-02   112   0.988E-01    0.168E-01
DAV:   3    -0.356421852424E+02   -0.28177E-04   -0.75847E-04   116   0.276E-01    0.422E-02
DAV:   4    -0.356422659261E+02   -0.80684E-04   -0.19967E-04   112   0.107E-01    0.214E-02
DAV:   5    -0.356422794891E+02   -0.13563E-04   -0.97313E-06    64   0.322E-02    0.616E-03
DAV:   6    -0.356422921692E+02   -0.12680E-04   -0.45605E-06    64   0.171E-02
  47 F= -.35642292E+02 E0= -.35642292E+02  d E =0.151713E-03
       N       E                     dE             d eps       ncg     rms          rms(c)
DAV:   1    -0.356412847402E+02    0.99475E-03   -0.16744E+00    96   0.118E+01    0.306E-01
DAV:   2    -0.356422116282E+02   -0.92689E-03   -0.19414E-02   124   0.116E+00    0.197E-01
DAV:   3    -0.356421631901E+02    0.48438E-04   -0.11182E-03   128   0.335E-01    0.564E-02
DAV:   4    -0.356422778672E+02   -0.11468E-03   -0.27972E-04   128   0.132E-01    0.257E-02
DAV:   5    -0.356422937008E+02   -0.15834E-04   -0.18014E-05    64   0.446E-02    0.947E-03
DAV:   6    -0.356423134408E+02   -0.19740E-04   -0.93595E-06    80   0.259E-02
  48 F= -.35642313E+02 E0= -.35642313E+02  d E =-.212716E-04
       N       E                     dE             d eps       ncg     rms          rms(c)
DAV:   1    -0.356413459811E+02    0.94772E-03   -0.18954E+00    96   0.126E+01    0.333E-01
DAV:   2    -0.356423692042E+02   -0.10232E-02   -0.22857E-02   128   0.126E+00    0.210E-01
DAV:   3    -0.356422844534E+02    0.84751E-04   -0.13601E-03   128   0.367E-01    0.693E-02
DAV:   4    -0.356424285043E+02   -0.14405E-03   -0.34190E-04   128   0.150E-01    0.287E-02
DAV:   5    -0.356424536460E+02   -0.25142E-04   -0.35269E-05    64   0.610E-02    0.874E-03
DAV:   6    -0.356424722354E+02   -0.18589E-04   -0.11500E-05    80   0.306E-02
  49 F= -.35642472E+02 E0= -.35642472E+02  d E =-.158795E-03
       N       E                     dE             d eps       ncg     rms          rms(c)
DAV:   1    -0.356427118709E+02   -0.25822E-03   -0.20087E-03    96   0.428E-01    0.213E-02
DAV:   2    -0.356427196514E+02   -0.77805E-05   -0.49212E-05    84   0.650E-02    0.103E-02
DAV:   3    -0.356427296826E+02   -0.10031E-04   -0.11372E-05    64   0.330E-02    0.467E-03
DAV:   4    -0.356427431081E+02   -0.13425E-04   -0.57958E-06    96   0.221E-02    0.167E-03
DAV:   5    -0.356427504806E+02   -0.73725E-05   -0.12139E-06    64   0.104E-02    0.906E-04
DAV:   6    -0.356427574649E+02   -0.69843E-05   -0.49268E-07    88   0.536E-03
  50 F= -.35642757E+02 E0= -.35642757E+02  d E =-.285229E-03
       N       E                     dE             d eps       ncg     rms          rms(c)
DAV:   1    -0.356429496746E+02   -0.19919E-03   -0.54220E-03    96   0.701E-01    0.340E-02
DAV:   2    -0.356429433134E+02    0.63613E-05   -0.12590E-04    92   0.104E-01    0.168E-02
DAV:   3    -0.356429432461E+02    0.67233E-07   -0.31091E-05    96   0.544E-02    0.740E-03
DAV:   4    -0.356429478359E+02   -0.45898E-05   -0.13946E-05    64   0.349E-02    0.264E-03
DAV:   5    -0.356429502019E+02   -0.23660E-05   -0.25150E-06    96   0.158E-02    0.135E-03
DAV:   6    -0.356429523313E+02   -0.21293E-05   -0.62687E-07    64   0.754E-03
  51 F= -.35642952E+02 E0= -.35642952E+02  d E =-.194866E-03
       N       E                     dE             d eps       ncg     rms          rms(c)
DAV:   1    -0.356429412884E+02    0.89136E-05   -0.56416E-03    96   0.716E-01    0.312E-02
DAV:   2    -0.356429346836E+02    0.66047E-05   -0.11409E-04    80   0.985E-02    0.163E-02
DAV:   3    -0.356429327115E+02    0.19722E-05   -0.26482E-05    96   0.502E-02    0.731E-03
DAV:   4    -0.356429345016E+02   -0.17902E-05   -0.11520E-05    64   0.319E-02    0.247E-03
DAV:   5    -0.356429353034E+02   -0.80172E-06   -0.20378E-06    96   0.140E-02    0.113E-03
DAV:   6    -0.356429359599E+02   -0.65655E-06   -0.45100E-07    64   0.617E-03
  52 F= -.35642936E+02 E0= -.35642936E+02  d E =0.163714E-04
       N       E                     dE             d eps       ncg     rms          rms(c)
DAV:   1    -0.356429199373E+02    0.15366E-04   -0.37670E-03    96   0.574E-01    0.166E-02
DAV:   2    -0.356429190145E+02    0.92282E-06   -0.46692E-05    68   0.617E-02    0.104E-02
DAV:   3    -0.356429197332E+02   -0.71867E-06   -0.98198E-06    64   0.288E-02    0.414E-03
DAV:   4    -0.356429207666E+02   -0.10334E-05   -0.29905E-06    64   0.154E-02    0.197E-03
DAV:   5    -0.356429213037E+02   -0.53707E-06   -0.61450E-07    48   0.663E-03    0.583E-04
DAV:   6    -0.356429217050E+02   -0.40136E-06   -0.16738E-07    64   0.298E-03
  53 F= -.35642922E+02 E0= -.35642922E+02  d E =0.142549E-04
       N       E                     dE             d eps       ncg     rms          rms(c)
DAV:   1    -0.356430652937E+02   -0.14399E-03   -0.49752E-03    96   0.657E-01    0.179E-02
DAV:   2    -0.356430641742E+02    0.11195E-05   -0.67267E-05    80   0.739E-02    0.109E-02
DAV:   3    -0.356430652056E+02   -0.10315E-05   -0.15808E-05    68   0.359E-02    0.435E-03
DAV:   4    -0.356430663137E+02   -0.11081E-05   -0.42107E-06    88   0.187E-02    0.234E-03
DAV:   5    -0.356430666682E+02   -0.35443E-06   -0.81837E-07    72   0.847E-03    0.754E-04
DAV:   6    -0.356430668067E+02   -0.13856E-06   -0.26230E-07    64   0.429E-03
  54 F= -.35643067E+02 E0= -.35643067E+02  d E =-.145102E-03
       N       E                     dE             d eps       ncg     rms          rms(c)
DAV:   1    -0.356432231880E+02   -0.15652E-03   -0.88984E-03    96   0.894E-01    0.289E-02
DAV:   2    -0.356432186280E+02    0.45599E-05   -0.18196E-04    96   0.115E-01    0.173E-02
DAV:   3    -0.356432151227E+02    0.35053E-05   -0.18398E-05    96   0.428E-02    0.874E-03
DAV:   4    -0.356432164818E+02   -0.13590E-05   -0.95488E-06    64   0.306E-02    0.326E-03
DAV:   5    -0.356432167221E+02   -0.24031E-06   -0.18847E-06    96   0.132E-02    0.160E-03
DAV:   6    -0.356432168675E+02   -0.14544E-06   -0.40918E-07    64   0.613E-03
  55 F= -.35643217E+02 E0= -.35643217E+02  d E =-.150061E-03
       N       E                     dE             d eps       ncg     rms          rms(c)
DAV:   1    -0.356431889976E+02    0.27724E-04   -0.13062E-02    96   0.108E+00    0.336E-02
DAV:   2    -0.356431844090E+02    0.45886E-05   -0.25187E-04   108   0.135E-01    0.205E-02
DAV:   3    -0.356431797947E+02    0.46143E-05   -0.23812E-05    80   0.492E-02    0.104E-02
DAV:   4    -0.356431818567E+02   -0.20620E-05   -0.13163E-05    72   0.358E-02    0.375E-03
DAV:   5    -0.356431823094E+02   -0.45271E-06   -0.26108E-06    60   0.157E-02    0.185E-03
DAV:   6    -0.356431826570E+02   -0.34758E-06   -0.58465E-07    52   0.725E-03
  56 F= -.35643183E+02 E0= -.35643183E+02  d E =0.342105E-04
       N       E                     dE             d eps       ncg     rms          rms(c)
DAV:   1    -0.356431405020E+02    0.41807E-04   -0.13037E-02    96   0.105E+00    0.262E-02
DAV:   2    -0.356431440900E+02   -0.35880E-05   -0.16537E-04    96   0.107E-01    0.169E-02
DAV:   3    -0.356431455502E+02   -0.14602E-05   -0.11006E-05    64   0.330E-02    0.616E-03
DAV:   4    -0.356431475055E+02   -0.19553E-05   -0.38441E-06    48   0.178E-02    0.248E-03
DAV:   5    -0.356431480273E+02   -0.52179E-06   -0.74385E-07    64   0.826E-03    0.933E-04
DAV:   6    -0.356431484214E+02   -0.39412E-06   -0.25436E-07    48   0.395E-03
  57 F= -.35643148E+02 E0= -.35643148E+02  d E =0.342356E-04
       N       E                     dE             d eps       ncg     rms          rms(c)
DAV:   1    -0.356432354086E+02   -0.87381E-04   -0.19862E-02    96   0.131E+00    0.369E-02
DAV:   2    -0.356432393416E+02   -0.39329E-05   -0.28817E-04   112   0.142E-01    0.235E-02
DAV:   3    -0.356432366765E+02    0.26650E-05   -0.16578E-05    96   0.428E-02    0.118E-02
DAV:   4    -0.356432406293E+02   -0.39528E-05   -0.12764E-05    64   0.338E-02    0.335E-03
DAV:   5    -0.356432409742E+02   -0.34496E-06   -0.26125E-06    96   0.161E-02    0.149E-03
DAV:   6    -0.356432413174E+02   -0.34318E-06   -0.49174E-07    56   0.626E-03
  58 F= -.35643241E+02 E0= -.35643241E+02  d E =-.928960E-04
       N       E                     dE             d eps       ncg     rms          rms(c)
DAV:   1    -0.356431307546E+02    0.11022E-03   -0.29217E-02    96   0.159E+00    0.468E-02
DAV:   2    -0.356431341311E+02   -0.33765E-05   -0.46485E-04   100   0.182E-01    0.291E-02
DAV:   3    -0.356431280175E+02    0.61136E-05   -0.26995E-05    96   0.555E-02    0.152E-02
DAV:   4    -0.356431336938E+02   -0.56763E-05   -0.24207E-05    64   0.471E-02    0.433E-03
DAV:   5    -0.356431340853E+02   -0.39146E-06   -0.49294E-06    64   0.228E-02    0.219E-03
DAV:   6    -0.356431346496E+02   -0.56428E-06   -0.10829E-06    48   0.940E-03
  59 F= -.35643135E+02 E0= -.35643135E+02  d E =0.106668E-03
       N       E                     dE             d eps       ncg     rms          rms(c)
DAV:   1    -0.356431597415E+02   -0.25656E-04   -0.28444E-02    96   0.154E+00    0.391E-02
DAV:   2    -0.356431675883E+02   -0.78468E-05   -0.33338E-04   112   0.151E-01    0.254E-02
DAV:   3    -0.356431722166E+02   -0.46284E-05   -0.18890E-05    80   0.466E-02    0.800E-03
DAV:   4    -0.356431759017E+02   -0.36851E-05   -0.68335E-06    80   0.235E-02    0.318E-03
DAV:   5    -0.356431767262E+02   -0.82443E-06   -0.11963E-06    48   0.103E-02    0.147E-03
DAV:   6    -0.356431776352E+02   -0.90900E-06   -0.43126E-07    64   0.575E-03
  60 F= -.35643178E+02 E0= -.35643178E+02  d E =-.429856E-04
       N       E                     dE             d eps       ncg     rms          rms(c)
DAV:   1    -0.356431390503E+02    0.37676E-04   -0.41520E-02    96   0.188E+00    0.598E-02
DAV:   2    -0.356431291516E+02    0.98987E-05   -0.65766E-04    96   0.217E-01    0.379E-02
DAV:   3    -0.356431170884E+02    0.12063E-04   -0.59265E-05    96   0.802E-02    0.185E-02
DAV:   4    -0.356431254727E+02   -0.83844E-05   -0.33051E-05    64   0.566E-02    0.563E-03
DAV:   5    -0.356431267388E+02   -0.12661E-05   -0.63384E-06    96   0.245E-02    0.273E-03
DAV:   6    -0.356431277650E+02   -0.10262E-05   -0.14227E-06    64   0.115E-02
  61 F= -.35643128E+02 E0= -.35643128E+02  d E =0.498701E-04
       N       E                     dE             d eps       ncg     rms          rms(c)
DAV:   1    -0.356431831777E+02   -0.56439E-04   -0.36991E-04    80   0.184E-01    0.983E-03
DAV:   2    -0.356431829413E+02    0.23642E-06   -0.86136E-06    72   0.293E-02    0.452E-03
DAV:   3    -0.356431833227E+02   -0.38135E-06   -0.25948E-06    48   0.162E-02    0.199E-03
DAV:   4    -0.356431841216E+02   -0.79893E-06   -0.11701E-06    92   0.102E-02    0.699E-04
DAV:   5    -0.356431847072E+02   -0.58560E-06   -0.26022E-07    48   0.464E-03    0.327E-04
DAV:   6    -0.356431850985E+02   -0.39135E-06   -0.67205E-08    48   0.201E-03
  62 F= -.35643185E+02 E0= -.35643185E+02  d E =-.573335E-04
       N       E                     dE             d eps       ncg     rms          rms(c)
DAV:   1    -0.356432406623E+02   -0.55955E-04   -0.10679E-03   100   0.312E-01    0.166E-02
DAV:   2    -0.356432382831E+02    0.23791E-05   -0.25198E-05    76   0.493E-02    0.750E-03
DAV:   3    -0.356432377474E+02    0.53576E-06   -0.72531E-06    96   0.268E-02    0.326E-03
DAV:   4    -0.356432381072E+02   -0.35987E-06   -0.31199E-06    64   0.168E-02    0.115E-03
DAV:   5    -0.356432382953E+02   -0.18805E-06   -0.62903E-07    84   0.750E-03    0.568E-04
DAV:   6    -0.356432384103E+02   -0.11496E-06   -0.11718E-07    48   0.316E-03
  63 F= -.35643238E+02 E0= -.35643238E+02  d E =-.533117E-04
       N       E                     dE             d eps       ncg     rms          rms(c)
DAV:   1    -0.356432463565E+02   -0.80612E-05   -0.12873E-03    96   0.345E-01    0.175E-02
DAV:   2    -0.356432432603E+02    0.30962E-05   -0.30886E-05    64   0.537E-02    0.805E-03
DAV:   3    -0.356432423696E+02    0.89071E-06   -0.86700E-06    84   0.290E-02    0.348E-03
DAV:   4    -0.356432425157E+02   -0.14611E-06   -0.36588E-06    64   0.182E-02    0.126E-03
DAV:   5    -0.356432425704E+02   -0.54662E-07   -0.73387E-07    48   0.812E-03    0.659E-04
DAV:   6    -0.356432426129E+02   -0.42488E-07   -0.13597E-07    48   0.347E-03
  64 F= -.35643243E+02 E0= -.35643243E+02  d E =-.420262E-05
       N       E                     dE             d eps       ncg     rms          rms(c)
DAV:   1    -0.356432452132E+02   -0.26428E-05   -0.32070E-06    48   0.176E-02    0.723E-04
DAV:   2    -0.356432452934E+02   -0.80163E-07   -0.20456E-07    48   0.418E-03    0.409E-04
DAV:   3    -0.356432453745E+02   -0.81148E-07   -0.41208E-08    48   0.141E-03    0.248E-04
DAV:   4    -0.356432455272E+02   -0.15270E-06   -0.32812E-08    64   0.106E-03    0.809E-05
DAV:   5    -0.356432455837E+02   -0.56443E-07   -0.23481E-08    48   0.490E-04    0.610E-05
DAV:   6    -0.356432456881E+02   -0.10439E-06   -0.23005E-08    48   0.311E-04
  65 F= -.35643246E+02 E0= -.35643246E+02  d E =-.307520E-05
       N       E                     dE             d eps       ncg     rms          rms(c)
DAV:   1    -0.356432501566E+02   -0.45729E-05   -0.12432E-05    48   0.346E-02    0.137E-03
DAV:   2    -0.356432502285E+02   -0.71908E-07   -0.74680E-07    48   0.836E-03    0.767E-04
DAV:   3    -0.356432502627E+02   -0.34230E-07   -0.10368E-07    48   0.276E-03    0.499E-04
DAV:   4    -0.356432503371E+02   -0.74357E-07   -0.68398E-08    80   0.228E-03    0.147E-04
DAV:   5    -0.356432503656E+02   -0.28510E-07   -0.34260E-08    48   0.105E-03    0.117E-04
DAV:   6    -0.356432503935E+02   -0.27888E-07   -0.25180E-08    48   0.482E-04
  66 F= -.35643250E+02 E0= -.35643250E+02  d E =-.470540E-05
       N       E                     dE             d eps       ncg     rms          rms(c)
DAV:   1    -0.356432556707E+02   -0.53052E-05   -0.25815E-05    48   0.499E-02    0.189E-03
DAV:   2    -0.356432557359E+02   -0.65161E-07   -0.15147E-06    64   0.120E-02    0.108E-03
DAV:   3    -0.356432557331E+02    0.28010E-08   -0.19428E-07    48   0.397E-03    0.709E-04
DAV:   4    -0.356432557439E+02   -0.10824E-07   -0.11466E-07    84   0.320E-03    0.205E-04
DAV:   5    -0.356432557530E+02   -0.91140E-08   -0.48988E-08    48   0.147E-03    0.165E-04
DAV:   6    -0.356432557611E+02   -0.80288E-08   -0.30240E-08    48   0.673E-04
  67 F= -.35643256E+02 E0= -.35643256E+02  d E =-.536761E-05
       N       E                     dE             d eps       ncg     rms          rms(c)
DAV:   1    -0.356432607473E+02   -0.49942E-05   -0.41054E-05    48   0.628E-02    0.222E-03
DAV:   2    -0.356432608276E+02   -0.80281E-07   -0.23488E-06    48   0.151E-02    0.131E-03
DAV:   3    -0.356432608082E+02    0.19406E-07   -0.29623E-07    48   0.496E-03    0.869E-04
DAV:   4    -0.356432607946E+02    0.13556E-07   -0.15697E-07    48   0.381E-03    0.247E-04
DAV:   5    -0.356432607990E+02   -0.44402E-08   -0.63798E-08    48   0.176E-03    0.200E-04
DAV:   6    -0.356432608045E+02   -0.54270E-08   -0.35497E-08    48   0.811E-04
  68 F= -.35643261E+02 E0= -.35643261E+02  d E =-.504340E-05
       N       E                     dE             d eps       ncg     rms          rms(c)
DAV:   1    -0.356432647389E+02   -0.39399E-05   -0.56541E-05    48   0.733E-02    0.236E-03
DAV:   2    -0.356432648727E+02   -0.13380E-06   -0.31435E-06    48   0.176E-02    0.145E-03
DAV:   3    -0.356432648601E+02    0.12627E-07   -0.39651E-07    48   0.571E-03    0.976E-04
DAV:   4    -0.356432648496E+02    0.10544E-07   -0.18351E-07    48   0.412E-03    0.273E-04
DAV:   5    -0.356432648563E+02   -0.67816E-08   -0.74707E-08    48   0.190E-03    0.221E-04
DAV:   6    -0.356432648635E+02   -0.71775E-08   -0.39081E-08    48   0.890E-04
  69 F= -.35643265E+02 E0= -.35643265E+02  d E =-.405905E-05
       N       E                     dE             d eps       ncg     rms          rms(c)
DAV:   1    -0.356432675602E+02   -0.27038E-05   -0.72371E-05    48   0.823E-02    0.237E-03
DAV:   2    -0.356432677724E+02   -0.21228E-06   -0.39042E-06    48   0.196E-02    0.151E-03
DAV:   3    -0.356432677801E+02   -0.76645E-08   -0.49590E-07    48   0.630E-03    0.103E-03
DAV:   4    -0.356432677810E+02   -0.86470E-09   -0.19580E-07    48   0.416E-03    0.283E-04
DAV:   5    -0.356432677906E+02   -0.96311E-08   -0.81490E-08    48   0.194E-03    0.226E-04
DAV:   6    -0.356432677994E+02   -0.88046E-08   -0.41571E-08    48   0.929E-04
  70 F= -.35643268E+02 E0= -.35643268E+02  d E =-.293589E-05
       N       E                     dE             d eps       ncg     rms          rms(c)
DAV:   1    -0.356432696621E+02   -0.18715E-05   -0.11261E-04    48   0.101E-01    0.263E-03
DAV:   2    -0.356432700542E+02   -0.39204E-06   -0.58765E-06    48   0.242E-02    0.170E-03
DAV:   3    -0.356432701030E+02   -0.48836E-07   -0.74394E-07    48   0.760E-03    0.113E-03
DAV:   4    -0.356432701211E+02   -0.18118E-07   -0.24499E-07    48   0.447E-03    0.297E-04
DAV:   5    -0.356432701339E+02   -0.12755E-07   -0.97580E-08    48   0.210E-03    0.244E-04
DAV:   6    -0.356432701439E+02   -0.10020E-07   -0.47426E-08    48   0.105E-03
  71 F= -.35643270E+02 E0= -.35643270E+02  d E =-.234447E-05
       N       E                     dE             d eps       ncg     rms          rms(c)
DAV:   1    -0.356432726136E+02   -0.24797E-05   -0.18767E-04    96   0.126E-01    0.328E-03
DAV:   2    -0.356432725679E+02    0.45623E-07   -0.21505E-06    48   0.130E-02    0.206E-03
DAV:   3    -0.356432726005E+02   -0.32537E-07   -0.38814E-07    48   0.561E-03    0.723E-04
DAV:   4    -0.356432726274E+02   -0.26894E-07   -0.13730E-07    48   0.283E-03    0.298E-04
DAV:   5    -0.356432726442E+02   -0.16792E-07   -0.55615E-08    48   0.130E-03    0.113E-04
DAV:   6    -0.356432726585E+02   -0.14379E-07   -0.38414E-08    48   0.661E-04
  72 F= -.35643273E+02 E0= -.35643273E+02  d E =-.251465E-05
       N       E                     dE             d eps       ncg     rms          rms(c)
DAV:   1    -0.356432764048E+02   -0.37607E-05   -0.30458E-04    96   0.159E-01    0.395E-03
DAV:   2    -0.356432764023E+02    0.25457E-08   -0.31734E-06    48   0.158E-02    0.250E-03
DAV:   3    -0.356432765065E+02   -0.10426E-06   -0.53806E-07    48   0.656E-03    0.629E-04
DAV:   4    -0.356432765364E+02   -0.29826E-07   -0.15589E-07    48   0.295E-03    0.300E-04
DAV:   5    -0.356432765551E+02   -0.18714E-07   -0.64005E-08    48   0.143E-03    0.108E-04
DAV:   6    -0.356432765699E+02   -0.14781E-07   -0.41711E-08    48   0.797E-04
  73 F= -.35643277E+02 E0= -.35643277E+02  d E =-.391132E-05
       N       E                     dE             d eps       ncg     rms          rms(c)
DAV:   1    -0.356432824303E+02   -0.58752E-05   -0.50629E-04    96   0.206E-01    0.513E-03
DAV:   2    -0.356432824487E+02   -0.18445E-07   -0.53568E-06    64   0.206E-02    0.322E-03
DAV:   3    -0.356432826201E+02   -0.17139E-06   -0.91929E-07    48   0.875E-03    0.849E-04
DAV:   4    -0.356432826689E+02   -0.48773E-07   -0.25909E-07    48   0.403E-03    0.416E-04
DAV:   5    -0.356432826887E+02   -0.19844E-07   -0.87658E-08    48   0.199E-03    0.146E-04
DAV:   6    -0.356432827061E+02   -0.17354E-07   -0.50883E-08    48   0.113E-03
  74 F= -.35643283E+02 E0= -.35643283E+02  d E =-.613622E-05
       N       E                     dE             d eps       ncg     rms          rms(c)
DAV:   1    -0.356432897477E+02   -0.70589E-05   -0.83583E-04    96   0.265E-01    0.676E-03
DAV:   2    -0.356432897584E+02   -0.10713E-07   -0.92510E-06    64   0.272E-02    0.423E-03
DAV:   3    -0.356432899978E+02   -0.23939E-06   -0.16238E-06    56   0.119E-02    0.132E-03
DAV:   4    -0.356432900950E+02   -0.97206E-07   -0.48008E-07    48   0.578E-03    0.618E-04
DAV:   5    -0.356432901190E+02   -0.23974E-07   -0.13188E-07    48   0.282E-03    0.228E-04
DAV:   6    -0.356432901460E+02   -0.27086E-07   -0.67227E-08    48   0.157E-03
  75 F= -.35643290E+02 E0= -.35643290E+02  d E =-.743996E-05
       N       E                     dE             d eps       ncg     rms          rms(c)
DAV:   1    -0.356432960334E+02   -0.59144E-05   -0.13277E-03    96   0.334E-01    0.858E-03
DAV:   2    -0.356432960528E+02   -0.19440E-07   -0.14807E-05    64   0.345E-02    0.537E-03
DAV:   3    -0.356432964303E+02   -0.37748E-06   -0.25957E-06    52   0.151E-02    0.173E-03
DAV:   4    -0.356432965925E+02   -0.16225E-06   -0.77711E-07    48   0.747E-03    0.799E-04
DAV:   5    -0.356432966295E+02   -0.36995E-07   -0.19670E-07    48   0.364E-03    0.302E-04
DAV:   6    -0.356432966731E+02   -0.43539E-07   -0.91352E-08    48   0.201E-03
  76 F= -.35643297E+02 E0= -.35643297E+02  d E =-.652703E-05
       N       E                     dE             d eps       ncg     rms          rms(c)
DAV:   1    -0.356433005248E+02   -0.38952E-05   -0.20063E-03    96   0.409E-01    0.104E-02
DAV:   2    -0.356433006651E+02   -0.14037E-06   -0.21375E-05    64   0.414E-02    0.651E-03
DAV:   3    -0.356433013194E+02   -0.65425E-06   -0.36385E-06    48   0.179E-02    0.184E-03
DAV:   4    -0.356433015271E+02   -0.20767E-06   -0.10195E-06    48   0.846E-03    0.876E-04
DAV:   5    -0.356433015886E+02   -0.61520E-07   -0.26518E-07    48   0.414E-03    0.340E-04
DAV:   6    -0.356433016541E+02   -0.65531E-07   -0.11913E-07    48   0.238E-03
  77 F= -.35643302E+02 E0= -.35643302E+02  d E =-.498105E-05
       N       E                     dE             d eps       ncg     rms          rms(c)
DAV:   1    -0.356433058413E+02   -0.42528E-05   -0.29595E-03    96   0.496E-01    0.124E-02
DAV:   2    -0.356433061696E+02   -0.32827E-06   -0.30078E-05    64   0.490E-02    0.779E-03
DAV:   3    -0.356433072598E+02   -0.10902E-05   -0.48592E-06    64   0.205E-02    0.182E-03
DAV:   4    -0.356433074982E+02   -0.23844E-06   -0.12488E-06    48   0.917E-03    0.858E-04
DAV:   5    -0.356433076056E+02   -0.10734E-06   -0.35795E-07    48   0.455E-03    0.290E-04
DAV:   6    -0.356433076928E+02   -0.87257E-07   -0.14486E-07    48   0.257E-03
  78 F= -.35643308E+02 E0= -.35643308E+02  d E =-.603870E-05
       N       E                     dE             d eps       ncg     rms          rms(c)
DAV:   1    -0.356433125019E+02   -0.48963E-05   -0.43947E-03    96   0.605E-01    0.152E-02
DAV:   2    -0.356433129929E+02   -0.49103E-06   -0.45196E-05    64   0.600E-02    0.956E-03
DAV:   3    -0.356433144939E+02   -0.15010E-05   -0.71140E-06    64   0.248E-02    0.240E-03
DAV:   4    -0.356433148750E+02   -0.38105E-06   -0.18237E-06    48   0.111E-02    0.102E-03
DAV:   5    -0.356433150371E+02   -0.16209E-06   -0.51545E-07    48   0.542E-03    0.341E-04
DAV:   6    -0.356433151593E+02   -0.12223E-06   -0.19743E-07    48   0.299E-03
  79 F= -.35643315E+02 E0= -.35643315E+02  d E =-.746648E-05
       N       E                     dE             d eps       ncg     rms          rms(c)
DAV:   1    -0.356433149622E+02    0.74879E-07   -0.63952E-03    96   0.730E-01    0.185E-02
DAV:   2    -0.356433157399E+02   -0.77767E-06   -0.66613E-05    64   0.730E-02    0.116E-02
DAV:   3    -0.356433178201E+02   -0.20802E-05   -0.10441E-05    64   0.301E-02    0.306E-03
DAV:   4    -0.356433184071E+02   -0.58701E-06   -0.27142E-06    48   0.137E-02    0.125E-03
DAV:   5    -0.356433186194E+02   -0.21229E-06   -0.74753E-07    48   0.661E-03    0.435E-04
DAV:   6    -0.356433187794E+02   -0.16003E-06   -0.28093E-07    48   0.363E-03
  80 F= -.35643319E+02 E0= -.35643319E+02  d E =-.362010E-05
       N       E                     dE             d eps       ncg     rms          rms(c)
DAV:   1    -0.356433152860E+02    0.33333E-05   -0.88531E-03    96   0.857E-01    0.214E-02
DAV:   2    -0.356433167156E+02   -0.14296E-05   -0.90088E-05    64   0.848E-02    0.135E-02
DAV:   3    -0.356433197970E+02   -0.30814E-05   -0.14124E-05    64   0.350E-02    0.309E-03
DAV:   4    -0.356433204873E+02   -0.69035E-06   -0.35741E-06    48   0.155E-02    0.135E-03
DAV:   5    -0.356433207645E+02   -0.27718E-06   -0.10187E-06    48   0.770E-03    0.440E-04
DAV:   6    -0.356433209599E+02   -0.19540E-06   -0.38057E-07    48   0.430E-03
  81 F= -.35643321E+02 E0= -.35643321E+02  d E =-.218052E-05
       N       E                     dE             d eps       ncg     rms          rms(c)
DAV:   1    -0.356433164302E+02    0.43343E-05   -0.11879E-02    96   0.995E-01    0.252E-02
DAV:   2    -0.356433181856E+02   -0.17554E-05   -0.12414E-04    64   0.997E-02    0.158E-02
DAV:   3    -0.356433218832E+02   -0.36976E-05   -0.20290E-05    84   0.427E-02    0.409E-03
DAV:   4    -0.356433229828E+02   -0.10997E-05   -0.54778E-06    48   0.196E-02    0.190E-03
DAV:   5    -0.356433232985E+02   -0.31566E-06   -0.14002E-06    48   0.956E-03    0.770E-04
DAV:   6    -0.356433235851E+02   -0.28658E-06   -0.56358E-07    48   0.558E-03
  82 F= -.35643324E+02 E0= -.35643324E+02  d E =-.262516E-05
       N       E                     dE             d eps       ncg     rms          rms(c)
DAV:   1    -0.356433175762E+02    0.57223E-05   -0.13708E-02    96   0.107E+00    0.268E-02
DAV:   2    -0.356433199489E+02   -0.23727E-05   -0.14314E-04    64   0.107E-01    0.169E-02
DAV:   3    -0.356433245615E+02   -0.46126E-05   -0.21822E-05    64   0.436E-02    0.410E-03
DAV:   4    -0.356433256700E+02   -0.11085E-05   -0.54318E-06    48   0.193E-02    0.167E-03
DAV:   5    -0.356433261625E+02   -0.49247E-06   -0.15325E-06    48   0.945E-03    0.534E-04
DAV:   6    -0.356433264962E+02   -0.33364E-06   -0.56263E-07    48   0.521E-03
  83 F= -.35643326E+02 E0= -.35643326E+02  d E =-.291108E-05
       N       E                     dE             d eps       ncg     rms          rms(c)
DAV:   1    -0.356433272652E+02   -0.11026E-05   -0.23680E-06    48   0.144E-02    0.390E-04
DAV:   2    -0.356433274571E+02   -0.19192E-06   -0.20561E-07    48   0.409E-03    0.252E-04
DAV:   3    -0.356433276683E+02   -0.21117E-06   -0.60647E-08    48   0.153E-03    0.164E-04
DAV:   4    -0.356433279939E+02   -0.32569E-06   -0.41002E-08    48   0.885E-04    0.522E-05
DAV:   5    -0.356433281479E+02   -0.15394E-06   -0.32172E-08    48   0.511E-04    0.440E-05
DAV:   6    -0.356433283740E+02   -0.22615E-06   -0.30748E-08    52   0.381E-04
  84 F= -.35643328E+02 E0= -.35643328E+02  d E =-.187788E-05
       N       E                     dE             d eps       ncg     rms          rms(c)
DAV:   1    -0.356433292508E+02   -0.11029E-05   -0.15081E-05    60   0.364E-02    0.848E-04
DAV:   2    -0.356433293740E+02   -0.12328E-06   -0.78414E-07    48   0.879E-03    0.540E-04
DAV:   3    -0.356433294514E+02   -0.77348E-07   -0.11558E-07    48   0.267E-03    0.317E-04
DAV:   4    -0.356433295477E+02   -0.96316E-07   -0.49415E-08    76   0.138E-03    0.746E-05
DAV:   5    -0.356433295842E+02   -0.36495E-07   -0.33433E-08    48   0.663E-04    0.710E-05
DAV:   6    -0.356433296189E+02   -0.34680E-07   -0.28158E-08    48   0.363E-04
  85 F= -.35643330E+02 E0= -.35643330E+02  d E =-.124484E-05
       N       E                     dE             d eps       ncg     rms          rms(c)
DAV:   1    -0.356433305679E+02   -0.98369E-06   -0.37402E-05    48   0.571E-02    0.131E-03
DAV:   2    -0.356433307470E+02   -0.17908E-06   -0.19051E-06    48   0.138E-02    0.835E-04
DAV:   3    -0.356433308002E+02   -0.53218E-07   -0.25291E-07    48   0.420E-03    0.459E-04
DAV:   4    -0.356433308344E+02   -0.34200E-07   -0.84381E-08    64   0.208E-03    0.107E-04
DAV:   5    -0.356433308448E+02   -0.10401E-07   -0.44976E-08    48   0.101E-03    0.103E-04
DAV:   6    -0.356433308533E+02   -0.84972E-08   -0.32043E-08    48   0.562E-04
  86 F= -.35643331E+02 E0= -.35643331E+02  d E =-.123441E-05
       N       E                     dE             d eps       ncg     rms          rms(c)
DAV:   1    -0.356433318793E+02   -0.10345E-05   -0.66897E-05    48   0.761E-02    0.173E-03
DAV:   2    -0.356433321636E+02   -0.28427E-06   -0.33725E-06    48   0.184E-02    0.110E-03
DAV:   3    -0.356433322226E+02   -0.59022E-07   -0.42972E-07    48   0.559E-03    0.567E-04
DAV:   4    -0.356433322361E+02   -0.13544E-07   -0.12786E-07    48   0.269E-03    0.134E-04
DAV:   5    -0.356433322401E+02   -0.39486E-08   -0.59230E-08    48   0.131E-03    0.127E-04
DAV:   6    -0.356433322411E+02   -0.10039E-08   -0.36687E-08    48   0.747E-04
  87 F= -.35643332E+02 E0= -.35643332E+02  d E =-.138778E-05
       N       E                     dE             d eps       ncg     rms          rms(c)
DAV:   1    -0.356433333815E+02   -0.11414E-05   -0.10216E-04    48   0.940E-02    0.213E-03
DAV:   2    -0.356433338089E+02   -0.42740E-06   -0.51233E-06    48   0.228E-02    0.135E-03
DAV:   3    -0.356433338975E+02   -0.88610E-07   -0.64059E-07    48   0.688E-03    0.666E-04
DAV:   4    -0.356433339143E+02   -0.16823E-07   -0.17963E-07    48   0.324E-03    0.160E-04
DAV:   5    -0.356433339203E+02   -0.60390E-08   -0.76445E-08    48   0.160E-03    0.147E-04
DAV:   6    -0.356433339217E+02   -0.13461E-08   -0.42454E-08    48   0.919E-04
  88 F= -.35643334E+02 E0= -.35643334E+02  d E =-.168060E-05
       N       E                     dE             d eps       ncg     rms          rms(c)
DAV:   1    -0.356433351824E+02   -0.12620E-05   -0.14153E-04    64   0.111E-01    0.250E-03
DAV:   2    -0.356433357732E+02   -0.59079E-06   -0.70847E-06    48   0.268E-02    0.159E-03
DAV:   3    -0.356433358948E+02   -0.12162E-06   -0.87820E-07    48   0.810E-03    0.777E-04
DAV:   4    -0.356433359189E+02   -0.24103E-07   -0.23886E-07    48   0.380E-03    0.188E-04
DAV:   5    -0.356433359280E+02   -0.90839E-08   -0.96116E-08    48   0.188E-03    0.172E-04
DAV:   6    -0.356433359310E+02   -0.30320E-08   -0.49007E-08    48   0.108E-03
  89 F= -.35643336E+02 E0= -.35643336E+02  d E =-.200932E-05
       N       E                     dE             d eps       ncg     rms          rms(c)
DAV:   1    -0.356433383615E+02   -0.24335E-05   -0.23708E-04    96   0.140E-01    0.338E-03
DAV:   2    -0.356433383826E+02   -0.21119E-07   -0.24962E-06    48   0.141E-02    0.213E-03
DAV:   3    -0.356433384466E+02   -0.64001E-07   -0.40890E-07    48   0.578E-03    0.528E-04
DAV:   4    -0.356433384652E+02   -0.18526E-07   -0.12831E-07    48   0.263E-03    0.223E-04
DAV:   5    -0.356433384748E+02   -0.96829E-08   -0.55123E-08    48   0.131E-03    0.801E-05
DAV:   6    -0.356433384839E+02   -0.90317E-08   -0.36831E-08    48   0.732E-04
  90 F= -.35643338E+02 E0= -.35643338E+02  d E =-.255287E-05
       N       E                     dE             d eps       ncg     rms          rms(c)
DAV:   1    -0.356433414239E+02   -0.29491E-05   -0.36168E-04    96   0.173E-01    0.416E-03
DAV:   2    -0.356433414688E+02   -0.44899E-07   -0.37716E-06    48   0.173E-02    0.263E-03
DAV:   3    -0.356433415697E+02   -0.10093E-06   -0.59712E-07    48   0.710E-03    0.664E-04
DAV:   4    -0.356433415989E+02   -0.29223E-07   -0.17744E-07    48   0.322E-03    0.279E-04
DAV:   5    -0.356433416131E+02   -0.14136E-07   -0.67682E-08    48   0.159E-03    0.104E-04
DAV:   6    -0.356433416263E+02   -0.13194E-07   -0.41221E-08    48   0.887E-04
  91 F= -.35643342E+02 E0= -.35643342E+02  d E =-.314240E-05
       N       E                     dE             d eps       ncg     rms          rms(c)
DAV:   1    -0.356433451224E+02   -0.35093E-05   -0.52503E-04    96   0.209E-01    0.499E-03
DAV:   2    -0.356433452075E+02   -0.85144E-07   -0.54562E-06    48   0.208E-02    0.316E-03
DAV:   3    -0.356433453596E+02   -0.15214E-06   -0.84314E-07    48   0.849E-03    0.782E-04
DAV:   4    -0.356433453999E+02   -0.40247E-07   -0.23983E-07    48   0.382E-03    0.323E-04
DAV:   5    -0.356433454187E+02   -0.18791E-07   -0.85532E-08    48   0.189E-03    0.116E-04
DAV:   6    -0.356433454359E+02   -0.17201E-07   -0.47250E-08    48   0.105E-03
  92 F= -.35643345E+02 E0= -.35643345E+02  d E =-.380960E-05
       N       E                     dE             d eps       ncg     rms          rms(c)
DAV:   1    -0.356433496603E+02   -0.42416E-05   -0.72371E-04    96   0.245E-01    0.583E-03
DAV:   2    -0.356433498021E+02   -0.14186E-06   -0.75584E-06    48   0.245E-02    0.370E-03
DAV:   3    -0.356433500222E+02   -0.22002E-06   -0.11420E-06    48   0.990E-03    0.925E-04
DAV:   4    -0.356433500773E+02   -0.55137E-07   -0.31479E-07    48   0.445E-03    0.371E-04
DAV:   5    -0.356433501013E+02   -0.24006E-07   -0.10662E-07    48   0.221E-03    0.126E-04
DAV:   6    -0.356433501233E+02   -0.21985E-07   -0.54091E-08    48   0.122E-03
  93 F= -.35643350E+02 E0= -.35643350E+02  d E =-.468743E-05
       N       E                     dE             d eps       ncg     rms          rms(c)
DAV:   1    -0.356433550832E+02   -0.49819E-05   -0.93324E-04    96   0.280E-01    0.658E-03
DAV:   2    -0.356433553122E+02   -0.22900E-06   -0.98841E-06    48   0.281E-02    0.420E-03
DAV:   3    -0.356433555823E+02   -0.27015E-06   -0.14657E-06    52   0.113E-02    0.109E-03
DAV:   4    -0.356433556558E+02   -0.73501E-07   -0.39703E-07    48   0.507E-03    0.433E-04
DAV:   5    -0.356433556846E+02   -0.28789E-07   -0.12863E-07    48   0.251E-03    0.146E-04
DAV:   6    -0.356433557116E+02   -0.27007E-07   -0.61301E-08    48   0.138E-03
  94 F= -.35643356E+02 E0= -.35643356E+02  d E =-.558833E-05
       N       E                     dE             d eps       ncg     rms          rms(c)
DAV:   1    -0.356433614723E+02   -0.57876E-05   -0.10162E-03    96   0.294E-01    0.677E-03
DAV:   2    -0.356433617648E+02   -0.29254E-06   -0.10963E-05    48   0.295E-02    0.437E-03
DAV:   3    -0.356433620449E+02   -0.28013E-06   -0.16164E-06    48   0.118E-02    0.116E-03
DAV:   4    -0.356433621299E+02   -0.84944E-07   -0.43729E-07    48   0.539E-03    0.492E-04
DAV:   5    -0.356433621637E+02   -0.33848E-07   -0.13846E-07    48   0.269E-03    0.179E-04
DAV:   6    -0.356433621958E+02   -0.32072E-07   -0.64325E-08    48   0.149E-03
  95 F= -.35643362E+02 E0= -.35643362E+02  d E =-.648417E-05
       N       E                     dE             d eps       ncg     rms          rms(c)
DAV:   1    -0.356433622859E+02   -0.12221E-06   -0.21885E-07    48   0.414E-03    0.118E-04
DAV:   2    -0.356433623085E+02   -0.22522E-07   -0.38182E-08    48   0.115E-03    0.781E-05
DAV:   3    -0.356433623451E+02   -0.36603E-07   -0.27356E-08    48   0.460E-04    0.338E-05
DAV:   4    -0.356433623814E+02   -0.36337E-07   -0.25785E-08    48   0.257E-04    0.135E-05
DAV:   5    -0.356433624103E+02   -0.28920E-07   -0.25376E-08    48   0.157E-04    0.993E-06
DAV:   6    -0.356433624580E+02   -0.47640E-07   -0.25895E-08    56   0.134E-04
  96 F= -.35643362E+02 E0= -.35643362E+02  d E =-.262163E-06
       N       E                     dE             d eps       ncg     rms          rms(c)
DAV:   1    -0.356433625834E+02   -0.17307E-06   -0.89100E-07    48   0.874E-03    0.217E-04
DAV:   2    -0.356433625943E+02   -0.10912E-07   -0.65681E-08    48   0.207E-03    0.131E-04
DAV:   3    -0.356433626058E+02   -0.11463E-07   -0.30074E-08    48   0.620E-04    0.559E-05
DAV:   4    -0.356433626149E+02   -0.91494E-08   -0.26502E-08    48   0.289E-04    0.150E-05
DAV:   5    -0.356433626193E+02   -0.43844E-08   -0.25776E-08    48   0.145E-04    0.116E-05
DAV:   6    -0.356433626245E+02   -0.51623E-08   -0.25662E-08    48   0.862E-05
  97 F= -.35643363E+02 E0= -.35643363E+02  d E =-.166501E-06
       N       E                     dE             d eps       ncg     rms          rms(c)
DAV:   1    -0.356433627807E+02   -0.16138E-06   -0.22406E-06    48   0.139E-02    0.346E-04
DAV:   2    -0.356433627905E+02   -0.98419E-08   -0.12995E-07    48   0.331E-03    0.210E-04
DAV:   3    -0.356433627958E+02   -0.52605E-08   -0.38109E-08    48   0.987E-04    0.899E-05
DAV:   4    -0.356433627985E+02   -0.26705E-08   -0.28975E-08    48   0.463E-04    0.243E-05
DAV:   5    -0.356433627991E+02   -0.65393E-09   -0.26911E-08    48   0.230E-04    0.191E-05
DAV:   6    -0.356433628003E+02   -0.11530E-08   -0.26331E-08    48   0.134E-04
  98 F= -.35643363E+02 E0= -.35643363E+02  d E =-.175797E-06
       N       E                     dE             d eps       ncg     rms          rms(c)
DAV:   1    -0.356433629914E+02   -0.19227E-06   -0.42742E-06    48   0.192E-02    0.477E-04
DAV:   2    -0.356433630074E+02   -0.15996E-07   -0.22612E-07    48   0.457E-03    0.290E-04
DAV:   3    -0.356433630133E+02   -0.58931E-08   -0.49813E-08    48   0.136E-03    0.124E-04
DAV:   4    -0.356433630147E+02   -0.14320E-08   -0.32135E-08    48   0.640E-04    0.334E-05
DAV:   5    -0.356433630149E+02   -0.18758E-09   -0.28118E-08    48   0.318E-04    0.264E-05
DAV:   6    -0.356433630150E+02   -0.12142E-09   -0.26887E-08    48   0.186E-04
  99 F= -.35643363E+02 E0= -.35643363E+02  d E =-.214744E-06
       N       E                     dE             d eps       ncg     rms          rms(c)
DAV:   1    -0.356433632510E+02   -0.23609E-06   -0.66847E-06    48   0.240E-02    0.596E-04
DAV:   2    -0.356433632742E+02   -0.23206E-07   -0.33693E-07    48   0.569E-03    0.360E-04
DAV:   3    -0.356433632824E+02   -0.82448E-08   -0.62953E-08    48   0.169E-03    0.152E-04
DAV:   4    -0.356433632842E+02   -0.17644E-08   -0.35440E-08    48   0.794E-04    0.410E-05
DAV:   5    -0.356433632844E+02   -0.17985E-09   -0.29215E-08    48   0.396E-04    0.321E-05
DAV:   6    -0.356433632844E+02   -0.24329E-10   -0.27264E-08    48   0.231E-04
 100 F= -.35643363E+02 E0= -.35643363E+02  d E =-.269386E-06
       N       E                     dE             d eps       ncg     rms          rms(c)
DAV:   1    -0.356433636021E+02   -0.31778E-06   -0.82407E-06    48   0.267E-02    0.668E-04
DAV:   2    -0.356433636291E+02   -0.26960E-07   -0.39980E-07    48   0.627E-03    0.398E-04
DAV:   3    -0.356433636388E+02   -0.96804E-08   -0.69962E-08    48   0.186E-03    0.164E-04
DAV:   4    -0.356433636408E+02   -0.20445E-08   -0.37098E-08    48   0.868E-04    0.444E-05
DAV:   5    -0.356433636410E+02   -0.14256E-09   -0.29670E-08    48   0.433E-04    0.334E-05
DAV:   6    -0.356433636410E+02   -0.42064E-10   -0.27323E-08    48   0.253E-04
 101 F= -.35643364E+02 E0= -.35643364E+02  d E =-.356622E-06
       N       E                     dE             d eps       ncg     rms          rms(c)
DAV:   1    -0.356433641327E+02   -0.49175E-06   -0.87143E-06    48   0.278E-02    0.701E-04
DAV:   2    -0.356433641595E+02   -0.26769E-07   -0.39780E-07    48   0.638E-03    0.408E-04
DAV:   3    -0.356433641688E+02   -0.93141E-08   -0.69205E-08    48   0.190E-03    0.161E-04
DAV:   4    -0.356433641709E+02   -0.20734E-08   -0.36621E-08    48   0.866E-04    0.443E-05
DAV:   5    -0.356433641712E+02   -0.29922E-09   -0.29385E-08    48   0.432E-04    0.300E-05
DAV:   6    -0.356433641712E+02   -0.78899E-10   -0.27192E-08    48   0.253E-04
 102 F= -.35643364E+02 E0= -.35643364E+02  d E =-.530239E-06
       N       E                     dE             d eps       ncg     rms          rms(c)
DAV:   1    -0.356433642018E+02   -0.30629E-07   -0.91435E-08    48   0.237E-03    0.504E-05
DAV:   2    -0.356433642023E+02   -0.47112E-09   -0.29189E-08    48   0.569E-04    0.333E-05
DAV:   3    -0.356433642028E+02   -0.55525E-09   -0.26484E-08    48   0.170E-04    0.168E-05
DAV:   4    -0.356433642033E+02   -0.42655E-09   -0.26264E-08    48   0.809E-05    0.398E-06
DAV:   5    -0.356433642033E+02   -0.31150E-10   -0.26223E-08    48   0.412E-05    0.361E-06
DAV:   6    -0.356433642036E+02   -0.27285E-09   -0.26244E-08    48   0.242E-05
 103 F= -.35643364E+02 E0= -.35643364E+02  d E =-.323066E-07
       N       E                     dE             d eps       ncg     rms          rms(c)
DAV:   1    -0.356433642682E+02   -0.64891E-07   -0.54922E-07    48   0.666E-03    0.144E-04
DAV:   2    -0.356433642704E+02   -0.22758E-08   -0.51772E-08    48   0.161E-03    0.916E-05
DAV:   3    -0.356433642713E+02   -0.86447E-09   -0.29324E-08    48   0.476E-04    0.459E-05
DAV:   4    -0.356433642714E+02   -0.56616E-10   -0.27156E-08    48   0.223E-04    0.117E-05
DAV:   5    -0.356433642713E+02    0.90040E-10   -0.26642E-08    48   0.111E-04    0.104E-05
DAV:   6    -0.356433642712E+02    0.52978E-10   -0.26541E-08    48   0.632E-05
 104 F= -.35643364E+02 E0= -.35643364E+02  d E =-.676721E-07
       N       E                     dE             d eps       ncg     rms          rms(c)
DAV:   1    -0.356433643798E+02   -0.10854E-06   -0.21595E-06    48   0.134E-02    0.295E-04
DAV:   2    -0.356433643885E+02   -0.87134E-08   -0.13056E-07    48   0.324E-03    0.187E-04
DAV:   3    -0.356433643909E+02   -0.23749E-08   -0.38768E-08    48   0.962E-04    0.915E-05
DAV:   4    -0.356433643914E+02   -0.46475E-09   -0.29621E-08    48   0.451E-04    0.241E-05
DAV:   5    -0.356433643913E+02    0.27512E-10   -0.27585E-08    48   0.224E-04    0.210E-05
DAV:   6    -0.356433643910E+02    0.37949E-09   -0.26889E-08    48   0.128E-04
 105 F= -.35643364E+02 E0= -.35643364E+02  d E =-.119736E-06
       N       E                     dE             d eps       ncg     rms          rms(c)
DAV:   1    -0.356433645437E+02   -0.15233E-06   -0.63549E-06    48   0.231E-02    0.514E-04
DAV:   2    -0.356433645690E+02   -0.25282E-07   -0.33558E-07    48   0.557E-03    0.324E-04
DAV:   3    -0.356433645753E+02   -0.63822E-08   -0.63073E-08    48   0.165E-03    0.156E-04
DAV:   4    -0.356433645765E+02   -0.11839E-08   -0.35769E-08    48   0.776E-04    0.417E-05
DAV:   5    -0.356433645766E+02   -0.11232E-09   -0.29701E-08    48   0.386E-04    0.360E-05
DAV:   6    -0.356433645767E+02   -0.82537E-10   -0.27664E-08    48   0.222E-04
 106 F= -.35643365E+02 E0= -.35643365E+02  d E =-.185751E-06
       N       E                     dE             d eps       ncg     rms          rms(c)
DAV:   1    -0.356433647555E+02   -0.17883E-06   -0.15211E-05    48   0.357E-02    0.802E-04
DAV:   2    -0.356433648147E+02   -0.59233E-07   -0.76898E-07    48   0.863E-03    0.503E-04
DAV:   3    -0.356433648302E+02   -0.15528E-07   -0.11445E-07    48   0.256E-03    0.240E-04
DAV:   4    -0.356433648333E+02   -0.31100E-08   -0.48767E-08    48   0.120E-03    0.646E-05
DAV:   5    -0.356433648339E+02   -0.53478E-09   -0.34072E-08    48   0.598E-04    0.555E-05
DAV:   6    -0.356433648338E+02    0.75033E-10   -0.29152E-08    48   0.344E-04
 107 F= -.35643365E+02 E0= -.35643365E+02  d E =-.257078E-06
       N       E                     dE             d eps       ncg     rms          rms(c)
DAV:   1    -0.356433650178E+02   -0.18398E-06   -0.27774E-05    48   0.482E-02    0.109E-03
DAV:   2    -0.356433651255E+02   -0.10767E-06   -0.13852E-06    48   0.117E-02    0.681E-04
DAV:   3    -0.356433651531E+02   -0.27603E-07   -0.18787E-07    48   0.346E-03    0.323E-04
DAV:   4    -0.356433651594E+02   -0.62830E-08   -0.67418E-08    48   0.162E-03    0.874E-05
DAV:   5    -0.356433651605E+02   -0.11330E-08   -0.40419E-08    48   0.811E-04    0.749E-05
DAV:   6    -0.356433651608E+02   -0.22487E-09   -0.31307E-08    48   0.467E-04
 108 F= -.35643365E+02 E0= -.35643365E+02  d E =-.326967E-06
       N       E                     dE             d eps       ncg     rms          rms(c)
DAV:   1    -0.356433653358E+02   -0.17526E-06   -0.55277E-05    48   0.680E-02    0.154E-03
DAV:   2    -0.356433655501E+02   -0.21429E-06   -0.27306E-06    48   0.164E-02    0.962E-04
DAV:   3    -0.356433656033E+02   -0.53186E-07   -0.34716E-07    48   0.488E-03    0.456E-04
DAV:   4    -0.356433656161E+02   -0.12804E-07   -0.10762E-07    48   0.229E-03    0.123E-04
DAV:   5    -0.356433656184E+02   -0.23226E-08   -0.53957E-08    48   0.114E-03    0.105E-04
DAV:   6    -0.356433656189E+02   -0.49113E-09   -0.35909E-08    48   0.658E-04
 109 F= -.35643366E+02 E0= -.35643366E+02  d E =-.458128E-06
       N       E                     dE             d eps       ncg     rms          rms(c)
DAV:   1    -0.356433657404E+02   -0.12199E-06   -0.10243E-04    64   0.925E-02    0.209E-03
DAV:   2    -0.356433661368E+02   -0.39638E-06   -0.50414E-06    48   0.224E-02    0.131E-03
DAV:   3    -0.356433662347E+02   -0.97954E-07   -0.62092E-07    48   0.665E-03    0.619E-04
DAV:   4    -0.356433662584E+02   -0.23673E-07   -0.17675E-07    48   0.312E-03    0.167E-04
DAV:   5    -0.356433662631E+02   -0.47391E-08   -0.77162E-08    48   0.156E-03    0.143E-04
DAV:   6    -0.356433662640E+02   -0.86743E-09   -0.43664E-08    48   0.896E-04
 110 F= -.35643366E+02 E0= -.35643366E+02  d E =-.645107E-06
       N       E                     dE             d eps       ncg     rms          rms(c)
DAV:   1    -0.356433670962E+02   -0.83312E-06   -0.18908E-04    96   0.123E-01    0.289E-03
DAV:   2    -0.356433670869E+02    0.93311E-08   -0.20868E-06    48   0.125E-02    0.183E-03
DAV:   3    -0.356433671577E+02   -0.70793E-07   -0.35039E-07    48   0.522E-03    0.474E-04
DAV:   4    -0.356433671772E+02   -0.19526E-07   -0.11260E-07    48   0.238E-03    0.203E-04
DAV:   5    -0.356433671845E+02   -0.72914E-08   -0.51750E-08    48   0.116E-03    0.779E-05
DAV:   6    -0.356433671916E+02   -0.71074E-08   -0.36459E-08    48   0.647E-04
 111 F= -.35643367E+02 E0= -.35643367E+02  d E =-.927638E-06
       N       E                     dE             d eps       ncg     rms          rms(c)
DAV:   1    -0.356433681746E+02   -0.99008E-06   -0.32142E-04    96   0.160E-01    0.377E-03
DAV:   2    -0.356433681700E+02    0.46435E-08   -0.34991E-06    48   0.162E-02    0.239E-03
DAV:   3    -0.356433682916E+02   -0.12166E-06   -0.56309E-07    48   0.675E-03    0.620E-04
DAV:   4    -0.356433683253E+02   -0.33698E-07   -0.16647E-07    48   0.305E-03    0.260E-04
DAV:   5    -0.356433683376E+02   -0.12235E-07   -0.66044E-08    48   0.148E-03    0.102E-04
DAV:   6    -0.356433683486E+02   -0.11024E-07   -0.41394E-08    48   0.821E-04
 112 F= -.35643368E+02 E0= -.35643368E+02  d E =-.115695E-05
       N       E                     dE             d eps       ncg     rms          rms(c)
DAV:   1    -0.356433698007E+02   -0.14632E-05   -0.53057E-04    96   0.206E-01    0.484E-03
DAV:   2    -0.356433697928E+02    0.79120E-08   -0.57597E-06    48   0.208E-02    0.307E-03
DAV:   3    -0.356433700018E+02   -0.20893E-06   -0.91001E-07    48   0.866E-03    0.797E-04
DAV:   4    -0.356433700546E+02   -0.52812E-07   -0.25604E-07    48   0.392E-03    0.331E-04
DAV:   5    -0.356433700721E+02   -0.17545E-07   -0.90599E-08    48   0.190E-03    0.129E-04
DAV:   6    -0.356433700878E+02   -0.15693E-07   -0.49958E-08    48   0.105E-03
 113 F= -.35643370E+02 E0= -.35643370E+02  d E =-.173922E-05
       N       E                     dE             d eps       ncg     rms          rms(c)
DAV:   1    -0.356433717522E+02   -0.16801E-05   -0.85339E-04    96   0.261E-01    0.614E-03
DAV:   2    -0.356433717555E+02   -0.33094E-08   -0.92502E-06    48   0.264E-02    0.390E-03
DAV:   3    -0.356433720806E+02   -0.32505E-06   -0.14450E-06    64   0.110E-02    0.101E-03
DAV:   4    -0.356433721674E+02   -0.86776E-07   -0.39434E-07    48   0.496E-03    0.417E-04
DAV:   5    -0.356433721958E+02   -0.28486E-07   -0.12850E-07    48   0.241E-03    0.161E-04
DAV:   6    -0.356433722188E+02   -0.22946E-07   -0.63069E-08    48   0.133E-03
 114 F= -.35643372E+02 E0= -.35643372E+02  d E =-.213099E-05
       N       E                     dE             d eps       ncg     rms          rms(c)
DAV:   1    -0.356433742966E+02   -0.21007E-05   -0.13414E-03    96   0.327E-01    0.770E-03
DAV:   2    -0.356433743425E+02   -0.45961E-07   -0.14524E-05    64   0.331E-02    0.489E-03
DAV:   3    -0.356433748316E+02   -0.48907E-06   -0.22522E-06    48   0.137E-02    0.126E-03
DAV:   4    -0.356433749671E+02   -0.13551E-06   -0.60334E-07    48   0.621E-03    0.518E-04
DAV:   5    -0.356433750123E+02   -0.45155E-07   -0.18578E-07    48   0.301E-03    0.199E-04
DAV:   6    -0.356433750464E+02   -0.34181E-07   -0.82722E-08    48   0.166E-03
 115 F= -.35643375E+02 E0= -.35643375E+02  d E =-.282765E-05
       N       E                     dE             d eps       ncg     rms          rms(c)
DAV:   1    -0.356433772886E+02   -0.22764E-05   -0.20638E-03    96   0.405E-01    0.956E-03
DAV:   2    -0.356433773813E+02   -0.92673E-07   -0.22320E-05    64   0.409E-02    0.606E-03
DAV:   3    -0.356433781343E+02   -0.75301E-06   -0.34461E-06    48   0.170E-02    0.157E-03
DAV:   4    -0.356433783436E+02   -0.20932E-06   -0.91283E-07    48   0.769E-03    0.634E-04
DAV:   5    -0.356433784142E+02   -0.70594E-07   -0.27065E-07    48   0.372E-03    0.242E-04
DAV:   6    -0.356433784648E+02   -0.50532E-07   -0.11227E-07    48   0.205E-03
 116 F= -.35643378E+02 E0= -.35643378E+02  d E =-.341833E-05
       N       E                     dE             d eps       ncg     rms          rms(c)
DAV:   1    -0.356433803253E+02   -0.19110E-05   -0.31073E-03    96   0.497E-01    0.117E-02
DAV:   2    -0.356433804617E+02   -0.13647E-06   -0.33556E-05    64   0.501E-02    0.744E-03
DAV:   3    -0.356433816196E+02   -0.11579E-05   -0.51666E-06    64   0.209E-02    0.192E-03
DAV:   4    -0.356433819428E+02   -0.32319E-06   -0.13600E-06    48   0.942E-03    0.769E-04
DAV:   5    -0.356433820491E+02   -0.10630E-06   -0.39362E-07    48   0.454E-03    0.292E-04
DAV:   6    -0.356433821226E+02   -0.73469E-07   -0.15546E-07    48   0.251E-03
 117 F= -.35643382E+02 E0= -.35643382E+02  d E =-.365782E-05
       N       E                     dE             d eps       ncg     rms          rms(c)
DAV:   1    -0.356433839832E+02   -0.19340E-05   -0.45737E-03    96   0.602E-01    0.142E-02
DAV:   2    -0.356433841136E+02   -0.13045E-06   -0.49322E-05    64   0.607E-02    0.902E-03
DAV:   3    -0.356433859233E+02   -0.18097E-05   -0.75805E-06    64   0.253E-02    0.232E-03
DAV:   4    -0.356433863878E+02   -0.46445E-06   -0.19866E-06    48   0.114E-02    0.922E-04
DAV:   5    -0.356433865472E+02   -0.15944E-06   -0.56657E-07    48   0.548E-03    0.346E-04
DAV:   6    -0.356433866542E+02   -0.10696E-06   -0.21661E-07    48   0.302E-03
 118 F= -.35643387E+02 E0= -.35643387E+02  d E =-.453160E-05
       N       E                     dE             d eps       ncg     rms          rms(c)
DAV:   1    -0.356433881639E+02   -0.16167E-05   -0.65695E-03    96   0.721E-01    0.170E-02
DAV:   2    -0.356433881364E+02    0.27470E-07   -0.70780E-05    64   0.725E-02    0.108E-02
DAV:   3    -0.356433909601E+02   -0.28237E-05   -0.10862E-05    64   0.302E-02    0.277E-03
DAV:   4    -0.356433916252E+02   -0.66506E-06   -0.28397E-06    48   0.136E-02    0.110E-03
DAV:   5    -0.356433918568E+02   -0.23159E-06   -0.80206E-07    48   0.653E-03    0.408E-04
DAV:   6    -0.356433920032E+02   -0.14642E-06   -0.30046E-07    48   0.360E-03
 119 F= -.35643392E+02 E0= -.35643392E+02  d E =-.534901E-05
       N       E                     dE             d eps       ncg     rms          rms(c)
DAV:   1    -0.356433935441E+02   -0.16874E-05   -0.91782E-03    96   0.851E-01    0.201E-02
DAV:   2    -0.356433933283E+02    0.21585E-06   -0.98879E-05    64   0.856E-02    0.128E-02
DAV:   3    -0.356433975280E+02   -0.41997E-05   -0.15158E-05    64   0.356E-02    0.326E-03
DAV:   4    -0.356433984684E+02   -0.94033E-06   -0.39595E-06    48   0.160E-02    0.130E-03
DAV:   5    -0.356433987973E+02   -0.32894E-06   -0.11117E-06    48   0.767E-03    0.482E-04
DAV:   6    -0.356433989973E+02   -0.20002E-06   -0.41124E-07    48   0.424E-03
 120 F= -.35643399E+02 E0= -.35643399E+02  d E =-.699412E-05
       N       E                     dE             d eps       ncg     rms          rms(c)
DAV:   1    -0.356434004873E+02   -0.16900E-05   -0.12411E-02    96   0.988E-01    0.234E-02
DAV:   2    -0.356434001766E+02    0.31067E-06   -0.13377E-04    64   0.994E-02    0.149E-02
DAV:   3    -0.356434058852E+02   -0.57086E-05   -0.20498E-05    64   0.414E-02    0.379E-03
DAV:   4    -0.356434072267E+02   -0.13414E-05   -0.53580E-06    48   0.186E-02    0.152E-03
DAV:   5    -0.356434076884E+02   -0.46168E-06   -0.15004E-06    48   0.889E-03    0.566E-04
DAV:   6    -0.356434079572E+02   -0.26879E-06   -0.55061E-07    48   0.492E-03
 121 F= -.35643408E+02 E0= -.35643408E+02  d E =-.895986E-05
       N       E                     dE             d eps       ncg     rms          rms(c)
DAV:   1    -0.356434092718E+02   -0.15834E-05   -0.16099E-02    96   0.112E+00    0.267E-02
DAV:   2    -0.356434121618E+02   -0.28899E-05   -0.20155E-04    96   0.113E-01    0.177E-02
DAV:   3    -0.356434155524E+02   -0.33907E-05   -0.86675E-06    64   0.311E-02    0.525E-03
DAV:   4    -0.356434180578E+02   -0.25053E-05   -0.40743E-06    48   0.165E-02    0.217E-03
DAV:   5    -0.356434185606E+02   -0.50281E-06   -0.73489E-07    48   0.740E-03    0.595E-04
DAV:   6    -0.356434188566E+02   -0.29601E-06   -0.15879E-07    48   0.293E-03
 122 F= -.35643419E+02 E0= -.35643419E+02  d E =-.108994E-04
       N       E                     dE             d eps       ncg     rms          rms(c)
DAV:   1    -0.356434175734E+02    0.98720E-06   -0.19495E-02    96   0.124E+00    0.294E-02
DAV:   2    -0.356434219606E+02   -0.43872E-05   -0.24282E-04    96   0.124E-01    0.194E-02
DAV:   3    -0.356434251424E+02   -0.31819E-05   -0.10500E-05    64   0.340E-02    0.581E-03
DAV:   4    -0.356434281802E+02   -0.30378E-05   -0.48971E-06    48   0.182E-02    0.239E-03
DAV:   5    -0.356434288900E+02   -0.70977E-06   -0.89573E-07    48   0.816E-03    0.694E-04
DAV:   6    -0.356434292965E+02   -0.40644E-06   -0.19666E-07    48   0.328E-03
 123 F= -.35643429E+02 E0= -.35643429E+02  d E =-.104399E-04
       N       E                     dE             d eps       ncg     rms          rms(c)
DAV:   1    -0.356434298356E+02   -0.94556E-06   -0.36506E-07    48   0.514E-03    0.245E-04
DAV:   2    -0.356434300957E+02   -0.26012E-06   -0.59340E-08    48   0.155E-03    0.175E-04
DAV:   3    -0.356434306439E+02   -0.54823E-06   -0.44729E-08    48   0.822E-04    0.592E-05
DAV:   4    -0.356434309257E+02   -0.28176E-06   -0.31612E-08    48   0.522E-04    0.486E-05
DAV:   5    -0.356434315446E+02   -0.61896E-06   -0.46345E-08    92   0.566E-04    0.303E-05
DAV:   6    -0.356434319413E+02   -0.39670E-06   -0.39545E-08    72   0.502E-04
 124 F= -.35643432E+02 E0= -.35643432E+02  d E =-.264490E-05
       N       E                     dE             d eps       ncg     rms          rms(c)
DAV:   1    -0.356434321721E+02   -0.62747E-06   -0.91907E-07    88   0.874E-03    0.232E-04
DAV:   2    -0.356434322159E+02   -0.43752E-07   -0.66388E-08    48   0.204E-03    0.138E-04
DAV:   3    -0.356434322697E+02   -0.53790E-07   -0.29535E-08    48   0.648E-04    0.599E-05
DAV:   4    -0.356434323179E+02   -0.48281E-07   -0.25927E-08    48   0.320E-04    0.213E-05
DAV:   5    -0.356434323494E+02   -0.31429E-07   -0.25327E-08    48   0.167E-04    0.122E-05
DAV:   6    -0.356434323819E+02   -0.32580E-07   -0.25412E-08    52   0.109E-04
 125 F= -.35643432E+02 E0= -.35643432E+02  d E =-.440595E-06
       N       E                     dE             d eps       ncg     rms          rms(c)
DAV:   1    -0.356434325198E+02   -0.17043E-06   -0.13492E-06    48   0.108E-02    0.292E-04
DAV:   2    -0.356434325308E+02   -0.11021E-07   -0.83841E-08    48   0.246E-03    0.168E-04
DAV:   3    -0.356434325427E+02   -0.11833E-07   -0.33017E-08    48   0.768E-04    0.719E-05
DAV:   4    -0.356434325517E+02   -0.90276E-08   -0.27480E-08    48   0.361E-04    0.275E-05
DAV:   5    -0.356434325577E+02   -0.59812E-08   -0.26369E-08    48   0.180E-04    0.144E-05
DAV:   6    -0.356434325632E+02   -0.55504E-08   -0.26088E-08    48   0.108E-04
 126 F= -.35643433E+02 E0= -.35643433E+02  d E =-.181269E-06
       N       E                     dE             d eps       ncg     rms          rms(c)
DAV:   1    -0.356434327528E+02   -0.19518E-06   -0.13715E-06    48   0.113E-02    0.301E-04
DAV:   2    -0.356434327575E+02   -0.46412E-08   -0.80601E-08    48   0.243E-03    0.169E-04
DAV:   3    -0.356434327610E+02   -0.35104E-08   -0.33043E-08    48   0.781E-04    0.679E-05
DAV:   4    -0.356434327623E+02   -0.13326E-08   -0.27715E-08    48   0.353E-04    0.286E-05
DAV:   5    -0.356434327632E+02   -0.89108E-09   -0.26451E-08    48   0.179E-04    0.116E-05
DAV:   6    -0.356434327638E+02   -0.58367E-09   -0.26179E-08    48   0.105E-04
 127 F= -.35643433E+02 E0= -.35643433E+02  d E =-.200587E-06
       N       E                     dE             d eps       ncg     rms          rms(c)
DAV:   1    -0.356434330115E+02   -0.24829E-06   -0.16056E-06    48   0.124E-02    0.300E-04
DAV:   2    -0.356434330171E+02   -0.56111E-08   -0.90092E-08    48   0.270E-03    0.170E-04
DAV:   3    -0.356434330190E+02   -0.19036E-08   -0.34010E-08    48   0.844E-04    0.742E-05
DAV:   4    -0.356434330193E+02   -0.29422E-09   -0.27936E-08    48   0.382E-04    0.278E-05
DAV:   5    -0.356434330190E+02    0.30900E-09   -0.26567E-08    48   0.192E-04    0.137E-05
DAV:   6    -0.356434330189E+02    0.13620E-09   -0.26241E-08    48   0.114E-04
 128 F= -.35643433E+02 E0= -.35643433E+02  d E =-.255065E-06
       N       E                     dE             d eps       ncg     rms          rms(c)
DAV:   1    -0.356434333206E+02   -0.30158E-06   -0.36173E-06    48   0.182E-02    0.386E-04
DAV:   2    -0.356434333354E+02   -0.14866E-07   -0.19166E-07    48   0.425E-03    0.237E-04
DAV:   3    -0.356434333389E+02   -0.34170E-08   -0.45701E-08    48   0.127E-03    0.124E-04
DAV:   4    -0.356434333393E+02   -0.46384E-09   -0.30953E-08    48   0.602E-04    0.327E-05
DAV:   5    -0.356434333390E+02    0.30604E-09   -0.27545E-08    48   0.294E-04    0.263E-05
DAV:   6    -0.356434333387E+02    0.31355E-09   -0.26524E-08    48   0.171E-04
 129 F= -.35643433E+02 E0= -.35643433E+02  d E =-.319843E-06
       N       E                     dE             d eps       ncg     rms          rms(c)
DAV:   1    -0.356434337149E+02   -0.37587E-06   -0.13590E-05    48   0.342E-02    0.716E-04
DAV:   2    -0.356434337696E+02   -0.54694E-07   -0.67934E-07    48   0.824E-03    0.458E-04
DAV:   3    -0.356434337825E+02   -0.12897E-07   -0.10255E-07    48   0.243E-03    0.237E-04
DAV:   4    -0.356434337856E+02   -0.31134E-08   -0.45298E-08    48   0.115E-03    0.580E-05
DAV:   5    -0.356434337853E+02    0.30968E-09   -0.32255E-08    48   0.559E-04    0.527E-05
DAV:   6    -0.356434337850E+02    0.27217E-09   -0.28057E-08    48   0.317E-04
 130 F= -.35643434E+02 E0= -.35643434E+02  d E =-.446310E-06
       N       E                     dE             d eps       ncg     rms          rms(c)
DAV:   1    -0.356434341618E+02   -0.37654E-06   -0.48404E-05    48   0.637E-02    0.137E-03
DAV:   2    -0.356434343492E+02   -0.18732E-06   -0.23772E-06    48   0.154E-02    0.876E-04
DAV:   3    -0.356434343970E+02   -0.47893E-07   -0.30070E-07    48   0.455E-03    0.433E-04
DAV:   4    -0.356434344088E+02   -0.11717E-07   -0.95001E-08    48   0.212E-03    0.109E-04
DAV:   5    -0.356434344100E+02   -0.12190E-08   -0.49015E-08    48   0.104E-03    0.987E-05
DAV:   6    -0.356434344097E+02    0.26466E-09   -0.33548E-08    48   0.589E-04
 131 F= -.35643434E+02 E0= -.35643434E+02  d E =-.624698E-06
       N       E                     dE             d eps       ncg     rms          rms(c)
DAV:   1    -0.356434351701E+02   -0.76009E-06   -0.14525E-04    96   0.107E-01    0.247E-03
DAV:   2    -0.356434351544E+02    0.15672E-07   -0.16027E-06    48   0.108E-02    0.157E-03
DAV:   3    -0.356434352258E+02   -0.71364E-07   -0.26739E-07    48   0.449E-03    0.422E-04
DAV:   4    -0.356434352408E+02   -0.15068E-07   -0.91219E-08    48   0.205E-03    0.178E-04
DAV:   5    -0.356434352442E+02   -0.33374E-08   -0.44869E-08    48   0.989E-04    0.650E-05
DAV:   6    -0.356434352473E+02   -0.31530E-08   -0.33202E-08    48   0.541E-04
 132 F= -.35643435E+02 E0= -.35643435E+02  d E =-.837602E-06
       N       E                     dE             d eps       ncg     rms          rms(c)
DAV:   1    -0.356434361385E+02   -0.89437E-06   -0.36790E-04    96   0.170E-01    0.395E-03
DAV:   2    -0.356434360291E+02    0.10946E-06   -0.39852E-06    48   0.172E-02    0.252E-03
DAV:   3    -0.356434362738E+02   -0.24476E-06   -0.62933E-07    52   0.713E-03    0.663E-04
DAV:   4    -0.356434363141E+02   -0.40248E-07   -0.18591E-07    48   0.323E-03    0.278E-04
DAV:   5    -0.356434363243E+02   -0.10204E-07   -0.71004E-08    48   0.154E-03    0.104E-04
DAV:   6    -0.356434363328E+02   -0.85222E-08   -0.42664E-08    48   0.845E-04
 133 F= -.35643436E+02 E0= -.35643436E+02  d E =-.108548E-05
       N       E                     dE             d eps       ncg     rms          rms(c)
DAV:   1    -0.356434371892E+02   -0.86490E-06   -0.86097E-04    96   0.260E-01    0.608E-03
DAV:   2    -0.356434369161E+02    0.27311E-06   -0.92937E-06    64   0.263E-02    0.387E-03
DAV:   3    -0.356434375024E+02   -0.58628E-06   -0.14435E-06    48   0.110E-02    0.100E-03
DAV:   4    -0.356434376046E+02   -0.10222E-06   -0.39802E-07    48   0.494E-03    0.420E-04
DAV:   5    -0.356434376306E+02   -0.25987E-07   -0.12941E-07    48   0.235E-03    0.157E-04
DAV:   6    -0.356434376480E+02   -0.17407E-07   -0.63040E-08    48   0.129E-03
 134 F= -.35643438E+02 E0= -.35643438E+02  d E =-.131517E-05
       N       E                     dE             d eps       ncg     rms          rms(c)
DAV:   1    -0.356434381326E+02   -0.50208E-06   -0.19052E-03    96   0.387E-01    0.908E-03
DAV:   2    -0.356434378264E+02    0.30620E-06   -0.20526E-05    64   0.391E-02    0.578E-03
DAV:   3    -0.356434388236E+02   -0.99714E-06   -0.31552E-06    64   0.163E-02    0.148E-03
DAV:   4    -0.356434390862E+02   -0.26259E-06   -0.84758E-07    48   0.736E-03    0.615E-04
DAV:   5    -0.356434391545E+02   -0.68349E-07   -0.25224E-07    48   0.350E-03    0.229E-04
DAV:   6    -0.356434391916E+02   -0.37076E-07   -0.10554E-07    48   0.192E-03
 135 F= -.35643439E+02 E0= -.35643439E+02  d E =-.154361E-05
