 vasp.5.4.1 24Jun15 (build Jan 13 2020 12:58:22) complex                        
  
 executed on           IFC91_ompi date 2020.02.03  09:53:44
 running on   15 total cores
 each image running on    1 cores
 distrk:  each k-point on    1 cores,    1 groups
 distr:  one band on NCORES_PER_BAND=   1 cores,    1 groups


--------------------------------------------------------------------------------------------------------


 INCAR:
 POTCAR:    PAW_PBE H 15Jun2001                   
 POTCAR:    PAW_PBE C 08Apr2002                   
 POTCAR:    PAW_PBE N 08Apr2002                   
 POTCAR:    PAW_PBE H 15Jun2001                   
   VRHFIN =H: ultrasoft test                                                    
   LEXCH  = PE                                                                  
   EATOM  =    12.4884 eV,    0.9179 Ry                                         
                                                                                
   TITEL  = PAW_PBE H 15Jun2001                                                 
   LULTRA =        F    use ultrasoft PP ?                                      
   IUNSCR =        0    unscreen: 0-lin 1-nonlin 2-no                           
   RPACOR =    0.000    partial core radius                                     
   POMASS =    1.000; ZVAL   =    1.000    mass and valenz                      
   RCORE  =    1.100    outmost cutoff radius                                   
   RWIGS  =    0.700; RWIGS  =    0.370    wigner-seitz radius (au A)           
   ENMAX  =  250.000; ENMIN  =  200.000 eV                                      
   RCLOC  =    0.701    cutoff for local pot                                    
   LCOR   =        T    correct aug charges                                     
   LPAW   =        T    paw PP                                                  
   EAUG   =  400.000                                                            
   RMAX   =    1.123    core radius for proj-oper                               
   RAUG   =    1.200    factor for augmentation sphere                          
   RDEP   =    1.112    radius for radial grids                                 
   RDEPT  =    0.926    core radius for aug-charge                              
                                                                                
   Atomic configuration                                                         
    2 entries                                                                   
     n  l   j            E        occ.                                          
     1  0  0.50        -6.4927   1.0000                                         
     2  1  0.50        -3.4015   0.0000                                         
   Description                                                                  
     l       E           TYP  RCUT    TYP  RCUT                                 
     0     -6.4927494     23  1.100                                             
     0      6.8029130     23  1.100                                             
     1     -4.0817478     23  1.100                                             
  local pseudopotential read in
  atomic valenz-charges read in
  non local Contribution for L=           0  read in
    real space projection operators read in
  non local Contribution for L=           0  read in
    real space projection operators read in
  non local Contribution for L=           1  read in
    real space projection operators read in
    PAW grid and wavefunctions read in
 
   number of l-projection  operators is LMAX  =           3
   number of lm-projection operators is LMMAX =           5
 
 POTCAR:    PAW_PBE C 08Apr2002                   
   VRHFIN =C: s2p2                                                              
   LEXCH  = PE                                                                  
   EATOM  =   147.1560 eV,   10.8157 Ry                                         
                                                                                
   TITEL  = PAW_PBE C 08Apr2002                                                 
   LULTRA =        F    use ultrasoft PP ?                                      
   IUNSCR =        1    unscreen: 0-lin 1-nonlin 2-no                           
   RPACOR =    1.200    partial core radius                                     
   POMASS =   12.011; ZVAL   =    4.000    mass and valenz                      
   RCORE  =    1.500    outmost cutoff radius                                   
   RWIGS  =    1.630; RWIGS  =    0.863    wigner-seitz radius (au A)           
   ENMAX  =  400.000; ENMIN  =  300.000 eV                                      
   ICORE  =        2    local potential                                         
   LCOR   =        T    correct aug charges                                     
   LPAW   =        T    paw PP                                                  
   EAUG   =  644.873                                                            
   DEXC   =    0.000                                                            
   RMAX   =    1.529    core radius for proj-oper                               
   RAUG   =    1.300    factor for augmentation sphere                          
   RDEP   =    1.501    radius for radial grids                                 
   RDEPT  =    1.300    core radius for aug-charge                              
                                                                                
   Atomic configuration                                                         
    4 entries                                                                   
     n  l   j            E        occ.                                          
     1  0  0.50      -273.3789   2.0000                                         
     2  0  0.50       -13.7508   2.0000                                         
     2  1  0.50        -5.2854   2.0000                                         
     3  2  1.50        -5.4423   0.0000                                         
   Description                                                                  
     l       E           TYP  RCUT    TYP  RCUT                                 
     0    -13.7508458     23  1.200                                             
     0     -8.2022199     23  1.200                                             
     1     -5.2854383     23  1.500                                             
     1     34.0145650     23  1.500                                             
     2     -5.4423304      7  1.500                                             
  local pseudopotential read in
  partial core-charges read in
  partial kinetic energy density read in
  atomic valenz-charges read in
  non local Contribution for L=           0  read in
    real space projection operators read in
  non local Contribution for L=           0  read in
    real space projection operators read in
  non local Contribution for L=           1  read in
    real space projection operators read in
  non local Contribution for L=           1  read in
    real space projection operators read in
    PAW grid and wavefunctions read in
 
   number of l-projection  operators is LMAX  =           4
   number of lm-projection operators is LMMAX =           8
 
 POTCAR:    PAW_PBE N 08Apr2002                   
   VRHFIN =N: s2p3                                                              
   LEXCH  = PE                                                                  
   EATOM  =   264.5486 eV,   19.4438 Ry                                         
                                                                                
   TITEL  = PAW_PBE N 08Apr2002                                                 
   LULTRA =        F    use ultrasoft PP ?                                      
   IUNSCR =        1    unscreen: 0-lin 1-nonlin 2-no                           
   RPACOR =    1.200    partial core radius                                     
   POMASS =   14.001; ZVAL   =    5.000    mass and valenz                      
   RCORE  =    1.500    outmost cutoff radius                                   
   RWIGS  =    1.400; RWIGS  =    0.741    wigner-seitz radius (au A)           
   ENMAX  =  400.000; ENMIN  =  300.000 eV                                      
   ICORE  =        2    local potential                                         
   LCOR   =        T    correct aug charges                                     
   LPAW   =        T    paw PP                                                  
   EAUG   =  627.112                                                            
   DEXC   =    0.000                                                            
   RMAX   =    1.529    core radius for proj-oper                               
   RAUG   =    1.300    factor for augmentation sphere                          
   RDEP   =    1.514    radius for radial grids                                 
   RDEPT  =    1.338    core radius for aug-charge                              
                                                                                
   Atomic configuration                                                         
    4 entries                                                                   
     n  l   j            E        occ.                                          
     1  0  0.50      -384.7179   2.0000                                         
     2  0  0.50       -18.5828   2.0000                                         
     2  1  0.50        -7.0898   3.0000                                         
     3  2  1.50        -6.8029   0.0000                                         
   Description                                                                  
     l       E           TYP  RCUT    TYP  RCUT                                 
     0    -18.5828119     23  1.200                                             
     0    -13.5018863     23  1.200                                             
     1     -7.0897853     23  1.500                                             
     1      9.5240782     23  1.500                                             
     2     -6.8029130      7  1.500                                             
  local pseudopotential read in
  partial core-charges read in
  partial kinetic energy density read in
  atomic valenz-charges read in
  non local Contribution for L=           0  read in
    real space projection operators read in
  non local Contribution for L=           0  read in
    real space projection operators read in
  non local Contribution for L=           1  read in
    real space projection operators read in
  non local Contribution for L=           1  read in
    real space projection operators read in
    PAW grid and wavefunctions read in
 
   number of l-projection  operators is LMAX  =           4
   number of lm-projection operators is LMMAX =           8
 

 ----------------------------------------------------------------------------- 
|                                                                             |
|  ADVICE TO THIS USER RUNNING 'VASP/VAMP'   (HEAR YOUR MASTER'S VOICE ...):  |
|                                                                             |
|      You have a (more or less) 'small supercell' and for smaller cells      |
|      it is recommended  to use the reciprocal-space projection scheme!      |
|      The real space optimization is not  efficient for small cells and it   |
|      is also less accurate ...                                              |
|      Therefore set LREAL=.FALSE. in the  INCAR file                         |
|                                                                             |
 ----------------------------------------------------------------------------- 

 Optimization of the real space projectors (new method)

 maximal supplied QI-value         = 34.20
 optimisation between [QCUT,QGAM] = [  9.92, 20.18] = [ 27.55,114.04] Ry 
 Optimized for a Real-space Cutoff    1.26 Angstroem

   l    n(q)    QCUT    max X(q) W(low)/X(q) W(high)/X(q)  e(spline) 
   0      8     9.919    19.460    0.50E-03    0.23E-03    0.29E-06
   0      8     9.919    12.209    0.48E-03    0.23E-03    0.28E-06
   1      7     9.919     4.655    0.17E-03    0.75E-03    0.30E-06
 Optimization of the real space projectors (new method)

 maximal supplied QI-value         = 25.13
 optimisation between [QCUT,QGAM] = [ 10.05, 20.36] = [ 28.30,116.06] Ry 
 Optimized for a Real-space Cutoff    1.30 Angstroem

   l    n(q)    QCUT    max X(q) W(low)/X(q) W(high)/X(q)  e(spline) 
   0      8    10.053   115.676    0.49E-03    0.72E-03    0.18E-06
   0      8    10.053    87.132    0.49E-03    0.71E-03    0.18E-06
   1      7    10.053     4.429    0.32E-03    0.31E-03    0.18E-06
   1      7    10.053     2.733    0.23E-03    0.19E-03    0.20E-06
 Optimization of the real space projectors (new method)

 maximal supplied QI-value         = 25.13
 optimisation between [QCUT,QGAM] = [ 10.05, 20.36] = [ 28.30,116.06] Ry 
 Optimized for a Real-space Cutoff    1.65 Angstroem

   l    n(q)    QCUT    max X(q) W(low)/X(q) W(high)/X(q)  e(spline) 
   0     10    10.053    79.467    0.76E-04    0.72E-04    0.56E-06
   0     10    10.053    66.151    0.76E-04    0.72E-04    0.55E-06
   1     10    10.053     8.350    0.25E-03    0.92E-03    0.41E-05
   1     10    10.053     5.531    0.27E-03    0.10E-02    0.45E-05
  PAW_PBE H 15Jun2001                   :
 energy of atom  1       EATOM=  -12.4884
 kinetic energy error for atom=    0.0098 (will be added to EATOM!!)
  PAW_PBE C 08Apr2002                   :
 energy of atom  2       EATOM= -147.1560
 kinetic energy error for atom=    0.0288 (will be added to EATOM!!)
  PAW_PBE N 08Apr2002                   :
 energy of atom  3       EATOM= -264.5486
 kinetic energy error for atom=    0.0736 (will be added to EATOM!!)
 
 
 POSCAR: H3 C2 N1                                
  positions in direct lattice
  velocities in cartesian coordinates
 exchange correlation table for  LEXCH =        8
   RHO(1)=    0.500       N(1)  =     2000
   RHO(2)=  100.500       N(2)  =     4000

 VTST: version 3.2, (02/03/18)

 CHAIN: initializing optimizer
 
 OPT: Using FIRE optimizer
 OPT: FIRE, Init
 OPT: FIRE, MAXMOVE       0.20000
 OPT: FIRE, TIMESTEP      0.10000
 OPT: FIRE, FTIMEMAX      1.00000
 OPT: FIRE, FTIMEINC      1.10000
 OPT: FIRE, FTIMEDEC      0.50000
 OPT: FIRE, FALPHADEC     0.99000
 OPT: FIRE, FALPHA        0.10000
 OPT: FIRE, FNMIN         5
 
 CHAIN: Read ICHAIN            0
 CHAIN: Running the NEB
 NEB:          SPRING     -5.000000
 NEB:          LCLIMB      T
 NEB:     LTANGENTOLD      F
 NEB:           LDNEB      F
 NEB:        LDNEBORG      F
 NEB:        LNEBCELL      F
 NEB:          EFIRST      0.000000
 NEB:           ELAST      0.000000
 
 POSCAR: H3 C2 N1                                
  positions in direct lattice
  No initial velocities read in
 
 POSCAR: H3 C2 N1                                
  positions in direct lattice
  No initial velocities read in
 


--------------------------------------------------------------------------------------------------------


 ion  position               nearest neighbor table
   1  0.471  0.469  0.512-   4 1.10
   2  0.467  0.515  0.474-   4 1.10
   3  0.479  0.524  0.532-   4 1.10
   4  0.485  0.502  0.504-   1 1.10   2 1.10   3 1.10   6 1.42
   5  0.568  0.493  0.483-   6 1.18
   6  0.531  0.498  0.494-   5 1.18   4 1.42
 
  LATTYP: Found a simple cubic cell.
 ALAT       =    30.0000000000
  
  Lattice vectors:
  
 A1 = (  30.0000000000,   0.0000000000,   0.0000000000)
 A2 = (   0.0000000000,  30.0000000000,   0.0000000000)
 A3 = (   0.0000000000,   0.0000000000,  30.0000000000)


Analysis of symmetry for initial positions (statically):
=====================================================================
 Subroutine PRICEL returns:
 Original cell was already a primitive cell.
 

 Routine SETGRP: Setting up the symmetry group for a 
 simple cubic supercell.


 Subroutine GETGRP returns: Found  1 space group operations
 (whereof  1 operations were pure point group operations)
 out of a pool of 48 trial point group operations.


The static configuration has the point symmetry C_1 .


Analysis of symmetry for dynamics (positions and initial velocities):
=====================================================================
 Subroutine PRICEL returns:
 Original cell was already a primitive cell.
 

 Routine SETGRP: Setting up the symmetry group for a 
 simple cubic supercell.


 Subroutine GETGRP returns: Found  1 space group operations
 (whereof  1 operations were pure point group operations)
 out of a pool of 48 trial point group operations.


The dynamic configuration has the point symmetry C_1 .
 
 
 KPOINTS: Mo2C                                    

Automatic generation of k-mesh.
Space group operators:
 irot       det(A)        alpha          n_x          n_y          n_z        tau_x        tau_y        tau_z
    1     1.000000     0.000000     1.000000     0.000000     0.000000     0.000000     0.000000     0.000000
 
 Subroutine IBZKPT returns following result:
 ===========================================
 
 Found      4 irreducible k-points:
 
 Following reciprocal coordinates:
            Coordinates               Weight
  0.250000  0.250000  0.250000      2.000000
 -0.250000  0.250000  0.250000      2.000000
  0.250000 -0.250000  0.250000      2.000000
 -0.250000 -0.250000  0.250000      2.000000
 
 Following cartesian coordinates:
            Coordinates               Weight
  0.008333  0.008333  0.008333      2.000000
 -0.008333  0.008333  0.008333      2.000000
  0.008333 -0.008333  0.008333      2.000000
 -0.008333 -0.008333  0.008333      2.000000
 


--------------------------------------------------------------------------------------------------------




 Dimension of arrays:
   k-points           NKPTS =      4   k-points in BZ     NKDIM =      4   number of bands    NBANDS=     12
   number of dos      NEDOS =    301   number of ions     NIONS =      6
   non local maximal  LDIM  =      4   non local SUM 2l+1 LMDIM =      8
   total plane-waves  NPLWV = ******
   max r-space proj   IRMAX =   2395   max aug-charges    IRDMAX=   1738
   dimension x,y,z NGX =   150 NGY =  150 NGZ =  150
   dimension x,y,z NGXF=   300 NGYF=  300 NGZF=  300
   support grid    NGXF=   300 NGYF=  300 NGZF=  300
   ions per type =               3   2   1
 NGX,Y,Z   is equivalent  to a cutoff of   8.31,  8.31,  8.31 a.u.
 NGXF,Y,Z  is equivalent  to a cutoff of  16.62, 16.62, 16.62 a.u.


 I would recommend the setting:
   dimension x,y,z NGX =   147 NGY =  147 NGZ =  147
 SYSTEM =  unknown system                          
 POSCAR =  H3 C2 N1                                

 Startparameter for this run:
   NWRITE =      2    write-flag & timer
   PREC   = normal    normal or accurate (medium, high low for compatibility)
   ISTART =      0    job   : 0-new  1-cont  2-samecut
   ICHARG =      2    charge: 1-file 2-atom 10-const
   ISPIN  =      1    spin polarized calculation?
   LNONCOLLINEAR =      F non collinear calculations
   LSORBIT =      F    spin-orbit coupling
   INIWAV =      1    electr: 0-lowe 1-rand  2-diag
   LASPH  =      F    aspherical Exc in radial PAW
   METAGGA=      F    non-selfconsistent MetaGGA calc.

 Electronic Relaxation 1
   ENCUT  =  400.0 eV  29.40 Ry    5.42 a.u.  48.92 48.92 48.92*2*pi/ulx,y,z
   ENINI  =  400.0     initial cutoff
   ENAUG  =  644.9 eV  augmentation charge cutoff
   NELM   =    500;   NELMIN=  6; NELMDL= -5     # of ELM steps 
   EDIFF  = 0.1E-03   stopping-criterion for ELM
   LREAL  =      T    real-space projection
   NLSPLINE    = F    spline interpolate recip. space projectors
   LCOMPAT=      F    compatible to vasp.4.4
   GGA_COMPAT  = T    GGA compatible to vasp.4.4-vasp.4.6
   LMAXPAW     = -100 max onsite density
   LMAXMIX     =    2 max onsite mixed and CHGCAR
   VOSKOWN=      0    Vosko Wilk Nusair interpolation
   ROPT   =   -0.00050  -0.00050  -0.00050
 Ionic relaxation
   EDIFFG = -.1E+00   stopping-criterion for IOM
   NSW    =    300    number of steps for IOM
   NBLOCK =      1;   KBLOCK =    300    inner block; outer block 
   IBRION =      3    ionic relax: 0-MD 1-quasi-New 2-CG
   NFREE  =      0    steps in history (QN), initial steepest desc. (CG)
   ISIF   =      2    stress and relaxation
   IWAVPR =     11    prediction:  0-non 1-charg 2-wave 3-comb
   ISYM   =      2    0-nonsym 1-usesym 2-fastsym
   LCORR  =      T    Harris-Foulkes like correction to forces

   POTIM  = 0.0000    time-step for ionic-motion
   TEIN   =    0.0    initial temperature
   TEBEG  =    0.0;   TEEND  =   0.0 temperature during run
   SMASS  =   2.00    Nose mass-parameter (am)
   estimated Nose-frequenzy (Omega)   =  0.12E+10 period in steps =  0.00 mass=   0.137E-25a.u.
   SCALEE = 1.0000    scale energy and forces
   NPACO  =    256;   APACO  = 16.0  distance and # of slots for P.C.
   PSTRESS=    0.0 pullay stress

  Mass of Ions in am
   POMASS =   1.00 12.01 14.00
  Ionic Valenz
   ZVAL   =   1.00  4.00  5.00
  Atomic Wigner-Seitz radii
   RWIGS  =  -1.00 -1.00 -1.00
  virtual crystal weights 
   VCA    =   1.00  1.00  1.00
   NELECT =      16.0000    total number of electrons
   NUPDOWN=      -1.0000    fix difference up-down

 DOS related values:
   EMIN   =  10.00;   EMAX   =-10.00  energy-range for DOS
   EFERMI =   0.00
   ISMEAR =     0;   SIGMA  =   0.20  broadening in eV -4-tet -1-fermi 0-gaus

 Electronic relaxation 2 (details)
   IALGO  =     38    algorithm
   LDIAG  =      T    sub-space diagonalisation (order eigenvalues)
   LSUBROT=      F    optimize rotation matrix (better conditioning)
   TURBO    =      0    0=normal 1=particle mesh
   IRESTART =      0    0=no restart 2=restart with 2 vectors
   NREBOOT  =      0    no. of reboots
   NMIN     =      0    reboot dimension
   EREF     =   0.00    reference energy to select bands
   IMIX   =      4    mixing-type and parameters
     AMIX     =   0.40;   BMIX     =  1.00
     AMIX_MAG =   1.60;   BMIX_MAG =  1.00
     AMIN     =   0.10
     WC   =   100.;   INIMIX=   1;  MIXPRE=   1;  MAXMIX= -45

 Intra band minimization:
   WEIMIN = 0.0010     energy-eigenvalue tresh-hold
   EBREAK =  0.21E-05  absolut break condition
   DEPER  =   0.30     relativ break condition  

   TIME   =   0.40     timestep for ELM

  volume/ion in A,a.u.               =    4500.00     30367.50
  Fermi-wavevector in a.u.,A,eV,Ry     =   0.137508  0.259852  0.257264  0.018908
  Thomas-Fermi vector in A             =   0.790710
 
 Write flags
   LWAVE  =      F    write WAVECAR
   LCHARG =      F    write CHGCAR
   LVTOT  =      F    write LOCPOT, total local potential
   LVHAR  =      F    write LOCPOT, Hartree potential only
   LELF   =      F    write electronic localiz. function (ELF)
   LORBIT =      0    0 simple, 1 ext, 2 COOP (PROOUT)


 Dipole corrections
   LMONO  =      F    monopole corrections only (constant potential shift)
   LDIPOL =      F    correct potential (dipole corrections)
   IDIPOL =      0    1-x, 2-y, 3-z, 4-all directions 
   EPSILON=  1.0000000 bulk dielectric constant

 Exchange correlation treatment:
   GGA     =    PE    GGA type
   LEXCH   =     8    internal setting for exchange type
   VOSKOWN=      0    Vosko Wilk Nusair interpolation
   LHFCALC =     F    Hartree Fock is set to
   LHFONE  =     F    Hartree Fock one center treatment
   AEXX    =    0.0000 exact exchange contribution

 Linear response parameters
   LEPSILON=     F    determine dielectric tensor
   LRPA    =     F    only Hartree local field effects (RPA)
   LNABLA  =     F    use nabla operator in PAW spheres
   LVEL    =     F    velocity operator in full k-point grid
   LINTERFAST=   F  fast interpolation
   KINTER  =     0    interpolate to denser k-point grid
   CSHIFT  =0.1000    complex shift for real part using Kramers Kronig
   OMEGAMAX=  -1.0    maximum frequency
   DEG_THRESHOLD= 0.2000000E-02 threshold for treating states as degnerate
   RTIME   =    0.100 relaxation time in fs

 Orbital magnetization related:
   ORBITALMAG=     F  switch on orbital magnetization
   LCHIMAG   =     F  perturbation theory with respect to B field
   DQ        =  0.001000  dq finite difference perturbation B field



--------------------------------------------------------------------------------------------------------


 quickmin algorithm: (dynamic with friction)
 charge density and potential will be updated during run
 non-spin polarized calculation
 Variant of blocked Davidson
 Davidson routine will perform the subspace rotation
 perform sub-space diagonalisation
    after iterative eigenvector-optimisation
 modified Broyden-mixing scheme, WC =      100.0
 initial mixing is a Kerker type mixing with AMIX =  0.4000 and BMIX =      1.0000
 Hartree-type preconditioning will be used
 using additional bands            4
 real space projection scheme for non local part
 use partial core corrections
 calculate Harris-corrections to forces 
   (improved forces if not selfconsistent)
 use gradient corrections 
 use of overlap-Matrix (Vanderbilt PP)
 Gauss-broadening in eV      SIGMA  =   0.20


--------------------------------------------------------------------------------------------------------


  energy-cutoff  :      400.00
  volume of cell :    27000.00
      direct lattice vectors                 reciprocal lattice vectors
    30.000000000  0.000000000  0.000000000     0.033333333  0.000000000  0.000000000
     0.000000000 30.000000000  0.000000000     0.000000000  0.033333333  0.000000000
     0.000000000  0.000000000 30.000000000     0.000000000  0.000000000  0.033333333

  length of vectors
    30.000000000 30.000000000 30.000000000     0.033333333  0.033333333  0.033333333


 
 k-points in units of 2pi/SCALE and weight: Mo2C                                    
   0.00833333  0.00833333  0.00833333       0.250
  -0.00833333  0.00833333  0.00833333       0.250
   0.00833333 -0.00833333  0.00833333       0.250
  -0.00833333 -0.00833333  0.00833333       0.250
 
 k-points in reciprocal lattice and weights: Mo2C                                    
   0.25000000  0.25000000  0.25000000       0.250
  -0.25000000  0.25000000  0.25000000       0.250
   0.25000000 -0.25000000  0.25000000       0.250
  -0.25000000 -0.25000000  0.25000000       0.250
 
 position of ions in fractional coordinates (direct lattice) 
   0.47111284  0.46862494  0.51230006
   0.46691935  0.51450654  0.47446572
   0.47875862  0.52427514  0.53207097
   0.48455159  0.50161402  0.50386399
   0.56810231  0.49310544  0.48318349
   0.53056540  0.49788629  0.49411222
 
 position of ions in cartesian coordinates  (Angst):
  14.13338521 14.05874833 15.36900178
  14.00758059 15.43519630 14.23397153
  14.36275863 15.72825433 15.96212909
  14.53654778 15.04842058 15.11591985
  17.04306922 14.79316318 14.49550464
  15.91696202 14.93658880 14.82336662
 


--------------------------------------------------------------------------------------------------------


 k-point  1 :   0.2500 0.2500 0.2500  plane waves:  490454
 k-point  2 :  -0.2500 0.2500 0.2500  plane waves:  490454
 k-point  3 :   0.2500-0.2500 0.2500  plane waves:  490454
 k-point  4 :  -0.2500-0.2500 0.2500  plane waves:  490454

 maximum and minimum number of plane-waves per node :    490454   490454

 maximum number of plane-waves:    490454
 maximum index in each direction: 
   IXMAX=   49   IYMAX=   49   IZMAX=   48
   IXMIN=  -49   IYMIN=  -49   IZMIN=  -49

 WARNING: aliasing errors must be expected set NGX to 198 to avoid them
 WARNING: aliasing errors must be expected set NGY to 198 to avoid them
 WARNING: aliasing errors must be expected set NGZ to 196 to avoid them
 aliasing errors are usually negligible using standard VASP settings
 and one can safely disregard these warnings

 serial   3D FFT for wavefunctions
 parallel 3D FFT for charge:
    minimum data exchange during FFTs selected (reduces bandwidth)


 total amount of memory used by VASP on root node  3203888. kBytes
========================================================================

   base      :      30000. kBytes
   nonlr-proj:        692. kBytes
   fftplans  :     924480. kBytes
   grid      :    1872000. kBytes
   one-center:         18. kBytes
   wavefun   :     376698. kBytes
 
     INWAV:  cpu time    0.0000: real time    0.0004
 Broyden mixing: mesh for mixing (old mesh)
   NGX = 97   NGY = 97   NGZ = 97
  (NGX  =300   NGY  =300   NGZ  =300)
  gives a total of 912673 points

 initial charge density was supplied:
 charge density of overlapping atoms calculated
 number of electron      16.0000000 magnetization 
 keeping initial charge density in first step


--------------------------------------------------------------------------------------------------------


 Maximum index for non-local projection operator         2278
 Maximum index for augmentation-charges         1497 (set IRDMAX)


--------------------------------------------------------------------------------------------------------


 First call to EWALD:  gamma=   0.059
 Maximum number of real-space cells 3x 3x 3
 Maximum number of reciprocal cells 3x 3x 3

 FEWALD executed in parallel
    FEWALD:  cpu time    0.0020: real time    0.0020


----------------------------------------- Iteration    1(   1)  ---------------------------------------


    POTLOK:  cpu time   18.0063: real time   17.9924
    SETDIJ:  cpu time    0.0080: real time    0.0080
     EDDAV:  cpu time   87.9946: real time   87.9208
       DOS:  cpu time    0.0010: real time    0.0003
    --------------------------------------------
      LOOP:  cpu time  106.0129: real time  105.9263

 eigenvalue-minimisations  :   160
 total energy-change (2. order) : 0.1134962E+03  (-0.2140729E+03)
 number of electron      16.0000000 magnetization 
 augmentation part       16.0000000 magnetization 

 Free energy of the ion-electron system (eV)
  ---------------------------------------------------
  alpha Z        PSCENC =         0.04144063
  Ewald energy   TEWEN  =       702.92920656
  -Hartree energ DENC   =     -1117.27057686
  -exchange      EXHF   =         0.00000000
  -V(xc)+E(xc)   XCENC  =        51.41984147
  PAW double counting   =       428.37890668     -430.73533574
  entropy T*S    EENTRO =        -0.18696320
  eigenvalues    EBANDS =      -117.24569020
  atomic energy  EATOM  =       596.16534815
  Solvation  Ediel_sol  =         0.00000000
  ---------------------------------------------------
  free energy    TOTEN  =       113.49617749 eV

  energy without entropy =      113.68314069  energy(sigma->0) =      113.58965909


--------------------------------------------------------------------------------------------------------




----------------------------------------- Iteration    1(   2)  ---------------------------------------


     EDDAV:  cpu time  104.6241: real time  104.5388
       DOS:  cpu time    0.0000: real time    0.0002
    --------------------------------------------
      LOOP:  cpu time  104.6251: real time  104.5434

 eigenvalue-minimisations  :   192
 total energy-change (2. order) :-0.1158514E+03  (-0.1135879E+03)
 number of electron      16.0000000 magnetization 
 augmentation part       16.0000000 magnetization 

 Free energy of the ion-electron system (eV)
  ---------------------------------------------------
  alpha Z        PSCENC =         0.04144063
  Ewald energy   TEWEN  =       702.92920656
  -Hartree energ DENC   =     -1117.27057686
  -exchange      EXHF   =         0.00000000
  -V(xc)+E(xc)   XCENC  =        51.41984147
  PAW double counting   =       428.37890668     -430.73533574
  entropy T*S    EENTRO =         0.00000000
  eigenvalues    EBANDS =      -233.28402627
  atomic energy  EATOM  =       596.16534815
  Solvation  Ediel_sol  =         0.00000000
  ---------------------------------------------------
  free energy    TOTEN  =        -2.35519538 eV

  energy without entropy =       -2.35519538  energy(sigma->0) =       -2.35519538


--------------------------------------------------------------------------------------------------------




----------------------------------------- Iteration    1(   3)  ---------------------------------------


     EDDAV:  cpu time   85.5970: real time   85.5269
       DOS:  cpu time    0.0000: real time    0.0002
    --------------------------------------------
      LOOP:  cpu time   85.5980: real time   85.5303

 eigenvalue-minimisations  :   144
 total energy-change (2. order) :-0.3248522E+02  (-0.3240136E+02)
 number of electron      16.0000000 magnetization 
 augmentation part       16.0000000 magnetization 

 Free energy of the ion-electron system (eV)
  ---------------------------------------------------
  alpha Z        PSCENC =         0.04144063
  Ewald energy   TEWEN  =       702.92920656
  -Hartree energ DENC   =     -1117.27057686
  -exchange      EXHF   =         0.00000000
  -V(xc)+E(xc)   XCENC  =        51.41984147
  PAW double counting   =       428.37890668     -430.73533574
  entropy T*S    EENTRO =         0.00000000
  eigenvalues    EBANDS =      -265.76924226
  atomic energy  EATOM  =       596.16534815
  Solvation  Ediel_sol  =         0.00000000
  ---------------------------------------------------
  free energy    TOTEN  =       -34.84041137 eV

  energy without entropy =      -34.84041137  energy(sigma->0) =      -34.84041137


--------------------------------------------------------------------------------------------------------




----------------------------------------- Iteration    1(   4)  ---------------------------------------


     EDDAV:  cpu time   78.1251: real time   78.0621
       DOS:  cpu time    0.0000: real time    0.0002
    --------------------------------------------
      LOOP:  cpu time   78.1271: real time   78.0648

 eigenvalue-minimisations  :   128
 total energy-change (2. order) :-0.4112098E+01  (-0.4067126E+01)
 number of electron      16.0000000 magnetization 
 augmentation part       16.0000000 magnetization 

 Free energy of the ion-electron system (eV)
  ---------------------------------------------------
  alpha Z        PSCENC =         0.04144063
  Ewald energy   TEWEN  =       702.92920656
  -Hartree energ DENC   =     -1117.27057686
  -exchange      EXHF   =         0.00000000
  -V(xc)+E(xc)   XCENC  =        51.41984147
  PAW double counting   =       428.37890668     -430.73533574
  entropy T*S    EENTRO =         0.00000000
  eigenvalues    EBANDS =      -269.88133977
  atomic energy  EATOM  =       596.16534815
  Solvation  Ediel_sol  =         0.00000000
  ---------------------------------------------------
  free energy    TOTEN  =       -38.95250889 eV

  energy without entropy =      -38.95250889  energy(sigma->0) =      -38.95250889


--------------------------------------------------------------------------------------------------------




----------------------------------------- Iteration    1(   5)  ---------------------------------------


     EDDAV:  cpu time   70.2003: real time   70.1430
       DOS:  cpu time    0.0000: real time    0.0002
    CHARGE:  cpu time    5.8481: real time    5.8435
    MIXING:  cpu time    0.6189: real time    0.6184
    --------------------------------------------
      LOOP:  cpu time   76.6683: real time   76.6084

 eigenvalue-minimisations  :   112
 total energy-change (2. order) :-0.1356266E+00  (-0.1338416E+00)
 number of electron      15.9999986 magnetization 
 augmentation part        0.5193719 magnetization 

 Broyden mixing:
  rms(total) = 0.10369E+01    rms(broyden)= 0.10363E+01
  rms(prec ) = 0.10732E+01
  weight for this iteration     100.00

 Free energy of the ion-electron system (eV)
  ---------------------------------------------------
  alpha Z        PSCENC =         0.04144063
  Ewald energy   TEWEN  =       702.92920656
  -Hartree energ DENC   =     -1117.27057686
  -exchange      EXHF   =         0.00000000
  -V(xc)+E(xc)   XCENC  =        51.41984147
  PAW double counting   =       428.37890668     -430.73533574
  entropy T*S    EENTRO =         0.00000000
  eigenvalues    EBANDS =      -270.01696633
  atomic energy  EATOM  =       596.16534815
  Solvation  Ediel_sol  =         0.00000000
  ---------------------------------------------------
  free energy    TOTEN  =       -39.08813544 eV

  energy without entropy =      -39.08813544  energy(sigma->0) =      -39.08813544


--------------------------------------------------------------------------------------------------------




----------------------------------------- Iteration    1(   6)  ---------------------------------------


    POTLOK:  cpu time   19.2751: real time   19.2601
    SETDIJ:  cpu time    0.0090: real time    0.0082
     EDDAV:  cpu time   69.5304: real time   69.4743
       DOS:  cpu time    0.0000: real time    0.0002
    CHARGE:  cpu time    5.8881: real time    5.8835
    MIXING:  cpu time    0.6399: real time    0.6394
    --------------------------------------------
      LOOP:  cpu time   95.3445: real time   95.2802

 eigenvalue-minimisations  :   112
 total energy-change (2. order) : 0.2684975E+01  (-0.4414122E+00)
 number of electron      15.9999986 magnetization 
 augmentation part        0.4735811 magnetization 

 Broyden mixing:
  rms(total) = 0.56219E+00    rms(broyden)= 0.56210E+00
  rms(prec ) = 0.57769E+00
  weight for this iteration     100.00

 eigenvalues of (default mixing * dielectric matrix)
  average eigenvalue GAMMA=   1.6119
  1.6119

 Free energy of the ion-electron system (eV)
  ---------------------------------------------------
  alpha Z        PSCENC =         0.04144063
  Ewald energy   TEWEN  =       702.92920656
  -Hartree energ DENC   =     -1146.37408305
  -exchange      EXHF   =         0.00000000
  -V(xc)+E(xc)   XCENC  =        53.01866972
  PAW double counting   =       719.61891632     -722.31035224
  entropy T*S    EENTRO =         0.00000000
  eigenvalues    EBANDS =      -239.49230648
  atomic energy  EATOM  =       596.16534815
  Solvation  Ediel_sol  =         0.00000000
  ---------------------------------------------------
  free energy    TOTEN  =       -36.40316039 eV

  energy without entropy =      -36.40316039  energy(sigma->0) =      -36.40316039


--------------------------------------------------------------------------------------------------------




----------------------------------------- Iteration    1(   7)  ---------------------------------------


    POTLOK:  cpu time   19.4560: real time   19.4405
    SETDIJ:  cpu time    0.0080: real time    0.0082
     EDDAV:  cpu time   75.1466: real time   75.0847
       DOS:  cpu time    0.0000: real time    0.0002
    CHARGE:  cpu time    5.7271: real time    5.7225
    MIXING:  cpu time    0.6759: real time    0.6763
    --------------------------------------------
      LOOP:  cpu time  101.0156: real time  100.9366

 eigenvalue-minimisations  :   124
 total energy-change (2. order) : 0.7004743E+00  (-0.1832840E+00)
 number of electron      15.9999985 magnetization 
 augmentation part        0.4578170 magnetization 

 Broyden mixing:
  rms(total) = 0.22406E+00    rms(broyden)= 0.22400E+00
  rms(prec ) = 0.22917E+00
  weight for this iteration     100.00

 eigenvalues of (default mixing * dielectric matrix)
  average eigenvalue GAMMA=   1.5717
  1.0854  2.0581

 Free energy of the ion-electron system (eV)
  ---------------------------------------------------
  alpha Z        PSCENC =         0.04144063
  Ewald energy   TEWEN  =       702.92920656
  -Hartree energ DENC   =     -1166.30206465
  -exchange      EXHF   =         0.00000000
  -V(xc)+E(xc)   XCENC  =        54.28983918
  PAW double counting   =      1098.16466453    -1101.04704305
  entropy T*S    EENTRO =         0.00000000
  eigenvalues    EBANDS =      -219.94407746
  atomic energy  EATOM  =       596.16534815
  Solvation  Ediel_sol  =         0.00000000
  ---------------------------------------------------
  free energy    TOTEN  =       -35.70268612 eV

  energy without entropy =      -35.70268612  energy(sigma->0) =      -35.70268612


--------------------------------------------------------------------------------------------------------




----------------------------------------- Iteration    1(   8)  ---------------------------------------


    POTLOK:  cpu time   19.5860: real time   19.5694
    SETDIJ:  cpu time    0.0080: real time    0.0082
     EDDAV:  cpu time   77.0783: real time   77.0161
       DOS:  cpu time    0.0000: real time    0.0002
    CHARGE:  cpu time    5.7951: real time    5.7898
    MIXING:  cpu time    0.7599: real time    0.7603
    --------------------------------------------
      LOOP:  cpu time  103.2293: real time  103.1477

 eigenvalue-minimisations  :   128
 total energy-change (2. order) : 0.6966701E-01  (-0.1407586E-01)
 number of electron      15.9999985 magnetization 
 augmentation part        0.4491440 magnetization 

 Broyden mixing:
  rms(total) = 0.88577E-01    rms(broyden)= 0.88556E-01
  rms(prec ) = 0.92838E-01
  weight for this iteration     100.00

 eigenvalues of (default mixing * dielectric matrix)
  average eigenvalue GAMMA=   1.5924
  2.3169  0.8246  1.6357

 Free energy of the ion-electron system (eV)
  ---------------------------------------------------
  alpha Z        PSCENC =         0.04144063
  Ewald energy   TEWEN  =       702.92920656
  -Hartree energ DENC   =     -1172.60097146
  -exchange      EXHF   =         0.00000000
  -V(xc)+E(xc)   XCENC  =        54.69945904
  PAW double counting   =      1272.76498434    -1275.66763408
  entropy T*S    EENTRO =         0.00000000
  eigenvalues    EBANDS =      -213.96485229
  atomic energy  EATOM  =       596.16534815
  Solvation  Ediel_sol  =         0.00000000
  ---------------------------------------------------
  free energy    TOTEN  =       -35.63301911 eV

  energy without entropy =      -35.63301911  energy(sigma->0) =      -35.63301911


--------------------------------------------------------------------------------------------------------




----------------------------------------- Iteration    1(   9)  ---------------------------------------


    POTLOK:  cpu time   19.4890: real time   19.4734
    SETDIJ:  cpu time    0.0090: real time    0.0087
     EDDAV:  cpu time   77.2393: real time   77.1762
       DOS:  cpu time    0.0000: real time    0.0002
    CHARGE:  cpu time    5.8011: real time    5.7969
    MIXING:  cpu time    0.7569: real time    0.7553
    --------------------------------------------
      LOOP:  cpu time  103.2973: real time  103.2147

 eigenvalue-minimisations  :   128
 total energy-change (2. order) : 0.1862154E-01  (-0.2231974E-02)
 number of electron      15.9999986 magnetization 
 augmentation part        0.4497257 magnetization 

 Broyden mixing:
  rms(total) = 0.21690E-01    rms(broyden)= 0.21679E-01
  rms(prec ) = 0.27909E-01
  weight for this iteration     100.00

 eigenvalues of (default mixing * dielectric matrix)
  average eigenvalue GAMMA=   1.5386
  2.0554  1.9436  0.8479  1.3073

 Free energy of the ion-electron system (eV)
  ---------------------------------------------------
  alpha Z        PSCENC =         0.04144063
  Ewald energy   TEWEN  =       702.92920656
  -Hartree energ DENC   =     -1173.83803043
  -exchange      EXHF   =         0.00000000
  -V(xc)+E(xc)   XCENC  =        54.78499013
  PAW double counting   =      1339.08601782    -1341.96100853
  entropy T*S    EENTRO =         0.00000000
  eigenvalues    EBANDS =      -212.82236191
  atomic energy  EATOM  =       596.16534815
  Solvation  Ediel_sol  =         0.00000000
  ---------------------------------------------------
  free energy    TOTEN  =       -35.61439758 eV

  energy without entropy =      -35.61439758  energy(sigma->0) =      -35.61439758


--------------------------------------------------------------------------------------------------------




----------------------------------------- Iteration    1(  10)  ---------------------------------------


    POTLOK:  cpu time   19.5690: real time   19.5527
    SETDIJ:  cpu time    0.0080: real time    0.0083
     EDDAV:  cpu time   77.1833: real time   77.1205
       DOS:  cpu time    0.0000: real time    0.0002
    CHARGE:  cpu time    5.7891: real time    5.7846
    MIXING:  cpu time    0.8149: real time    0.8147
    --------------------------------------------
      LOOP:  cpu time  103.3653: real time  103.2848

 eigenvalue-minimisations  :   128
 total energy-change (2. order) : 0.2507828E-03  (-0.4273320E-03)
 number of electron      15.9999985 magnetization 
 augmentation part        0.4505263 magnetization 

 Broyden mixing:
  rms(total) = 0.13150E-01    rms(broyden)= 0.13142E-01
  rms(prec ) = 0.18842E-01
  weight for this iteration     100.00

 eigenvalues of (default mixing * dielectric matrix)
  average eigenvalue GAMMA=   1.5094
  2.1879  2.1879  0.8805  0.8805  1.4101

 Free energy of the ion-electron system (eV)
  ---------------------------------------------------
  alpha Z        PSCENC =         0.04144063
  Ewald energy   TEWEN  =       702.92920656
  -Hartree energ DENC   =     -1174.82182462
  -exchange      EXHF   =         0.00000000
  -V(xc)+E(xc)   XCENC  =        54.80841840
  PAW double counting   =      1333.81043193    -1336.68117297
  entropy T*S    EENTRO =         0.00000000
  eigenvalues    EBANDS =      -211.86599487
  atomic energy  EATOM  =       596.16534815
  Solvation  Ediel_sol  =         0.00000000
  ---------------------------------------------------
  free energy    TOTEN  =       -35.61414679 eV

  energy without entropy =      -35.61414679  energy(sigma->0) =      -35.61414679


--------------------------------------------------------------------------------------------------------




----------------------------------------- Iteration    1(  11)  ---------------------------------------


    POTLOK:  cpu time   19.3101: real time   19.2951
    SETDIJ:  cpu time    0.0080: real time    0.0081
     EDDAV:  cpu time   77.0363: real time   76.9730
       DOS:  cpu time    0.0000: real time    0.0002
    CHARGE:  cpu time    5.6281: real time    5.6244
    MIXING:  cpu time    0.8839: real time    0.8827
    --------------------------------------------
      LOOP:  cpu time  102.8694: real time  102.7874

 eigenvalue-minimisations  :   128
 total energy-change (2. order) :-0.1622059E-02  (-0.1625262E-03)
 number of electron      15.9999985 magnetization 
 augmentation part        0.4500556 magnetization 

 Broyden mixing:
  rms(total) = 0.81525E-02    rms(broyden)= 0.81510E-02
  rms(prec ) = 0.13062E-01
  weight for this iteration     100.00

 eigenvalues of (default mixing * dielectric matrix)
  average eigenvalue GAMMA=   1.6606
  2.6941  2.5957  1.4514  1.4514  0.8856  0.8856

 Free energy of the ion-electron system (eV)
  ---------------------------------------------------
  alpha Z        PSCENC =         0.04144063
  Ewald energy   TEWEN  =       702.92920656
  -Hartree energ DENC   =     -1175.84472882
  -exchange      EXHF   =         0.00000000
  -V(xc)+E(xc)   XCENC  =        54.83956913
  PAW double counting   =      1333.10324465    -1335.97224790
  entropy T*S    EENTRO =         0.00000000
  eigenvalues    EBANDS =      -210.87760126
  atomic energy  EATOM  =       596.16534815
  Solvation  Ediel_sol  =         0.00000000
  ---------------------------------------------------
  free energy    TOTEN  =       -35.61576885 eV

  energy without entropy =      -35.61576885  energy(sigma->0) =      -35.61576885


--------------------------------------------------------------------------------------------------------




----------------------------------------- Iteration    1(  12)  ---------------------------------------


    POTLOK:  cpu time   19.2671: real time   19.2521
    SETDIJ:  cpu time    0.0090: real time    0.0084
     EDDAV:  cpu time   73.6328: real time   73.5721
       DOS:  cpu time    0.0000: real time    0.0002
    CHARGE:  cpu time    5.7331: real time    5.7283
    MIXING:  cpu time    0.9069: real time    0.9059
    --------------------------------------------
      LOOP:  cpu time   99.5499: real time   99.4709

 eigenvalue-minimisations  :   120
 total energy-change (2. order) :-0.5682189E-02  (-0.3166385E-03)
 number of electron      15.9999985 magnetization 
 augmentation part        0.4497452 magnetization 

 Broyden mixing:
  rms(total) = 0.46199E-02    rms(broyden)= 0.46142E-02
  rms(prec ) = 0.73835E-02
  weight for this iteration     100.00

 eigenvalues of (default mixing * dielectric matrix)
  average eigenvalue GAMMA=   1.7915
  3.8498  2.2184  1.9617  1.5829  0.9032  1.0122  1.0122

 Free energy of the ion-electron system (eV)
  ---------------------------------------------------
  alpha Z        PSCENC =         0.04144063
  Ewald energy   TEWEN  =       702.92920656
  -Hartree energ DENC   =     -1177.10097886
  -exchange      EXHF   =         0.00000000
  -V(xc)+E(xc)   XCENC  =        54.86981571
  PAW double counting   =      1329.75538404    -1332.62196237
  entropy T*S    EENTRO =         0.00000000
  eigenvalues    EBANDS =      -209.65970491
  atomic energy  EATOM  =       596.16534815
  Solvation  Ediel_sol  =         0.00000000
  ---------------------------------------------------
  free energy    TOTEN  =       -35.62145104 eV

  energy without entropy =      -35.62145104  energy(sigma->0) =      -35.62145104


--------------------------------------------------------------------------------------------------------




----------------------------------------- Iteration    1(  13)  ---------------------------------------


    POTLOK:  cpu time   19.2621: real time   19.2467
    SETDIJ:  cpu time    0.0080: real time    0.0082
     EDDAV:  cpu time   77.7802: real time   77.7159
       DOS:  cpu time    0.0000: real time    0.0002
    CHARGE:  cpu time    5.6441: real time    5.6389
    MIXING:  cpu time    0.9869: real time    0.9860
    --------------------------------------------
      LOOP:  cpu time  103.6822: real time  103.6029

 eigenvalue-minimisations  :   128
 total energy-change (2. order) :-0.6084117E-02  (-0.1656155E-03)
 number of electron      15.9999985 magnetization 
 augmentation part        0.4495581 magnetization 

 Broyden mixing:
  rms(total) = 0.29020E-02    rms(broyden)= 0.28995E-02
  rms(prec ) = 0.43779E-02
  weight for this iteration     100.00

 eigenvalues of (default mixing * dielectric matrix)
  average eigenvalue GAMMA=   1.8814
  4.8816  2.4053  1.7470  1.7470  1.4472  0.9095  0.9095  1.0041

 Free energy of the ion-electron system (eV)
  ---------------------------------------------------
  alpha Z        PSCENC =         0.04144063
  Ewald energy   TEWEN  =       702.92920656
  -Hartree energ DENC   =     -1177.70320377
  -exchange      EXHF   =         0.00000000
  -V(xc)+E(xc)   XCENC  =        54.87677368
  PAW double counting   =      1328.98102378    -1331.84814977
  entropy T*S    EENTRO =         0.00000000
  eigenvalues    EBANDS =      -209.06997440
  atomic energy  EATOM  =       596.16534815
  Solvation  Ediel_sol  =         0.00000000
  ---------------------------------------------------
  free energy    TOTEN  =       -35.62753516 eV

  energy without entropy =      -35.62753516  energy(sigma->0) =      -35.62753516


--------------------------------------------------------------------------------------------------------




----------------------------------------- Iteration    1(  14)  ---------------------------------------


    POTLOK:  cpu time   19.2961: real time   19.2806
    SETDIJ:  cpu time    0.0080: real time    0.0081
     EDDAV:  cpu time   77.5972: real time   77.5330
       DOS:  cpu time    0.0000: real time    0.0002
    CHARGE:  cpu time    5.6271: real time    5.6224
    MIXING:  cpu time    1.0418: real time    1.0408
    --------------------------------------------
      LOOP:  cpu time  103.5703: real time  103.4894

 eigenvalue-minimisations  :   128
 total energy-change (2. order) :-0.3778077E-02  (-0.4563406E-04)
 number of electron      15.9999985 magnetization 
 augmentation part        0.4495964 magnetization 

 Broyden mixing:
  rms(total) = 0.18861E-02    rms(broyden)= 0.18854E-02
  rms(prec ) = 0.27478E-02
  weight for this iteration     100.00

 eigenvalues of (default mixing * dielectric matrix)
  average eigenvalue GAMMA=   1.9655
  5.0850  2.5740  2.5740  1.8974  1.5783  1.1064  1.1064  0.8838  0.8838

 Free energy of the ion-electron system (eV)
  ---------------------------------------------------
  alpha Z        PSCENC =         0.04144063
  Ewald energy   TEWEN  =       702.92920656
  -Hartree energ DENC   =     -1177.87977297
  -exchange      EXHF   =         0.00000000
  -V(xc)+E(xc)   XCENC  =        54.87093605
  PAW double counting   =      1327.34485909    -1330.21183258
  entropy T*S    EENTRO =         0.00000000
  eigenvalues    EBANDS =      -208.89149816
  atomic energy  EATOM  =       596.16534815
  Solvation  Ediel_sol  =         0.00000000
  ---------------------------------------------------
  free energy    TOTEN  =       -35.63131323 eV

  energy without entropy =      -35.63131323  energy(sigma->0) =      -35.63131323


--------------------------------------------------------------------------------------------------------




----------------------------------------- Iteration    1(  15)  ---------------------------------------


    POTLOK:  cpu time   19.3851: real time   19.3697
    SETDIJ:  cpu time    0.0080: real time    0.0083
     EDDAV:  cpu time   78.4081: real time   78.3438
       DOS:  cpu time    0.0000: real time    0.0002
    CHARGE:  cpu time    5.5832: real time    5.5793
    MIXING:  cpu time    1.1128: real time    1.1116
    --------------------------------------------
      LOOP:  cpu time  104.4991: real time  104.4169

 eigenvalue-minimisations  :   128
 total energy-change (2. order) :-0.3342703E-02  (-0.3553270E-04)
 number of electron      15.9999985 magnetization 
 augmentation part        0.4496419 magnetization 

 Broyden mixing:
  rms(total) = 0.12468E-02    rms(broyden)= 0.12467E-02
  rms(prec ) = 0.16652E-02
  weight for this iteration     100.00

 eigenvalues of (default mixing * dielectric matrix)
  average eigenvalue GAMMA=   2.0807
  6.4292  3.4878  2.3628  1.6312  1.6312  1.5213  1.0315  0.9155  0.9155  0.8808

 Free energy of the ion-electron system (eV)
  ---------------------------------------------------
  alpha Z        PSCENC =         0.04144063
  Ewald energy   TEWEN  =       702.92920656
  -Hartree energ DENC   =     -1177.90981762
  -exchange      EXHF   =         0.00000000
  -V(xc)+E(xc)   XCENC  =        54.86482728
  PAW double counting   =      1328.28084851    -1331.14806917
  entropy T*S    EENTRO =         0.00000000
  eigenvalues    EBANDS =      -208.85844028
  atomic energy  EATOM  =       596.16534815
  Solvation  Ediel_sol  =         0.00000000
  ---------------------------------------------------
  free energy    TOTEN  =       -35.63465594 eV

  energy without entropy =      -35.63465594  energy(sigma->0) =      -35.63465594


--------------------------------------------------------------------------------------------------------




----------------------------------------- Iteration    1(  16)  ---------------------------------------


    POTLOK:  cpu time   19.4050: real time   19.3891
    SETDIJ:  cpu time    0.0080: real time    0.0081
     EDDAV:  cpu time   78.7910: real time   78.7272
       DOS:  cpu time    0.0000: real time    0.0002
    CHARGE:  cpu time    5.6431: real time    5.6378
    MIXING:  cpu time    1.1508: real time    1.1505
    --------------------------------------------
      LOOP:  cpu time  105.0000: real time  104.9163

 eigenvalue-minimisations  :   128
 total energy-change (2. order) :-0.1266711E-02  (-0.1175227E-04)
 number of electron      15.9999985 magnetization 
 augmentation part        0.4496132 magnetization 

 Broyden mixing:
  rms(total) = 0.68421E-03    rms(broyden)= 0.68394E-03
  rms(prec ) = 0.93291E-03
  weight for this iteration     100.00

 eigenvalues of (default mixing * dielectric matrix)
  average eigenvalue GAMMA=   2.1106
  7.1051  3.4212  2.1437  2.1437  1.6548  1.6548  1.3189  0.9984  0.9984  0.8888
  0.8888

 Free energy of the ion-electron system (eV)
  ---------------------------------------------------
  alpha Z        PSCENC =         0.04144063
  Ewald energy   TEWEN  =       702.92920656
  -Hartree energ DENC   =     -1177.94138741
  -exchange      EXHF   =         0.00000000
  -V(xc)+E(xc)   XCENC  =        54.86258372
  PAW double counting   =      1328.14979363    -1331.01706457
  entropy T*S    EENTRO =         0.00000000
  eigenvalues    EBANDS =      -208.82584336
  atomic energy  EATOM  =       596.16534815
  Solvation  Ediel_sol  =         0.00000000
  ---------------------------------------------------
  free energy    TOTEN  =       -35.63592265 eV

  energy without entropy =      -35.63592265  energy(sigma->0) =      -35.63592265


--------------------------------------------------------------------------------------------------------




----------------------------------------- Iteration    1(  17)  ---------------------------------------


    POTLOK:  cpu time   19.4310: real time   19.4157
    SETDIJ:  cpu time    0.0090: real time    0.0083
     EDDAV:  cpu time   57.3353: real time   57.2882
       DOS:  cpu time    0.0000: real time    0.0002
    CHARGE:  cpu time    5.8541: real time    5.8494
    MIXING:  cpu time    1.3908: real time    1.3902
    --------------------------------------------
      LOOP:  cpu time   84.0212: real time   83.9559

 eigenvalue-minimisations  :    84
 total energy-change (2. order) :-0.7522227E-03  (-0.2314771E-05)
 number of electron      15.9999985 magnetization 
 augmentation part        0.4495865 magnetization 

 Broyden mixing:
  rms(total) = 0.40658E-03    rms(broyden)= 0.40639E-03
  rms(prec ) = 0.55821E-03
  weight for this iteration     100.00

 eigenvalues of (default mixing * dielectric matrix)
  average eigenvalue GAMMA=   2.2460
  8.0609  4.2206  2.7151  2.3406  1.6188  1.6188  1.5639  0.9909  0.9909  1.0673
  0.8821  0.8821

 Free energy of the ion-electron system (eV)
  ---------------------------------------------------
  alpha Z        PSCENC =         0.04144063
  Ewald energy   TEWEN  =       702.92920656
  -Hartree energ DENC   =     -1177.95281305
  -exchange      EXHF   =         0.00000000
  -V(xc)+E(xc)   XCENC  =        54.86165568
  PAW double counting   =      1327.96589930    -1330.83294664
  entropy T*S    EENTRO =         0.00000000
  eigenvalues    EBANDS =      -208.81446551
  atomic energy  EATOM  =       596.16534815
  Solvation  Ediel_sol  =         0.00000000
  ---------------------------------------------------
  free energy    TOTEN  =       -35.63667487 eV

  energy without entropy =      -35.63667487  energy(sigma->0) =      -35.63667487


--------------------------------------------------------------------------------------------------------




----------------------------------------- Iteration    1(  18)  ---------------------------------------


    POTLOK:  cpu time   19.5280: real time   19.5124
    SETDIJ:  cpu time    0.0080: real time    0.0081
     EDDAV:  cpu time   53.1289: real time   53.0850
       DOS:  cpu time    0.0000: real time    0.0002
    CHARGE:  cpu time    5.9251: real time    5.9211
    MIXING:  cpu time    1.3468: real time    1.3464
    --------------------------------------------
      LOOP:  cpu time   79.9398: real time   80.0618

 eigenvalue-minimisations  :    76
 total energy-change (2. order) :-0.4571115E-03  (-0.3119349E-05)
 number of electron      15.9999985 magnetization 
 augmentation part        0.4495872 magnetization 

 Broyden mixing:
  rms(total) = 0.26980E-03    rms(broyden)= 0.26974E-03
  rms(prec ) = 0.33605E-03
  weight for this iteration     100.00

 eigenvalues of (default mixing * dielectric matrix)
  average eigenvalue GAMMA=   2.3158
  8.3380  4.7066  2.6112  2.4449  2.4449  1.6487  1.6487  1.4816  1.0058  1.0058
  0.8915  0.8915  0.9859

 Free energy of the ion-electron system (eV)
  ---------------------------------------------------
  alpha Z        PSCENC =         0.04144063
  Ewald energy   TEWEN  =       702.92920656
  -Hartree energ DENC   =     -1177.94644160
  -exchange      EXHF   =         0.00000000
  -V(xc)+E(xc)   XCENC  =        54.86078455
  PAW double counting   =      1328.19998299    -1331.06701150
  entropy T*S    EENTRO =         0.00000000
  eigenvalues    EBANDS =      -208.82044176
  atomic energy  EATOM  =       596.16534815
  Solvation  Ediel_sol  =         0.00000000
  ---------------------------------------------------
  free energy    TOTEN  =       -35.63713198 eV

  energy without entropy =      -35.63713198  energy(sigma->0) =      -35.63713198


--------------------------------------------------------------------------------------------------------




----------------------------------------- Iteration    1(  19)  ---------------------------------------


    POTLOK:  cpu time   19.4300: real time   19.4151
    SETDIJ:  cpu time    0.0090: real time    0.0083
     EDDAV:  cpu time   53.2399: real time   53.1964
       DOS:  cpu time    0.0000: real time    0.0002
    CHARGE:  cpu time    5.8271: real time    5.8221
    MIXING:  cpu time    1.4268: real time    1.4258
    --------------------------------------------
      LOOP:  cpu time   79.9348: real time   79.8777

 eigenvalue-minimisations  :    76
 total energy-change (2. order) :-0.2230243E-03  (-0.1050715E-05)
 number of electron      15.9999985 magnetization 
 augmentation part        0.4495997 magnetization 

 Broyden mixing:
  rms(total) = 0.23019E-03    rms(broyden)= 0.23011E-03
  rms(prec ) = 0.25588E-03
  weight for this iteration     100.00

 eigenvalues of (default mixing * dielectric matrix)
  average eigenvalue GAMMA=   2.3286
  8.6554  5.3160  3.2442  2.6004  2.0370  1.7504  1.6204  1.6204  1.0283  1.0283
  1.0708  0.8791  0.8791  0.8700

 Free energy of the ion-electron system (eV)
  ---------------------------------------------------
  alpha Z        PSCENC =         0.04144063
  Ewald energy   TEWEN  =       702.92920656
  -Hartree energ DENC   =     -1177.93898935
  -exchange      EXHF   =         0.00000000
  -V(xc)+E(xc)   XCENC  =        54.86026336
  PAW double counting   =      1328.17261964    -1331.03975170
  entropy T*S    EENTRO =         0.00000000
  eigenvalues    EBANDS =      -208.82749230
  atomic energy  EATOM  =       596.16534815
  Solvation  Ediel_sol  =         0.00000000
  ---------------------------------------------------
  free energy    TOTEN  =       -35.63735501 eV

  energy without entropy =      -35.63735501  energy(sigma->0) =      -35.63735501


--------------------------------------------------------------------------------------------------------




----------------------------------------- Iteration    1(  20)  ---------------------------------------


    POTLOK:  cpu time   19.6800: real time   19.6648
    SETDIJ:  cpu time    0.0090: real time    0.0086
     EDDAV:  cpu time   55.5756: real time   55.5297
       DOS:  cpu time    0.0000: real time    0.0002
    --------------------------------------------
      LOOP:  cpu time   75.2656: real time   75.2069

 eigenvalue-minimisations  :    80
 total energy-change (2. order) :-0.5686113E-04  (-0.3041234E-06)
 number of electron      15.9999985 magnetization 
 augmentation part        0.4495997 magnetization 

 Free energy of the ion-electron system (eV)
  ---------------------------------------------------
  alpha Z        PSCENC =         0.04144063
  Ewald energy   TEWEN  =       702.92920656
  -Hartree energ DENC   =     -1177.93969801
  -exchange      EXHF   =         0.00000000
  -V(xc)+E(xc)   XCENC  =        54.86013872
  PAW double counting   =      1328.06638584    -1330.93347438
  entropy T*S    EENTRO =         0.00000000
  eigenvalues    EBANDS =      -208.82675938
  atomic energy  EATOM  =       596.16534815
  Solvation  Ediel_sol  =         0.00000000
  ---------------------------------------------------
  free energy    TOTEN  =       -35.63741187 eV

  energy without entropy =      -35.63741187  energy(sigma->0) =      -35.63741187


--------------------------------------------------------------------------------------------------------




 average (electrostatic) potential at core
  the test charge radii are     0.5201  0.6991  0.7089
  (the norm of the test charge is              1.0000)
       1 -43.0803       2 -43.0772       3 -43.0737       4 -60.5288       5 -59.3569
       6 -74.8327
 
 
 
 E-fermi :  -6.1900     XC(G=0):  -0.0947     alpha+bet : -0.0137


 k-point     1 :       0.2500    0.2500    0.2500
  band No.  band energies     occupation 
      1     -23.8918      2.00000
      2     -19.2929      2.00000
      3     -13.8890      2.00000
      4     -11.8071      2.00000
      5     -11.7849      2.00000
      6      -8.3085      2.00000
      7      -8.2892      2.00000
      8      -7.1499      2.00000
      9      -0.8060      0.00000
     10      -0.6777      0.00000
     11      -0.6407      0.00000
     12      -0.0131      0.00000

 k-point     2 :      -0.2500    0.2500    0.2500
  band No.  band energies     occupation 
      1     -23.8918      2.00000
      2     -19.2929      2.00000
      3     -13.8890      2.00000
      4     -11.8071      2.00000
      5     -11.7849      2.00000
      6      -8.3085      2.00000
      7      -8.2892      2.00000
      8      -7.1499      2.00000
      9      -0.8059      0.00000
     10      -0.6777      0.00000
     11      -0.6407      0.00000
     12      -0.0123      0.00000

 k-point     3 :       0.2500   -0.2500    0.2500
  band No.  band energies     occupation 
      1     -23.8918      2.00000
      2     -19.2929      2.00000
      3     -13.8890      2.00000
      4     -11.8071      2.00000
      5     -11.7849      2.00000
      6      -8.3085      2.00000
      7      -8.2893      2.00000
      8      -7.1499      2.00000
      9      -0.8059      0.00000
     10      -0.6777      0.00000
     11      -0.6406      0.00000
     12      -0.0128      0.00000

 k-point     4 :      -0.2500   -0.2500    0.2500
  band No.  band energies     occupation 
      1     -23.8918      2.00000
      2     -19.2929      2.00000
      3     -13.8890      2.00000
      4     -11.8071      2.00000
      5     -11.7849      2.00000
      6      -8.3085      2.00000
      7      -8.2892      2.00000
      8      -7.1499      2.00000
      9      -0.8059      0.00000
     10      -0.6777      0.00000
     11      -0.6407      0.00000
     12      -0.0128      0.00000


--------------------------------------------------------------------------------------------------------


 soft charge-density along one line, spin component           1
         0         1         2         3         4         5         6         7         8         9
 total charge-density along one line
 
 pseudopotential strength for first ion, spin component:           1
 -2.363  -4.075  -0.002   0.000  -0.001
 -4.075  -6.942  -0.005   0.001  -0.002
 -0.002  -0.005  -0.330  -0.001   0.002
  0.000   0.001  -0.001  -0.334   0.000
 -0.001  -0.002   0.002   0.000  -0.333
 total augmentation occupancy for first ion, spin component:           1
  3.524  -0.634   0.401  -0.103   0.165
 -0.634   0.131  -0.074   0.019  -0.030
  0.401  -0.074   0.047  -0.010   0.017
 -0.103   0.019  -0.010   0.011  -0.004
  0.165  -0.030   0.017  -0.004   0.013


------------------------ aborting loop because EDIFF is reached ----------------------------------------


    CHARGE:  cpu time    5.8411: real time    5.8357
    FORLOC:  cpu time    2.8146: real time    2.8121
    FORNL :  cpu time   18.7981: real time   18.7836
    STRESS:  cpu time   58.5491: real time   58.5011
    FORCOR:  cpu time   22.0586: real time   22.0418
    FORHAR:  cpu time    7.7108: real time    7.7039
    MIXING:  cpu time    1.5578: real time    1.5563
    OFIELD:  cpu time    0.0000: real time    0.0001

  FORCE on cell =-STRESS in cart. coord.  units (eV):
  Direction    XX          YY          ZZ          XY          YZ          ZX
  --------------------------------------------------------------------------------------
  Alpha Z     0.04144     0.04144     0.04144
  Ewald     582.97848    45.35438    74.59602   -56.96771    14.39189  -137.08705
  Hartree   576.91281   293.26433   307.76669   -28.56975     6.98841   -69.73458
  E(xc)     -58.87259   -60.18018   -60.10109    -0.15106     0.04004    -0.35433
  Local   -1301.28808  -513.13389  -554.79978    81.63177   -20.30307   197.68175
  n-local   -26.37989   -24.42813   -24.61931     0.36462    -0.10552     0.76816
  augment     0.49970     0.99347     0.96513     0.05367    -0.01345     0.12725
  Kinetic   225.29229   257.11457   255.13198     3.70236    -1.02161     8.66260
  Fock        0.00000     0.00000     0.00000     0.00000     0.00000     0.00000
  -------------------------------------------------------------------------------------
  Total      -0.81584    -0.97400    -1.01892     0.06390    -0.02331     0.06380
  in kB      -0.04841    -0.05780    -0.06046     0.00379    -0.00138     0.00379
  external pressure =       -0.06 kB  Pullay stress =        0.00 kB


 VOLUME and BASIS-vectors are now :
 -----------------------------------------------------------------------------
  energy-cutoff  :      400.00
  volume of cell :    27000.00
      direct lattice vectors                 reciprocal lattice vectors
    30.000000000  0.000000000  0.000000000     0.033333333  0.000000000  0.000000000
     0.000000000 30.000000000  0.000000000     0.000000000  0.033333333  0.000000000
     0.000000000  0.000000000 30.000000000     0.000000000  0.000000000  0.033333333

  length of vectors
    30.000000000 30.000000000 30.000000000     0.033333333  0.033333333  0.033333333


 FORCES acting on ions
    electron-ion (+dipol)            ewald-force                    non-local-force                 convergence-correction
 -----------------------------------------------------------------------------------------------
   0.357E+02 0.541E+02 -.172E+02   -.379E+02 -.593E+02 0.185E+02   0.212E+01 0.511E+01 -.131E+01   -.360E-04 0.251E-03 -.329E-04
   0.428E+02 -.228E+02 0.463E+02   -.457E+02 0.248E+02 -.508E+02   0.276E+01 -.200E+01 0.455E+01   -.116E-04 -.864E-04 0.240E-03
   0.223E+02 -.389E+02 -.498E+02   -.231E+02 0.424E+02 0.542E+02   0.956E+00 -.350E+01 -.436E+01   -.799E-04 -.167E-03 -.185E-03
   0.118E+03 -.109E+02 -.269E+02   -.125E+03 0.115E+02 0.285E+02   0.737E+01 -.597E+00 -.154E+01   -.141E-02 0.914E-04 0.337E-03
   -.220E+03 0.266E+02 0.616E+02   0.245E+03 -.299E+02 -.691E+02   -.253E+02 0.335E+01 0.759E+01   0.148E-02 -.220E-03 -.461E-03
   0.113E+02 -.932E+01 -.167E+02   -.137E+02 0.105E+02 0.188E+02   0.250E+01 -.119E+01 -.225E+01   -.172E-02 0.177E-03 0.496E-03
 -----------------------------------------------------------------------------------------------
   0.956E+01 -.117E+01 -.266E+01   0.284E-13 -.355E-14 0.000E+00   -.956E+01 0.118E+01 0.266E+01   -.178E-02 0.460E-04 0.394E-03
 
 
 POSITION                                       TOTAL-FORCE (eV/Angst)
 -----------------------------------------------------------------------------------
     14.13339     14.05875     15.36900        -0.037394     -0.024371      0.012861
     14.00758     15.43520     14.23397        -0.043369      0.008955      0.004280
     14.36276     15.72825     15.96213         0.082886      0.008040     -0.005917
     14.53655     15.04842     15.11592        -0.048847     -0.012657     -0.012486
     17.04307     14.79316     14.49550        -0.061781      0.051869      0.098041
     15.91696     14.93659     14.82337         0.108505     -0.031835     -0.096779
 -----------------------------------------------------------------------------------
    total drift:                               -0.005726      0.002777      0.000429


--------------------------------------------------------------------------------------------------------



  FREE ENERGIE OF THE ION-ELECTRON SYSTEM (eV)
  ---------------------------------------------------
  free  energy   TOTEN  =       -35.63741187 eV

  energy  without entropy=      -35.63741187  energy(sigma->0) =      -35.63741187
 


--------------------------------------------------------------------------------------------------------


    POTLOK:  cpu time   19.2051: real time   19.1900


--------------------------------------------------------------------------------------------------------


 NEB: the previous image is higher in energy: T
 NEB: the next image is higher in energy    : F
 NEB: only prev energy greater

 NEB: Tangent
 ----------------------------------------------
      0.12495     -0.32195     -0.31972
     -0.05536     -0.04657     -0.02260
     -0.27992     -0.34529      0.11275
     -0.04842     -0.13767     -0.05972
      0.21145      0.60738      0.24543
      0.04752      0.24409      0.04376

 NEB: forces: par spring, perp REAL, dneb     0.320539    0.227732    0.000000
 NEB: distance to prev, next image, angle between     0.714865    0.650757  133.481380
 NEB: projections on to tangent (spring, REAL)    -0.320539    0.014811

 stress matrix after NEB project (eV)
     -0.81584      0.06390      0.06380
      0.06390     -0.97400     -0.02331
      0.06380     -0.02331     -1.01892
  FORCES: max atom, RMS     0.220205    0.160524
  FORCE total and by dimension    0.393201    0.176758
  Stress total and by dimension    1.633974    1.018924
 
 OPT: Flag T
 OPT: FIRE Step
 OPT: FIRE, TIMESTEP      0.10000
 OPT: FIRE, alpha         0.10000


--------------------------------------------------------------------------------------------------------


    WAVPRE:  cpu time    8.1668: real time    8.1613
 FEWALD executed in parallel
    FEWALD:  cpu time    0.0010: real time    0.0003
    ORTHCH:  cpu time    6.8530: real time    6.8472
     LOOP+:  cpu time 2410.1076: real time 2408.4018


----------------------------------------- Iteration    2(   1)  ---------------------------------------


    POTLOK:  cpu time   19.4420: real time   19.4261
    SETDIJ:  cpu time    0.0080: real time    0.0083
     EDDAV:  cpu time   74.2147: real time   74.1539
       DOS:  cpu time    0.0000: real time    0.0002
    CHARGE:  cpu time    5.8531: real time    5.8489
    MIXING:  cpu time    0.6919: real time    0.6909
    --------------------------------------------
      LOOP:  cpu time  100.2118: real time  100.1307

 eigenvalue-minimisations  :   112
 total energy-change (2. order) :-0.2500901E-03  (-0.3074804E-02)
 number of electron      15.9999986 magnetization 
 augmentation part        0.4501596 magnetization 

 Broyden mixing:
  rms(total) = 0.57955E-02    rms(broyden)= 0.57794E-02
  rms(prec ) = 0.59491E-02
  weight for this iteration     100.00

 Free energy of the ion-electron system (eV)
  ---------------------------------------------------
  alpha Z        PSCENC =         0.04144063
  Ewald energy   TEWEN  =       703.21811406
  -Hartree energ DENC   =     -1178.08911057
  -exchange      EXHF   =         0.00000000
  -V(xc)+E(xc)   XCENC  =        54.86630109
  PAW double counting   =      1328.11209426    -1330.97918702
  entropy T*S    EENTRO =         0.00000000
  eigenvalues    EBANDS =      -208.97260570
  atomic energy  EATOM  =       596.16534815
  Solvation  Ediel_sol  =         0.00000000
  ---------------------------------------------------
  free energy    TOTEN  =       -35.63760510 eV

  energy without entropy =      -35.63760510  energy(sigma->0) =      -35.63760510


--------------------------------------------------------------------------------------------------------




----------------------------------------- Iteration    2(   2)  ---------------------------------------


    POTLOK:  cpu time   19.3911: real time   19.3763
    SETDIJ:  cpu time    0.0080: real time    0.0081
     EDDAV:  cpu time   79.9828: real time   79.9165
       DOS:  cpu time    0.0000: real time    0.0002
    CHARGE:  cpu time    5.6781: real time    5.6735
    MIXING:  cpu time    0.7059: real time    0.7051
    --------------------------------------------
      LOOP:  cpu time  105.7669: real time  105.6835

 eigenvalue-minimisations  :   128
 total energy-change (2. order) : 0.6294664E-05  (-0.6273669E-04)
 number of electron      15.9999986 magnetization 
 augmentation part        0.4504310 magnetization 

 Broyden mixing:
  rms(total) = 0.33306E-02    rms(broyden)= 0.33277E-02
  rms(prec ) = 0.34078E-02
  weight for this iteration     100.00

 eigenvalues of (default mixing * dielectric matrix)
  average eigenvalue GAMMA=   1.0653
  1.0653

 Free energy of the ion-electron system (eV)
  ---------------------------------------------------
  alpha Z        PSCENC =         0.04144063
  Ewald energy   TEWEN  =       703.21811406
  -Hartree energ DENC   =     -1178.11072084
  -exchange      EXHF   =         0.00000000
  -V(xc)+E(xc)   XCENC  =        54.86837950
  PAW double counting   =      1329.13192290    -1331.99997305
  entropy T*S    EENTRO =         0.00000000
  eigenvalues    EBANDS =      -208.95211015
  atomic energy  EATOM  =       596.16534815
  Solvation  Ediel_sol  =         0.00000000
  ---------------------------------------------------
  free energy    TOTEN  =       -35.63759880 eV

  energy without entropy =      -35.63759880  energy(sigma->0) =      -35.63759880


--------------------------------------------------------------------------------------------------------




----------------------------------------- Iteration    2(   3)  ---------------------------------------


    POTLOK:  cpu time   19.1711: real time   19.1552
    SETDIJ:  cpu time    0.0080: real time    0.0081
     EDDAV:  cpu time   53.2609: real time   53.2177
       DOS:  cpu time    0.0000: real time    0.0002
    CHARGE:  cpu time    5.7951: real time    5.7908
    MIXING:  cpu time    0.6939: real time    0.6942
    --------------------------------------------
      LOOP:  cpu time   78.9310: real time   78.8701

 eigenvalue-minimisations  :    76
 total energy-change (2. order) : 0.8553839E-05  (-0.5513417E-05)
 number of electron      15.9999986 magnetization 
 augmentation part        0.4503519 magnetization 

 Broyden mixing:
  rms(total) = 0.17190E-02    rms(broyden)= 0.17186E-02
  rms(prec ) = 0.17482E-02
  weight for this iteration     100.00

 eigenvalues of (default mixing * dielectric matrix)
  average eigenvalue GAMMA=   1.5066
  0.9361  2.0771

 Free energy of the ion-electron system (eV)
  ---------------------------------------------------
  alpha Z        PSCENC =         0.04144063
  Ewald energy   TEWEN  =       703.21811406
  -Hartree energ DENC   =     -1178.15693567
  -exchange      EXHF   =         0.00000000
  -V(xc)+E(xc)   XCENC  =        54.87076915
  PAW double counting   =      1329.87088488    -1332.73970476
  entropy T*S    EENTRO =         0.00000000
  eigenvalues    EBANDS =      -208.90750669
  atomic energy  EATOM  =       596.16534815
  Solvation  Ediel_sol  =         0.00000000
  ---------------------------------------------------
  free energy    TOTEN  =       -35.63759025 eV

  energy without entropy =      -35.63759025  energy(sigma->0) =      -35.63759025


--------------------------------------------------------------------------------------------------------




----------------------------------------- Iteration    2(   4)  ---------------------------------------


    POTLOK:  cpu time   19.5340: real time   19.5191
    SETDIJ:  cpu time    0.0090: real time    0.0084
     EDDAV:  cpu time   54.7557: real time   54.7116
[...]
  Solvation  Ediel_sol  =         0.00000000
  ---------------------------------------------------
  free energy    TOTEN  =       -35.64343813 eV

  energy without entropy =      -35.64343813  energy(sigma->0) =      -35.64343813


--------------------------------------------------------------------------------------------------------




----------------------------------------- Iteration  135(   2)  ---------------------------------------


    POTLOK:  cpu time   25.3911: real time   25.3711
    SETDIJ:  cpu time    0.0090: real time    0.0084
     EDDAV:  cpu time   52.8380: real time   52.7952
       DOS:  cpu time    0.0000: real time    0.0002
    CHARGE:  cpu time    6.4380: real time    6.4323
    MIXING:  cpu time    0.7669: real time    0.7670
    --------------------------------------------
      LOOP:  cpu time   85.4440: real time   85.3783

 eigenvalue-minimisations  :    64
 total energy-change (2. order) : 0.3062045E-06  (-0.2052606E-05)
 number of electron      16.0000018 magnetization 
 augmentation part        0.4498194 magnetization 

 Broyden mixing:
  rms(total) = 0.57759E-03    rms(broyden)= 0.57714E-03
  rms(prec ) = 0.58911E-03
  weight for this iteration     100.00

 eigenvalues of (default mixing * dielectric matrix)
  average eigenvalue GAMMA=   1.7609
  1.7609

 Free energy of the ion-electron system (eV)
  ---------------------------------------------------
  alpha Z        PSCENC =         0.04144063
  Ewald energy   TEWEN  =       702.83891466
  -Hartree energ DENC   =     -1177.84724558
  -exchange      EXHF   =         0.00000000
  -V(xc)+E(xc)   XCENC  =        54.86117127
  PAW double counting   =      1328.79632798    -1331.66406665
  entropy T*S    EENTRO =         0.00000000
  eigenvalues    EBANDS =      -208.83532829
  atomic energy  EATOM  =       596.16534815
  Solvation  Ediel_sol  =         0.00000000
  ---------------------------------------------------
  free energy    TOTEN  =       -35.64343783 eV

  energy without entropy =      -35.64343783  energy(sigma->0) =      -35.64343783


--------------------------------------------------------------------------------------------------------




----------------------------------------- Iteration  135(   3)  ---------------------------------------


    POTLOK:  cpu time   26.9469: real time   26.9243
    SETDIJ:  cpu time    0.0080: real time    0.0082
     EDDAV:  cpu time   55.3866: real time   55.3421
       DOS:  cpu time    0.0000: real time    0.0002
    CHARGE:  cpu time    6.7310: real time    6.7264
    MIXING:  cpu time    0.7779: real time    0.7764
    --------------------------------------------
      LOOP:  cpu time   89.8523: real time   89.7815

 eigenvalue-minimisations  :    64
 total energy-change (2. order) :-0.9971385E-06  (-0.3155237E-06)
 number of electron      16.0000018 magnetization 
 augmentation part        0.4498183 magnetization 

 Broyden mixing:
  rms(total) = 0.14838E-03    rms(broyden)= 0.14818E-03
  rms(prec ) = 0.15036E-03
  weight for this iteration     100.00

 eigenvalues of (default mixing * dielectric matrix)
  average eigenvalue GAMMA=   1.5896
  1.0597  2.1195

 Free energy of the ion-electron system (eV)
  ---------------------------------------------------
  alpha Z        PSCENC =         0.04144063
  Ewald energy   TEWEN  =       702.83891466
  -Hartree energ DENC   =     -1177.84846209
  -exchange      EXHF   =         0.00000000
  -V(xc)+E(xc)   XCENC  =        54.86123140
  PAW double counting   =      1328.81487041    -1331.68262632
  entropy T*S    EENTRO =         0.00000000
  eigenvalues    EBANDS =      -208.83415566
  atomic energy  EATOM  =       596.16534815
  Solvation  Ediel_sol  =         0.00000000
  ---------------------------------------------------
  free energy    TOTEN  =       -35.64343882 eV

  energy without entropy =      -35.64343882  energy(sigma->0) =      -35.64343882


--------------------------------------------------------------------------------------------------------




----------------------------------------- Iteration  135(   4)  ---------------------------------------


    POTLOK:  cpu time   25.1812: real time   25.1618
    SETDIJ:  cpu time    0.0080: real time    0.0082
     EDDAV:  cpu time   45.7540: real time   45.7172
       DOS:  cpu time    0.0000: real time    0.0002
    CHARGE:  cpu time    7.1349: real time    7.1300
    MIXING:  cpu time    0.7899: real time    0.7882
    --------------------------------------------
      LOOP:  cpu time   78.8710: real time   78.8091

 eigenvalue-minimisations  :    48
 total energy-change (2. order) :-0.2625852E-06  (-0.8475833E-07)
 number of electron      16.0000018 magnetization 
 augmentation part        0.4498186 magnetization 

 Broyden mixing:
  rms(total) = 0.61495E-04    rms(broyden)= 0.61445E-04
  rms(prec ) = 0.63012E-04
  weight for this iteration     100.00

 eigenvalues of (default mixing * dielectric matrix)
  average eigenvalue GAMMA=   1.6821
  2.4186  1.2416  1.3862

 Free energy of the ion-electron system (eV)
  ---------------------------------------------------
  alpha Z        PSCENC =         0.04144063
  Ewald energy   TEWEN  =       702.83891466
  -Hartree energ DENC   =     -1177.84842670
  -exchange      EXHF   =         0.00000000
  -V(xc)+E(xc)   XCENC  =        54.86123395
  PAW double counting   =      1328.82313781    -1331.69089476
  entropy T*S    EENTRO =         0.00000000
  eigenvalues    EBANDS =      -208.83419283
  atomic energy  EATOM  =       596.16534815
  Solvation  Ediel_sol  =         0.00000000
  ---------------------------------------------------
  free energy    TOTEN  =       -35.64343909 eV

  energy without entropy =      -35.64343909  energy(sigma->0) =      -35.64343909


--------------------------------------------------------------------------------------------------------




----------------------------------------- Iteration  135(   5)  ---------------------------------------


    POTLOK:  cpu time   24.7522: real time   24.7323
    SETDIJ:  cpu time    0.0080: real time    0.0083
     EDDAV:  cpu time   46.1380: real time   46.1009
       DOS:  cpu time    0.0000: real time    0.0002
    CHARGE:  cpu time    6.6990: real time    6.6945
    MIXING:  cpu time    0.9079: real time    0.9069
    --------------------------------------------
      LOOP:  cpu time   78.5071: real time   78.4506

 eigenvalue-minimisations  :    48
 total energy-change (2. order) :-0.6834864E-07  (-0.2522450E-07)
 number of electron      16.0000018 magnetization 
 augmentation part        0.4498185 magnetization 

 Broyden mixing:
  rms(total) = 0.22933E-04    rms(broyden)= 0.22919E-04
  rms(prec ) = 0.24164E-04
  weight for this iteration     100.00

 eigenvalues of (default mixing * dielectric matrix)
  average eigenvalue GAMMA=   1.6483
  2.6212  1.7110  0.9248  1.3362

 Free energy of the ion-electron system (eV)
  ---------------------------------------------------
  alpha Z        PSCENC =         0.04144063
  Ewald energy   TEWEN  =       702.83891466
  -Hartree energ DENC   =     -1177.84822563
  -exchange      EXHF   =         0.00000000
  -V(xc)+E(xc)   XCENC  =        54.86122831
  PAW double counting   =      1328.83237238    -1331.70012804
  entropy T*S    EENTRO =         0.00000000
  eigenvalues    EBANDS =      -208.83438961
  atomic energy  EATOM  =       596.16534815
  Solvation  Ediel_sol  =         0.00000000
  ---------------------------------------------------
  free energy    TOTEN  =       -35.64343915 eV

  energy without entropy =      -35.64343915  energy(sigma->0) =      -35.64343915


--------------------------------------------------------------------------------------------------------




----------------------------------------- Iteration  135(   6)  ---------------------------------------


    POTLOK:  cpu time   25.1992: real time   25.1790
    SETDIJ:  cpu time    0.0090: real time    0.0085
     EDDAV:  cpu time   43.4564: real time   43.4214
       DOS:  cpu time    0.0000: real time    0.0002
    --------------------------------------------
      LOOP:  cpu time   68.6676: real time   68.6138

 eigenvalue-minimisations  :    48
 total energy-change (2. order) :-0.3707646E-07  (-0.1055396E-07)
 number of electron      16.0000018 magnetization 
 augmentation part        0.4498185 magnetization 

 Free energy of the ion-electron system (eV)
  ---------------------------------------------------
  alpha Z        PSCENC =         0.04144063
  Ewald energy   TEWEN  =       702.83891466
  -Hartree energ DENC   =     -1177.84810076
  -exchange      EXHF   =         0.00000000
  -V(xc)+E(xc)   XCENC  =        54.86122375
  PAW double counting   =      1328.83644679    -1331.70420146
  entropy T*S    EENTRO =         0.00000000
  eigenvalues    EBANDS =      -208.83451094
  atomic energy  EATOM  =       596.16534815
  Solvation  Ediel_sol  =         0.00000000
  ---------------------------------------------------
  free energy    TOTEN  =       -35.64343919 eV

  energy without entropy =      -35.64343919  energy(sigma->0) =      -35.64343919


--------------------------------------------------------------------------------------------------------




 average (electrostatic) potential at core
  the test charge radii are     0.5201  0.6991  0.7089
  (the norm of the test charge is              1.0000)
       1 -43.0794       2 -43.0812       3 -43.0798       4 -60.5352       5 -59.3465
       6 -74.8316
 
 
 
 E-fermi :  -6.1631     XC(G=0):  -0.0601     alpha+bet : -0.0137


 k-point     1 :       0.2500    0.2500    0.2500
  band No.  band energies     occupation 
      1     -23.8900      2.00000
      2     -19.2993      2.00000
      3     -13.8824      2.00000
      4     -11.7991      2.00000
      5     -11.7978      2.00000
      6      -8.3028      2.00000
      7      -8.3025      2.00000
      8      -7.1434      2.00000
      9      -0.7627      0.00000
     10      -0.6630      0.00000
     11      -0.6617      0.00000
     12       0.0249      0.00000

 k-point     2 :      -0.2500    0.2500    0.2500
  band No.  band energies     occupation 
      1     -23.8900      2.00000
      2     -19.2993      2.00000
      3     -13.8824      2.00000
      4     -11.7991      2.00000
      5     -11.7978      2.00000
      6      -8.3028      2.00000
      7      -8.3025      2.00000
      8      -7.1434      2.00000
      9      -0.7627      0.00000
     10      -0.6630      0.00000
     11      -0.6617      0.00000
     12       0.0247      0.00000

 k-point     3 :       0.2500   -0.2500    0.2500
  band No.  band energies     occupation 
      1     -23.8900      2.00000
      2     -19.2993      2.00000
      3     -13.8824      2.00000
      4     -11.7991      2.00000
      5     -11.7978      2.00000
      6      -8.3028      2.00000
      7      -8.3025      2.00000
      8      -7.1434      2.00000
      9      -0.7627      0.00000
     10      -0.6630      0.00000
     11      -0.6617      0.00000
     12       0.0249      0.00000

 k-point     4 :      -0.2500   -0.2500    0.2500
  band No.  band energies     occupation 
      1     -23.8900      2.00000
      2     -19.2993      2.00000
      3     -13.8824      2.00000
      4     -11.7991      2.00000
      5     -11.7978      2.00000
      6      -8.3028      2.00000
      7      -8.3025      2.00000
      8      -7.1434      2.00000
      9      -0.7627      0.00000
     10      -0.6630      0.00000
     11      -0.6617      0.00000
     12       0.0249      0.00000


--------------------------------------------------------------------------------------------------------


 soft charge-density along one line, spin component           1
         0         1         2         3         4         5         6         7         8         9
 total charge-density along one line
 
 pseudopotential strength for first ion, spin component:           1
 -2.363  -4.075  -0.002   0.001  -0.001
 -4.075  -6.942  -0.005   0.002  -0.002
 -0.002  -0.005  -0.330  -0.001   0.002
  0.001   0.002  -0.001  -0.334  -0.001
 -0.001  -0.002   0.002  -0.001  -0.333
 total augmentation occupancy for first ion, spin component:           1
  3.522  -0.634   0.380  -0.141   0.184
 -0.634   0.131  -0.070   0.026  -0.033
  0.380  -0.070   0.043  -0.013   0.018
 -0.141   0.026  -0.013   0.014  -0.006
  0.184  -0.033   0.018  -0.006   0.014


------------------------ aborting loop because EDIFF is reached ----------------------------------------


    CHARGE:  cpu time    5.8791: real time    5.8739
    FORLOC:  cpu time    2.8576: real time    2.8549
    FORNL :  cpu time   18.7112: real time   18.6957
    STRESS:  cpu time   59.8679: real time   59.8193
    FORCOR:  cpu time   22.8315: real time   22.8119
    FORHAR:  cpu time    7.7638: real time    7.7581
    MIXING:  cpu time    0.8639: real time    0.8627
    OFIELD:  cpu time    0.0000: real time    0.0000

  FORCE on cell =-STRESS in cart. coord.  units (eV):
  Direction    XX          YY          ZZ          XY          YZ          ZX
  --------------------------------------------------------------------------------------
  Alpha Z     0.04144     0.04144     0.04144
  Ewald     585.07083    51.15199    66.61578   -80.33234    17.96280  -121.75387
  Hartree   576.61241   296.57926   304.65634   -42.05880     9.40468   -63.63298
  E(xc)     -58.85786   -60.16915   -60.13070    -0.19755     0.04418    -0.30020
  Local   -1302.47506  -521.97963  -544.53934   117.35917   -26.24263   177.72707
  n-local   -26.54989   -24.41750   -24.47842     0.31558    -0.06920     0.48865
  augment     0.49254     0.98840     0.97068     0.07437    -0.01664     0.11315
  Kinetic   224.84913   256.81266   255.88037     4.81870    -1.07792     7.31991
  Fock        0.00000     0.00000     0.00000     0.00000     0.00000     0.00000
  -------------------------------------------------------------------------------------
  Total      -0.81645    -0.99252    -0.98384    -0.02086     0.00527    -0.03826
  in kB      -0.04845    -0.05890    -0.05838    -0.00124     0.00031    -0.00227
  external pressure =       -0.06 kB  Pullay stress =        0.00 kB


 VOLUME and BASIS-vectors are now :
 -----------------------------------------------------------------------------
  energy-cutoff  :      400.00
  volume of cell :    27000.00
      direct lattice vectors                 reciprocal lattice vectors
    30.000000000  0.000000000  0.000000000     0.033333333  0.000000000  0.000000000
     0.000000000 30.000000000  0.000000000     0.000000000  0.033333333  0.000000000
     0.000000000  0.000000000 30.000000000     0.000000000  0.000000000  0.033333333

  length of vectors
    30.000000000 30.000000000 30.000000000     0.033333333  0.033333333  0.033333333


 FORCES acting on ions
    electron-ion (+dipol)            ewald-force                    non-local-force                 convergence-correction
 -----------------------------------------------------------------------------------------------
   0.381E+02 0.505E+02 -.223E+02   -.404E+02 -.553E+02 0.241E+02   0.236E+01 0.484E+01 -.180E+01   -.814E-05 0.214E-04 -.377E-05
   0.429E+02 -.211E+02 0.470E+02   -.457E+02 0.229E+02 -.516E+02   0.281E+01 -.178E+01 0.460E+01   0.128E-04 0.325E-04 -.760E-05
   0.185E+02 -.441E+02 -.469E+02   -.191E+02 0.480E+02 0.510E+02   0.554E+00 -.391E+01 -.408E+01   0.971E-05 0.307E-04 -.152E-04
   0.117E+03 -.174E+02 -.262E+02   -.124E+03 0.185E+02 0.278E+02   0.732E+01 -.109E+01 -.164E+01   0.354E-04 0.168E-03 -.584E-04
   -.223E+03 0.327E+02 0.499E+02   0.248E+03 -.364E+02 -.556E+02   -.257E+02 0.376E+01 0.576E+01   0.146E-04 0.317E-03 -.829E-04
   0.158E+02 -.193E+01 -.367E+01   -.188E+02 0.232E+01 0.436E+01   0.299E+01 -.394E+00 -.685E+00   0.470E-04 0.192E-03 -.806E-04
 -----------------------------------------------------------------------------------------------
   0.965E+01 -.143E+01 -.216E+01   0.284E-13 -.355E-14 0.711E-14   -.966E+01 0.142E+01 0.216E+01   0.111E-03 0.762E-03 -.248E-03
 
 
 POSITION                                       TOTAL-FORCE (eV/Angst)
 -----------------------------------------------------------------------------------
     14.08470     14.12863     15.45175        -0.002713     -0.001355      0.000713
     13.99836     15.41302     14.20879        -0.002413      0.001004     -0.000611
     14.43546     15.82646     15.89409         0.001593      0.001298     -0.000708
     14.53514     15.06888     15.10400        -0.001903      0.000296     -0.000428
     17.04347     14.69818     14.54285         0.005002      0.000763      0.002526
     15.90316     14.86518     14.79841         0.000434     -0.002006     -0.001493
 -----------------------------------------------------------------------------------
    total drift:                               -0.015985     -0.007016      0.001898


--------------------------------------------------------------------------------------------------------



  FREE ENERGIE OF THE ION-ELECTRON SYSTEM (eV)
  ---------------------------------------------------
  free  energy   TOTEN  =       -35.64343919 eV

  energy  without entropy=      -35.64343919  energy(sigma->0) =      -35.64343919
 
 d Force = 0.1512156E-05[ 0.134E-05, 0.168E-05]  d Energy = 0.1543614E-05-0.315E-07
 d Force =-0.1335688E-01[-0.133E-01,-0.134E-01]  d Ewald  =-0.1335688E-01 0.112E-08


--------------------------------------------------------------------------------------------------------


    POTLOK:  cpu time   20.5599: real time   20.5434


--------------------------------------------------------------------------------------------------------


 NEB: the previous image is higher in energy: T
 NEB: the next image is higher in energy    : F
 NEB: only prev energy greater

 NEB: Tangent
 ----------------------------------------------
      0.28296     -0.32305      0.07371
     -0.21912     -0.30317      0.07247
     -0.21373     -0.16883      0.04379
     -0.02895     -0.14980      0.03640
      0.12481      0.65934     -0.15985
      0.05389      0.28472     -0.06656

 NEB: forces: par spring, perp REAL, dneb     0.100147    0.007986    0.000000
 NEB: distance to prev, next image, angle between     0.548497    0.528468  124.765097
 NEB: projections on to tangent (spring, REAL)    -0.100147   -0.000417

 stress matrix after NEB project (eV)
     -0.81645     -0.02086     -0.03826
     -0.02086     -0.99252      0.00527
     -0.03826      0.00527     -0.98384
  FORCES: max atom, RMS     0.067975    0.041015
  FORCE total and by dimension    0.100465    0.064993
  Stress total and by dimension    1.619722    0.992525
 OPT: skip step - force has converged


--------------------------------------------------------------------------------------------------------


  
 reached required accuracy - stopping structural energy minimisation
     LOOP+:  cpu time  682.4003: real time  681.8818
    4ORBIT:  cpu time    0.0000: real time    0.0000

 total amount of memory used by VASP on root node  3203888. kBytes
========================================================================

   base      :      30000. kBytes
   nonlr-proj:        692. kBytes
   fftplans  :     924480. kBytes
   grid      :    1872000. kBytes
   one-center:         18. kBytes
   wavefun   :     376698. kBytes
 
  
  
 General timing and accounting informations for this job:
 ========================================================
  
                  Total CPU time used (sec):    97156.289
                            User time (sec):    95651.658
                          System time (sec):     1504.629
                         Elapsed time (sec):    97129.256
  
                   Maximum memory used (kb):     4751096.
                   Average memory used (kb):           0.
  
                          Minor page faults:    112172001
                          Major page faults:            9
                 Voluntary context switches:        15739
