unknown system                          
           1
    30.000000    0.000000    0.000000
     0.000000   30.000000    0.000000
     0.000000    0.000000   30.000000
   H    C    N 
   3   2   1
Direct configuration=     1
   0.47108641  0.46865281  0.51234009
   0.46691108  0.51451473  0.47446967
   0.47881754  0.52431642  0.53205639
   0.48454072  0.50162519  0.50386651
   0.56805808  0.49305483  0.48318873
   0.53059626  0.49784840  0.49407507
Direct configuration=     2
   0.47103560  0.46870690  0.51241749
   0.46689449  0.51453066  0.47447700
   0.47893307  0.52439683  0.53202864
   0.48453634  0.50164476  0.50386746
   0.56806005  0.49294680  0.48317488
   0.53055048  0.49778643  0.49403101
Direct configuration=     3
   0.47096200  0.46878198  0.51252586
   0.46686633  0.51455317  0.47448747
   0.47909711  0.52450977  0.53199105
   0.48453180  0.50167082  0.50386716
   0.56806030  0.49280028  0.48316181
   0.53049243  0.49769637  0.49396316
Direct configuration=     4
   0.47087095  0.46886873  0.51265225
   0.46682366  0.51457971  0.47450107
   0.47929311  0.52464112  0.53194840
   0.48451796  0.50169938  0.50386629
   0.56800367  0.49264608  0.48317445
   0.53050053  0.49757738  0.49385409
Direct configuration=     5
   0.47077043  0.46895972  0.51278462
   0.46676706  0.51460674  0.47451765
   0.47950769  0.52477735  0.53190283
   0.48451719  0.50172526  0.50385905
   0.56802613  0.49248804  0.48318267
   0.53042129  0.49745529  0.49374977
Direct configuration=     6
   0.47066610  0.46904438  0.51290582
   0.46669056  0.51463098  0.47454109
   0.47972510  0.52489662  0.53185748
   0.48450816  0.50174517  0.50384792
   0.56802237  0.49237355  0.48323181
   0.53039744  0.49732170  0.49361250
Direct configuration=     7
   0.47055772  0.46912119  0.51300386
   0.46658229  0.51465726  0.47458617
   0.47995926  0.52497907  0.53181566
   0.48450136  0.50175314  0.50382736
   0.56806133  0.49231794  0.48331521
   0.53034770  0.49718381  0.49344839
Direct configuration=     8
   0.47045272  0.46917982  0.51305509
   0.46643632  0.51469442  0.47466893
   0.48021088  0.52499326  0.53179096
   0.48449689  0.50174085  0.50379463
   0.56812216  0.49235567  0.48344012
   0.53029064  0.49704842  0.49324696
Direct configuration=     9
   0.47035435  0.46920419  0.51303671
   0.46624177  0.51475685  0.47480585
   0.48049208  0.52490725  0.53180162
   0.48449493  0.50169899  0.50374591
   0.56818092  0.49252579  0.48361655
   0.53024552  0.49691945  0.49299010
Direct configuration=    10
   0.47026357  0.46916522  0.51292097
   0.46598205  0.51486738  0.47501313
   0.48083043  0.52468163  0.53187240
   0.48450796  0.50161333  0.50367516
   0.56833222  0.49286576  0.48382997
   0.53009331  0.49681933  0.49268520
Direct configuration=    11
   0.47017365  0.46904537  0.51271227
   0.46565235  0.51504081  0.47528201
   0.48123962  0.52432146  0.53201481
   0.48445398  0.50149134  0.50360230
   0.56819082  0.49341494  0.48417053
   0.53029911  0.49669896  0.49221503
Direct configuration=    12
   0.47018062  0.46902755  0.51269634
   0.46564852  0.51505339  0.47528740
   0.48125218  0.52430084  0.53202962
   0.48449956  0.50148009  0.50358928
   0.56851788  0.49341261  0.48410385
   0.52991076  0.49673842  0.49229048
Direct configuration=    13
   0.47018132  0.46902662  0.51269813
   0.46564947  0.51505394  0.47528430
   0.48124909  0.52430375  0.53203077
   0.48449150  0.50148153  0.50359178
   0.56847676  0.49341327  0.48410991
   0.52996139  0.49673379  0.49228207
Direct configuration=    14
   0.47018296  0.46902427  0.51270089
   0.46565120  0.51505539  0.47527872
   0.48124370  0.52430839  0.53203341
   0.48447799  0.50148384  0.50359600
   0.56840933  0.49341465  0.48411930
   0.53004436  0.49672637  0.49226865
Direct configuration=    15
   0.47018795  0.46901634  0.51270318
   0.46565455  0.51506041  0.47526880
   0.48123502  0.52431339  0.53204108
   0.48446245  0.50148623  0.50360125
   0.56834286  0.49341637  0.48412403
   0.53012670  0.49672015  0.49225862
Direct configuration=    16
   0.47018829  0.46901585  0.51270298
   0.46565470  0.51506072  0.47526860
   0.48123492  0.52431319  0.53204148
   0.48446326  0.50148611  0.50360108
   0.56834862  0.49341612  0.48412252
   0.53011975  0.49672091  0.49226030
Direct configuration=    17
   0.47018896  0.46901488  0.51270259
   0.46565501  0.51506134  0.47526820
   0.48123470  0.52431279  0.53204229
   0.48446476  0.50148588  0.50360076
   0.56835957  0.49341564  0.48411960
   0.53010652  0.49672236  0.49226352
Direct configuration=    18
   0.47018996  0.46901341  0.51270203
   0.46565549  0.51506228  0.47526757
   0.48123434  0.52431222  0.53204351
   0.48446680  0.50148557  0.50360035
   0.56837464  0.49341501  0.48411548
   0.53008830  0.49672440  0.49226803
Direct configuration=    19
   0.47019133  0.46901142  0.51270132
   0.46565616  0.51506356  0.47526667
   0.48123374  0.52431151  0.53204518
   0.48446912  0.50148521  0.50359991
   0.56839237  0.49341432  0.48411039
   0.53006682  0.49672688  0.49227350
Direct configuration=    20
   0.47019327  0.46900862  0.51270041
   0.46565715  0.51506538  0.47526528
   0.48123265  0.52431065  0.53204757
   0.48447129  0.50148485  0.50359959
   0.56841083  0.49341371  0.48410442
   0.53004434  0.49672968  0.49227969
Direct configuration=    21
   0.47019334  0.46900853  0.51270039
   0.46565719  0.51506544  0.47526522
   0.48123258  0.52431064  0.53204766
   0.48447123  0.50148486  0.50359962
   0.56841064  0.49341374  0.48410437
   0.53004455  0.49672969  0.49227971
Direct configuration=    22
   0.47019347  0.46900834  0.51270034
   0.46565726  0.51506557  0.47526512
   0.48123246  0.52431059  0.53204783
   0.48447110  0.50148487  0.50359967
   0.56841026  0.49341382  0.48410428
   0.53004497  0.49672971  0.49227973
Direct configuration=    23
   0.47019366  0.46900804  0.51270024
   0.46565736  0.51506578  0.47526499
   0.48123230  0.52431048  0.53204810
   0.48447091  0.50148487  0.50359975
   0.56840971  0.49341398  0.48410415
   0.53004558  0.49672974  0.49227974
Direct configuration=    24
   0.47019391  0.46900763  0.51270008
   0.46565746  0.51506607  0.47526485
   0.48123213  0.52431029  0.53204848
   0.48447067  0.50148486  0.50359984
   0.56840899  0.49341425  0.48410400
   0.53004637  0.49672980  0.49227972
Direct configuration=    25
   0.47019423  0.46900709  0.51269982
   0.46565756  0.51506645  0.47526472
   0.48123195  0.52430998  0.53204897
   0.48447037  0.50148483  0.50359995
   0.56840813  0.49341466  0.48410383
   0.53004730  0.49672989  0.49227968
Direct configuration=    26
   0.47019460  0.46900643  0.51269948
   0.46565766  0.51506693  0.47526460
   0.48123177  0.52430955  0.53204958
   0.48447001  0.50148478  0.50360007
   0.56840714  0.49341521  0.48410364
   0.53004834  0.49673001  0.49227960
Direct configuration=    27
   0.47019510  0.46900556  0.51269903
   0.46565780  0.51506756  0.47526444
   0.48123153  0.52430899  0.53205038
   0.48446957  0.50148471  0.50360023
   0.56840593  0.49341591  0.48410336
   0.53004960  0.49673017  0.49227952
Direct configuration=    28
   0.47019577  0.46900447  0.51269854
   0.46565805  0.51506835  0.47526414
   0.48123113  0.52430840  0.53205139
   0.48446901  0.50148465  0.50360045
   0.56840451  0.49341665  0.48410289
   0.53005108  0.49673039  0.49227956
Direct configuration=    29
   0.47019664  0.46900319  0.51269811
   0.46565849  0.51506924  0.47526356
   0.48123042  0.52430793  0.53205256
   0.48446833  0.50148466  0.50360076
   0.56840291  0.49341724  0.48410212
   0.53005273  0.49673064  0.49227986
Direct configuration=    30
   0.47019774  0.46900180  0.51269790
   0.46565924  0.51507017  0.47526255
   0.48122926  0.52430784  0.53205384
   0.48446756  0.50148479  0.50360117
   0.56840126  0.49341738  0.48410092
   0.53005447  0.49673092  0.49228060
Direct configuration=    31
   0.47019908  0.46900043  0.51269814
   0.46566044  0.51507101  0.47526088
   0.48122743  0.52430846  0.53205509
   0.48446670  0.50148513  0.50360173
   0.56839966  0.49341668  0.48409910
   0.53005621  0.49673119  0.49228203
Direct configuration=    32
   0.47020072  0.46899924  0.51269917
   0.46566233  0.51507160  0.47525821
   0.48122457  0.52431029  0.53205617
   0.48446579  0.50148584  0.50360248
   0.56839823  0.49341454  0.48409639
   0.53005789  0.49673139  0.49228454
Direct configuration=    33
   0.47020272  0.46899852  0.51270154
   0.46566527  0.51507163  0.47525397
   0.48122013  0.52431417  0.53205679
   0.48446482  0.50148713  0.50360354
   0.56839712  0.49340999  0.48409238
   0.53005946  0.49673146  0.49228874
Direct configuration=    34
   0.47020515  0.46899872  0.51270613
   0.46566984  0.51507063  0.47524733
   0.48121328  0.52432137  0.53205650
   0.48446384  0.50148937  0.50360503
   0.56839645  0.49340154  0.48408647
   0.53006098  0.49673126  0.49229551
Direct configuration=    35
   0.47020807  0.46900061  0.51271426
   0.46567688  0.51506782  0.47523704
   0.48120277  0.52433387  0.53205452
   0.48446289  0.50149311  0.50360715
   0.56839623  0.49338692  0.48407781
   0.53006269  0.49673056  0.49230618
Direct configuration=    36
   0.47021151  0.46900541  0.51272799
   0.46568765  0.51506192  0.47522127
   0.48118686  0.52435462  0.53204957
   0.48446204  0.50149916  0.50361018
   0.56839630  0.49336276  0.48406532
   0.53006516  0.49672901  0.49232264
Direct configuration=    37
   0.47021539  0.46901502  0.51275036
   0.46570396  0.51505094  0.47519741
   0.48116322  0.52438799  0.53203954
   0.48446143  0.50150872  0.50361446
   0.56839616  0.49332422  0.48404772
   0.53006936  0.49672597  0.49234746
Direct configuration=    38
   0.47021937  0.46903232  0.51278590
   0.46572824  0.51503183  0.47516187
   0.48112909  0.52444030  0.53202103
   0.48446121  0.50152346  0.50362040
   0.56839449  0.49326454  0.48402386
   0.53007712  0.49672038  0.49238388
Direct configuration=    39
   0.47022251  0.46906154  0.51284125
   0.46576364  0.51500011  0.47510975
   0.48108176  0.52452059  0.53198865
   0.48446155  0.50154561  0.50362824
   0.56838943  0.49317466  0.48399344
   0.53009063  0.49671029  0.49243558
Direct configuration=    40
   0.47022276  0.46910860  0.51292607
   0.46581364  0.51494949  0.47503459
   0.48102010  0.52464149  0.53193407
   0.48446261  0.50157793  0.50363775
   0.56837883  0.49304326  0.48395871
   0.53011159  0.49669195  0.49250569
Direct configuration=    41
   0.47021594  0.46918101  0.51305340
   0.46588069  0.51487234  0.47492895
   0.48094783  0.52481897  0.53184545
   0.48446395  0.50162331  0.50364748
   0.56835983  0.49285860  0.48392784
   0.53014128  0.49665840  0.49259371
Direct configuration=    42
   0.47019551  0.46928693  0.51323787
   0.46596433  0.51476124  0.47478656
   0.48087660  0.52506934  0.53170843
   0.48446526  0.50168368  0.50365375
   0.56833686  0.49261237  0.48391617
   0.53017094  0.49659893  0.49269398
Direct configuration=    43
   0.47015407  0.46943291  0.51348942
   0.46605953  0.51461245  0.47460712
   0.48082458  0.52540081  0.53151103
   0.48446370  0.50175856  0.50365195
   0.56830752  0.49230573  0.48394612
   0.53020009  0.49650183  0.49279102
Direct configuration=    44
   0.47009021  0.46962861  0.51381665
   0.46616989  0.51441899  0.47438748
   0.48079410  0.52582279  0.53124129
   0.48446170  0.50184970  0.50364112
   0.56828565  0.49192754  0.48401816
   0.53020793  0.49636443  0.49289183
Direct configuration=    45
   0.47000416  0.46988527  0.51422352
   0.46629835  0.51417492  0.47412883
   0.48078694  0.52633805  0.53088786
   0.48446045  0.50195783  0.50362142
   0.56827678  0.49147016  0.48413253
   0.53018281  0.49618553  0.49300222
Direct configuration=    46
   0.46989753  0.47021701  0.51470936
   0.46644701  0.51387472  0.47383701
   0.48080516  0.52694256  0.53043842
   0.48445456  0.50208267  0.50359506
   0.56824059  0.49093440  0.48430002
   0.53016463  0.49596004  0.49311633
Direct configuration=    47
   0.46977641  0.47063753  0.51525833
   0.46661455  0.51351769  0.47353040
   0.48085115  0.52761140  0.52988625
   0.48444295  0.50221949  0.50356359
   0.56814409  0.49033238  0.48452313
   0.53018030  0.49569249  0.49323428
Direct configuration=    48
   0.46965495  0.47113659  0.51581601
   0.46678679  0.51312245  0.47325198
   0.48092466  0.52827054  0.52925748
   0.48446130  0.50235426  0.50351772
   0.56811225  0.48969040  0.48474996
   0.53006949  0.49543630  0.49340259
Direct configuration=    49
   0.46965572  0.47113578  0.51580921
   0.46678373  0.51312446  0.47325788
   0.48092507  0.52826107  0.52926025
   0.48446147  0.50235327  0.50351708
   0.56809824  0.48969811  0.48475068
   0.53008521  0.49543786  0.49340066
Direct configuration=    50
   0.46965733  0.47113408  0.51579556
   0.46677764  0.51312853  0.47326959
   0.48092597  0.52824214  0.52926587
   0.48446263  0.50235116  0.50351561
   0.56807547  0.48971275  0.48475092
   0.53011039  0.49544190  0.49339820
Direct configuration=    51
   0.46965988  0.47113124  0.51577485
   0.46676846  0.51313475  0.47328700
   0.48092747  0.52821366  0.52927458
   0.48446635  0.50234750  0.50351306
   0.56805377  0.48973311  0.48474846
   0.53013351  0.49545032  0.49339781
Direct configuration=    52
   0.46966323  0.47112710  0.51574824
   0.46675666  0.51314291  0.47330881
   0.48092958  0.52817743  0.52928621
   0.48447359  0.50234221  0.50350943
   0.56804289  0.48975685  0.48474150
   0.53014349  0.49546409  0.49340158
Direct configuration=    53
   0.46966718  0.47112150  0.51571698
   0.46674269  0.51315281  0.47333369
   0.48093224  0.52813537  0.52930062
   0.48448404  0.50233538  0.50350497
   0.56804588  0.48978262  0.48472980
   0.53013741  0.49548292  0.49340971
Direct configuration=    54
   0.46967156  0.47111390  0.51568152
   0.46672656  0.51316434  0.47336071
   0.48093513  0.52808844  0.52931801
   0.48449650  0.50232708  0.50350002
   0.56805976  0.48981091  0.48471460
   0.53011993  0.49550596  0.49342093
Direct configuration=    55
   0.46967663  0.47110200  0.51563696
   0.46670556  0.51317940  0.47339255
   0.48093824  0.52803084  0.52934184
   0.48451009  0.50231613  0.50349465
   0.56807742  0.48984772  0.48469635
   0.53010151  0.49553456  0.49343346
Direct configuration=    56
   0.46968188  0.47108475  0.51558398
   0.46667946  0.51319837  0.47342810
   0.48094135  0.52796396  0.52937306
   0.48452097  0.50230312  0.50348990
   0.56808335  0.48989519  0.48467888
   0.53010243  0.49556529  0.49344190
Direct configuration=    57
   0.46968690  0.47106065  0.51552336
   0.46664830  0.51322171  0.47346601
   0.48094431  0.52788942  0.52941283
   0.48452687  0.50228860  0.50348650
   0.56807243  0.48995396  0.48466378
   0.53013063  0.49559637  0.49344336
Direct configuration=    58
   0.46969139  0.47102441  0.51545348
   0.46661091  0.51325150  0.47350479
   0.48094687  0.52780700  0.52946595
   0.48452804  0.50227209  0.50348470
   0.56806207  0.49002492  0.48464763
   0.53017018  0.49563084  0.49343931
Direct configuration=    59
   0.46969552  0.47097692  0.51537811
   0.46657013  0.51328660  0.47354237
   0.48094950  0.52772128  0.52953029
   0.48453019  0.50225420  0.50348337
   0.56808593  0.49009954  0.48462378
   0.53017819  0.49567228  0.49343797
Direct configuration=    60
   0.46969906  0.47091651  0.51529985
   0.46652790  0.51332704  0.47357651
   0.48095205  0.52763621  0.52960626
   0.48453164  0.50223624  0.50348319
   0.56814102  0.49017711  0.48459491
   0.53015779  0.49571776  0.49343518
Direct configuration=    61
   0.46969894  0.47091528  0.51530005
   0.46652808  0.51332752  0.47357594
   0.48095199  0.52763693  0.52960728
   0.48453009  0.50223654  0.50348371
   0.56813596  0.49017832  0.48459669
   0.53016440  0.49571628  0.49343224
Direct configuration=    62
   0.46969882  0.47091264  0.51530019
   0.46652843  0.51332860  0.47357490
   0.48095182  0.52763806  0.52960951
   0.48452729  0.50223704  0.50348472
   0.56812757  0.49018076  0.48459978
   0.53017552  0.49571377  0.49342682
Direct configuration=    63
   0.46969891  0.47090812  0.51529984
   0.46652901  0.51333058  0.47357356
   0.48095147  0.52763917  0.52961348
   0.48452371  0.50223754  0.50348618
   0.56811917  0.49018453  0.48460335
   0.53018719  0.49571094  0.49341951
Direct configuration=    64
   0.46969898  0.47090774  0.51529968
   0.46652905  0.51333078  0.47357354
   0.48095143  0.52763908  0.52961385
   0.48452368  0.50223750  0.50348625
   0.56811978  0.49018476  0.48460327
   0.53018654  0.49571102  0.49341933
Direct configuration=    65
   0.46969915  0.47090692  0.51529927
   0.46652911  0.51333121  0.47357355
   0.48095133  0.52763878  0.52961464
   0.48452361  0.50223740  0.50348640
   0.56812096  0.49018532  0.48460309
   0.53018530  0.49571124  0.49341896
Direct configuration=    66
   0.46969947  0.47090562  0.51529851
   0.46652919  0.51333193  0.47357366
   0.48095114  0.52763814  0.52961596
   0.48452348  0.50223721  0.50348663
   0.56812260  0.49018633  0.48460278
   0.53018358  0.49571163  0.49341836
Direct configuration=    67
   0.46969995  0.47090376  0.51529729
   0.46652925  0.51333301  0.47357394
   0.48095084  0.52763703  0.52961788
   0.48452329  0.50223692  0.50348697
   0.56812458  0.49018792  0.48460231
   0.53018156  0.49571223  0.49341751
Direct configuration=    68
   0.46970063  0.47090132  0.51529552
   0.46652928  0.51333448  0.47357447
   0.48095041  0.52763531  0.52962048
   0.48452302  0.50223650  0.50348743
   0.56812670  0.49019018  0.48460166
   0.53017941  0.49571307  0.49341637
Direct configuration=    69
   0.46970154  0.47089826  0.51529311
   0.46652927  0.51333641  0.47357529
   0.48094986  0.52763288  0.52962381
   0.48452265  0.50223594  0.50348803
   0.56812880  0.49019322  0.48460080
   0.53017735  0.49571416  0.49341488
Direct configuration=    70
   0.46970281  0.47089415  0.51528964
   0.46652918  0.51333911  0.47357662
   0.48094910  0.52762926  0.52962839
   0.48452210  0.50223515  0.50348884
   0.56813091  0.49019755  0.48459963
   0.53017537  0.49571566  0.49341279
Direct configuration=    71
   0.46970454  0.47088872  0.51528484
   0.46652898  0.51334276  0.47357857
   0.48094806  0.52762415  0.52963454
   0.48452130  0.50223406  0.50348994
   0.56813282  0.49020355  0.48459811
   0.53017376  0.49571764  0.49340991
Direct configuration=    72
   0.46970681  0.47088173  0.51527841
   0.46652867  0.51334763  0.47358133
   0.48094676  0.52761720  0.52964261
   0.48452019  0.50223262  0.50349138
   0.56813422  0.49021156  0.48459621
   0.53017282  0.49572014  0.49340598
Direct configuration=    73
   0.46970972  0.47087288  0.51527000
   0.46652821  0.51335399  0.47358507
   0.48094513  0.52760803  0.52965298
   0.48451870  0.50223074  0.50349322
   0.56813491  0.49022200  0.48459389
   0.53017279  0.49572325  0.49340076
Direct configuration=    74
   0.46971340  0.47086178  0.51525920
   0.46652756  0.51336214  0.47359001
   0.48094315  0.52759616  0.52966613
   0.48451680  0.50222832  0.50349550
   0.56813484  0.49023539  0.48459107
   0.53017371  0.49572710  0.49339402
Direct configuration=    75
   0.46971803  0.47084800  0.51524555
   0.46652667  0.51337245  0.47359641
   0.48094078  0.52758104  0.52968259
   0.48451455  0.50222520  0.50349827
   0.56813436  0.49025226  0.48458756
   0.53017509  0.49573196  0.49338557
Direct configuration=    76
   0.46972376  0.47083109  0.51522848
   0.46652548  0.51338534  0.47360457
   0.48093801  0.52756199  0.52970294
   0.48451211  0.50222118  0.50350149
   0.56813435  0.49027316  0.48458306
   0.53017575  0.49573816  0.49337539
Direct configuration=    77
   0.46973076  0.47081059  0.51520751
   0.46652390  0.51340120  0.47361484
   0.48093487  0.52753835  0.52972772
   0.48450971  0.50221606  0.50350510
   0.56813611  0.49029864  0.48457722
   0.53017412  0.49574611  0.49336357
Direct configuration=    78
   0.46973929  0.47078600  0.51518214
   0.46652173  0.51342029  0.47362751
   0.48093129  0.52750938  0.52975737
   0.48450750  0.50220956  0.50350900
   0.56814033  0.49032954  0.48456990
   0.53016933  0.49575619  0.49335003
Direct configuration=    79
   0.46974957  0.47075679  0.51515182
   0.46651866  0.51344298  0.47364299
   0.48092730  0.52747413  0.52979236
   0.48450537  0.50220145  0.50351315
   0.56814582  0.49036711  0.48456149
   0.53016275  0.49576853  0.49333417
Direct configuration=    80
   0.46976174  0.47072269  0.51511636
   0.46651422  0.51346930  0.47366156
   0.48092297  0.52743190  0.52983267
   0.48450282  0.50219157  0.50351755
   0.56814928  0.49041281  0.48455292
   0.53015843  0.49578273  0.49331493
Direct configuration=    81
   0.46977556  0.47068420  0.51507623
   0.46650779  0.51349922  0.47368321
   0.48091894  0.52738259  0.52987748
   0.48449957  0.50217986  0.50352212
   0.56814927  0.49046700  0.48454515
   0.53015835  0.49579815  0.49329181
Direct configuration=    82
   0.46978935  0.47064429  0.51503427
   0.46649824  0.51353221  0.47370678
   0.48091811  0.52732841  0.52992303
   0.48449734  0.50216618  0.50352522
   0.56815645  0.49052607  0.48453917
   0.53014997  0.49581391  0.49326754
Direct configuration=    83
   0.46978907  0.47064474  0.51503475
   0.46649815  0.51353208  0.47370657
   0.48091848  0.52732889  0.52992249
   0.48449729  0.50216628  0.50352505
   0.56815634  0.49052559  0.48453966
   0.53015014  0.49581348  0.49326750
Direct configuration=    84
   0.46978832  0.47064597  0.51503605
   0.46649807  0.51353169  0.47370590
   0.48091933  0.52733035  0.52992108
   0.48449721  0.50216659  0.50352468
   0.56815614  0.49052409  0.48454082
   0.53015040  0.49581237  0.49326749
Direct configuration=    85
   0.46978715  0.47064790  0.51503818
   0.46649798  0.51353101  0.47370479
   0.48092063  0.52733278  0.52991882
   0.48449709  0.50216710  0.50352409
   0.56815595  0.49052164  0.48454262
   0.53015066  0.49581064  0.49326752
Direct configuration=    86
   0.46978559  0.47065052  0.51504110
   0.46649787  0.51353001  0.47370326
   0.48092235  0.52733611  0.52991574
   0.48449697  0.50216778  0.50352331
   0.56815586  0.49051833  0.48454501
   0.53015083  0.49580832  0.49326760
Direct configuration=    87
   0.46978366  0.47065377  0.51504477
   0.46649773  0.51352873  0.47370135
   0.48092449  0.52734027  0.52991187
   0.48449685  0.50216861  0.50352233
   0.56815596  0.49051420  0.48454796
   0.53015078  0.49580549  0.49326774
Direct configuration=    88
   0.46978138  0.47065762  0.51504910
   0.46649754  0.51352720  0.47369910
   0.48092704  0.52734516  0.52990727
   0.48449674  0.50216957  0.50352117
   0.56815630  0.49050934  0.48455143
   0.53015047  0.49580218  0.49326794
Direct configuration=    89
   0.46977850  0.47066251  0.51505456
   0.46649726  0.51352524  0.47369629
   0.48093032  0.52735131  0.52990141
   0.48449663  0.50217075  0.50351969
   0.56815693  0.49050324  0.48455584
   0.53014983  0.49579801  0.49326822
Direct configuration=    90
   0.46977492  0.47066861  0.51506126
   0.46649683  0.51352283  0.47369290
   0.48093450  0.52735878  0.52989409
   0.48449651  0.50217216  0.50351783
   0.56815778  0.49049584  0.48456142
   0.53014893  0.49579282  0.49326851
Direct configuration=    91
   0.46977055  0.47067606  0.51506924
   0.46649616  0.51351997  0.47368896
   0.48093978  0.52736757  0.52988514
   0.48449634  0.50217378  0.50351554
   0.56815864  0.49048720  0.48456845
   0.53014799  0.49578647  0.49326867
Direct configuration=    92
   0.46976532  0.47068494  0.51507837
   0.46649508  0.51351671  0.47368464
   0.48094642  0.52737746  0.52987450
   0.48449607  0.50217554  0.50351276
   0.56815926  0.49047759  0.48457724
   0.53014732  0.49577880  0.49326849
Direct configuration=    93
   0.46975917  0.47069517  0.51508824
   0.46649321  0.51351327  0.47368036
   0.48095484  0.52738778  0.52986224
   0.48449577  0.50217724  0.50350934
   0.56815985  0.49046777  0.48458811
   0.53014662  0.49576982  0.49326770
Direct configuration=    94
   0.46975237  0.47070578  0.51509759
   0.46649009  0.51351018  0.47367699
   0.48096516  0.52739693  0.52984943
   0.48449570  0.50217842  0.50350520
   0.56816172  0.49045947  0.48460066
   0.53014443  0.49576026  0.49326612
Direct configuration=    95
   0.46975236  0.47070570  0.51509746
   0.46648998  0.51351024  0.47367711
   0.48096525  0.52739673  0.52984952
   0.48449571  0.50217836  0.50350517
   0.56816177  0.49045972  0.48460073
   0.53014440  0.49576028  0.49326602
Direct configuration=    96
   0.46975237  0.47070551  0.51509715
   0.46648976  0.51351038  0.47367735
   0.48096541  0.52739631  0.52984971
   0.48449572  0.50217823  0.50350511
   0.56816186  0.49046026  0.48460085
   0.53014435  0.49576035  0.49326583
Direct configuration=    97
   0.46975240  0.47070518  0.51509668
   0.46648940  0.51351059  0.47367773
   0.48096564  0.52739563  0.52985002
   0.48449574  0.50217801  0.50350502
   0.56816200  0.49046115  0.48460101
   0.53014429  0.49576048  0.49326553
Direct configuration=    98
   0.46975248  0.47070472  0.51509607
   0.46648891  0.51351082  0.47367823
   0.48096591  0.52739474  0.52985043
   0.48449576  0.50217771  0.50350491
   0.56816220  0.49046239  0.48460122
   0.53014421  0.49576067  0.49326513
Direct configuration=    99
   0.46975259  0.47070413  0.51509543
   0.46648827  0.51351097  0.47367879
   0.48096623  0.52739372  0.52985085
   0.48449577  0.50217733  0.50350477
   0.56816250  0.49046397  0.48460153
   0.53014412  0.49576091  0.49326462
Direct configuration=   100
   0.46975266  0.47070354  0.51509487
   0.46648750  0.51351103  0.47367934
   0.48096665  0.52739275  0.52985119
   0.48449577  0.50217691  0.50350457
   0.56816287  0.49046572  0.48460203
   0.53014402  0.49576109  0.49326400
Direct configuration=   101
   0.46975251  0.47070309  0.51509431
   0.46648663  0.51351121  0.47367989
   0.48096741  0.52739185  0.52985143
   0.48449579  0.50217650  0.50350429
   0.56816328  0.49046737  0.48460284
   0.53014385  0.49576102  0.49326323
Direct configuration=   102
   0.46975244  0.47070316  0.51509430
   0.46648664  0.51351127  0.47367989
   0.48096750  0.52739189  0.52985142
   0.48449580  0.50217652  0.50350427
   0.56816326  0.49046726  0.48460290
   0.53014383  0.49576094  0.49326322
Direct configuration=   103
   0.46975224  0.47070337  0.51509429
   0.46648671  0.51351145  0.47367986
   0.48096771  0.52739200  0.52985137
   0.48449581  0.50217660  0.50350424
   0.56816321  0.49046691  0.48460305
   0.53014379  0.49576073  0.49326320
Direct configuration=   104
   0.46975185  0.47070378  0.51509424
   0.46648689  0.51351181  0.47367980
   0.48096810  0.52739222  0.52985129
   0.48449585  0.50217676  0.50350417
   0.56816309  0.49046616  0.48460331
   0.53014370  0.49576032  0.49326319
Direct configuration=   105
   0.46975120  0.47070448  0.51509416
   0.46648722  0.51351244  0.47367968
   0.48096872  0.52739260  0.52985116
   0.48449591  0.50217706  0.50350407
   0.56816286  0.49046483  0.48460373
   0.53014355  0.49575963  0.49326320
Direct configuration=   106
   0.46975020  0.47070557  0.51509401
   0.46648778  0.51351343  0.47367949
   0.48096964  0.52739318  0.52985097
   0.48449600  0.50217753  0.50350392
   0.56816251  0.49046274  0.48460434
   0.53014334  0.49575860  0.49326326
Direct configuration=   107
   0.46974886  0.47070704  0.51509380
   0.46648856  0.51351476  0.47367923
   0.48097085  0.52739398  0.52985072
   0.48449612  0.50217817  0.50350373
   0.56816203  0.49045989  0.48460515
   0.53014305  0.49575721  0.49326337
Direct configuration=   108
   0.46974698  0.47070910  0.51509350
   0.46648968  0.51351665  0.47367885
   0.48097253  0.52739509  0.52985038
   0.48449630  0.50217909  0.50350346
   0.56816135  0.49045586  0.48460628
   0.53014264  0.49575527  0.49326354
Direct configuration=   109
   0.46974442  0.47071191  0.51509308
   0.46649121  0.51351921  0.47367832
   0.48097479  0.52739661  0.52984992
   0.48449653  0.50218034  0.50350308
   0.56816044  0.49045035  0.48460780
   0.53014208  0.49575263  0.49326380
Direct configuration=   110
   0.46974102  0.47071562  0.51509251
   0.46649326  0.51352263  0.47367762
   0.48097779  0.52739863  0.52984932
   0.48449683  0.50218202  0.50350257
   0.56815925  0.49044302  0.48460983
   0.53014133  0.49574915  0.49326415
Direct configuration=   111
   0.46973658  0.47072045  0.51509178
   0.46649594  0.51352709  0.47367669
   0.48098168  0.52740127  0.52984853
   0.48449721  0.50218421  0.50350192
   0.56815772  0.49043344  0.48461246
   0.53014034  0.49574462  0.49326462
Direct configuration=   112
   0.46973088  0.47072664  0.51509083
   0.46649938  0.51353282  0.47367548
   0.48098665  0.52740466  0.52984753
   0.48449769  0.50218706  0.50350107
   0.56815584  0.49042110  0.48461584
   0.53013904  0.49573881  0.49326525
Direct configuration=   113
   0.46972363  0.47073443  0.51508964
   0.46650373  0.51354011  0.47367393
   0.48099295  0.52740898  0.52984626
   0.48449826  0.50219068  0.50349999
   0.56815354  0.49040543  0.48462015
   0.53013737  0.49573147  0.49326604
Direct configuration=   114
   0.46971452  0.47074416  0.51508814
   0.46650915  0.51354927  0.47367194
   0.48100084  0.52741443  0.52984467
   0.48449891  0.50219525  0.50349865
   0.56815078  0.49038576  0.48462557
   0.53013527  0.49572228  0.49326703
Direct configuration=   115
   0.46970318  0.47075612  0.51508632
   0.46651582  0.51356065  0.47366944
   0.48101060  0.52742121  0.52984271
   0.48449961  0.50220098  0.50349702
   0.56814756  0.49036130  0.48463226
   0.53013273  0.49571090  0.49326825
Direct configuration=   116
   0.46968917  0.47077066  0.51508413
   0.46652389  0.51357468  0.47366631
   0.48102257  0.52742961  0.52984033
   0.48450029  0.50220808  0.50349506
   0.56814383  0.49033124  0.48464046
   0.53012975  0.49569692  0.49326971
Direct configuration=   117
   0.46967201  0.47078812  0.51508155
   0.46653351  0.51359179  0.47366242