   6   6   0   0
  0.4500000E+04  0.3000000E-08  0.3000000E-08  0.3000000E-08  0.0000000E+00
  1.000000000000000E-004
  CAR 
 unknown system                          
      2.02436907    -25.88174038  301     -6.16105967      1.00000000
    -25.882  0.0000E+00  0.0000E+00
    -25.789  0.0000E+00  0.0000E+00
    -25.696  0.0000E+00  0.0000E+00
    -25.603  0.0000E+00  0.0000E+00
    -25.510  0.0000E+00  0.0000E+00
    -25.417  0.0000E+00  0.0000E+00
    -25.324  0.0000E+00  0.0000E+00
    -25.231  0.0000E+00  0.0000E+00
    -25.138  0.0000E+00  0.0000E+00
    -25.045  0.7957E-17  0.7401E-18
    -24.952  0.1384E-14  0.1295E-15
    -24.859  0.1762E-12  0.1652E-13
    -24.765  0.1462E-10  0.1376E-11
    -24.672  0.7926E-09  0.7511E-10
    -24.579  0.2812E-07  0.2691E-08
    -24.486  0.6534E-06  0.6347E-07
    -24.393  0.9953E-05  0.9893E-06
    -24.300  0.9949E-04  0.1024E-04
    -24.207  0.6532E-03  0.7101E-04
    -24.114  0.2820E-02  0.3334E-03
    -24.021  0.8013E-02  0.1079E-02
    -23.928  0.1499E-01  0.2473E-02
    -23.835  0.1847E-01  0.4191E-02
    -23.742  0.1500E-01  0.5587E-02
    -23.649  0.8022E-02  0.6333E-02
    -23.556  0.2825E-02  0.6595E-02
    -23.463  0.6547E-03  0.6656E-02
    -23.370  0.9977E-04  0.6666E-02
    -23.277  0.9987E-05  0.6667E-02
    -23.184  0.6560E-06  0.6667E-02
    -23.091  0.2825E-07  0.6667E-02
    -22.998  0.7967E-09  0.6667E-02
    -22.905  0.1470E-10  0.6667E-02
    -22.812  0.1773E-12  0.6667E-02
    -22.719  0.1392E-14  0.6667E-02
    -22.626  0.7957E-17  0.6667E-02
    -22.533  0.0000E+00  0.6667E-02
    -22.440  0.0000E+00  0.6667E-02
    -22.347  0.0000E+00  0.6667E-02
    -22.254  0.0000E+00  0.6667E-02
    -22.161  0.0000E+00  0.6667E-02
    -22.068  0.0000E+00  0.6667E-02
    -21.975  0.0000E+00  0.6667E-02
    -21.882  0.0000E+00  0.6667E-02
    -21.789  0.0000E+00  0.6667E-02
    -21.696  0.0000E+00  0.6667E-02
    -21.603  0.0000E+00  0.6667E-02
    -21.510  0.0000E+00  0.6667E-02
    -21.417  0.0000E+00  0.6667E-02
    -21.324  0.0000E+00  0.6667E-02
    -21.231  0.0000E+00  0.6667E-02
    -21.138  0.0000E+00  0.6667E-02
    -21.045  0.0000E+00  0.6667E-02
    -20.952  0.0000E+00  0.6667E-02
    -20.859  0.0000E+00  0.6667E-02
    -20.766  0.0000E+00  0.6667E-02
    -20.673  0.0000E+00  0.6667E-02
    -20.580  0.0000E+00  0.6667E-02
    -20.487  0.0000E+00  0.6667E-02
    -20.394  0.2347E-15  0.6667E-02
    -20.301  0.3426E-13  0.6667E-02
    -20.207  0.3297E-11  0.6667E-02
    -20.114  0.2073E-09  0.6667E-02
    -20.021  0.8522E-08  0.6667E-02
    -19.928  0.2294E-06  0.6667E-02
    -19.835  0.4047E-05  0.6667E-02
    -19.742  0.4684E-04  0.6671E-02
    -19.649  0.3559E-03  0.6705E-02
    -19.556  0.1778E-02  0.6870E-02
    -19.463  0.5842E-02  0.7413E-02
    -19.370  0.1264E-01  0.8589E-02
    -19.277  0.1801E-01  0.1026E-01
    -19.184  0.1691E-01  0.1184E-01
    -19.091  0.1046E-01  0.1281E-01
    -18.998  0.4259E-02  0.1321E-01
    -18.905  0.1142E-02  0.1331E-01
    -18.812  0.2014E-03  0.1333E-01
    -18.719  0.2333E-04  0.1333E-01
    -18.626  0.1775E-05  0.1333E-01
    -18.533  0.8854E-07  0.1333E-01
    -18.440  0.2894E-08  0.1333E-01
    -18.347  0.6189E-10  0.1333E-01
    -18.254  0.8655E-12  0.1333E-01
    -18.161  0.7909E-14  0.1333E-01
    -18.068  0.4774E-16  0.1333E-01
    -17.975  0.0000E+00  0.1333E-01
    -17.882  0.0000E+00  0.1333E-01
    -17.789  0.0000E+00  0.1333E-01
    -17.696  0.0000E+00  0.1333E-01
    -17.603  0.0000E+00  0.1333E-01
    -17.510  0.0000E+00  0.1333E-01
    -17.417  0.0000E+00  0.1333E-01
    -17.324  0.0000E+00  0.1333E-01
    -17.231  0.0000E+00  0.1333E-01
    -17.138  0.0000E+00  0.1333E-01
    -17.045  0.0000E+00  0.1333E-01
    -16.952  0.0000E+00  0.1333E-01
    -16.859  0.0000E+00  0.1333E-01
    -16.766  0.0000E+00  0.1333E-01
    -16.673  0.0000E+00  0.1333E-01
    -16.580  0.0000E+00  0.1333E-01
    -16.487  0.0000E+00  0.1333E-01
    -16.394  0.0000E+00  0.1333E-01
    -16.301  0.0000E+00  0.1333E-01
    -16.208  0.0000E+00  0.1333E-01
    -16.115  0.0000E+00  0.1333E-01
    -16.022  0.0000E+00  0.1333E-01
    -15.929  0.0000E+00  0.1333E-01
    -15.836  0.0000E+00  0.1333E-01
    -15.743  0.0000E+00  0.1333E-01
    -15.650  0.0000E+00  0.1333E-01
    -15.556  0.0000E+00  0.1333E-01
    -15.463  0.0000E+00  0.1333E-01
    -15.370  0.0000E+00  0.1333E-01
    -15.277  0.0000E+00  0.1333E-01
    -15.184  0.0000E+00  0.1333E-01
    -15.091  0.0000E+00  0.1333E-01
    -14.998  0.1392E-15  0.1333E-01
    -14.905  0.2146E-13  0.1333E-01
    -14.812  0.2152E-11  0.1333E-01
    -14.719  0.1410E-09  0.1333E-01
    -14.626  0.6044E-08  0.1333E-01
    -14.533  0.1696E-06  0.1333E-01
    -14.440  0.3117E-05  0.1333E-01
    -14.347  0.3758E-04  0.1334E-01
    -14.254  0.2975E-03  0.1336E-01
    -14.161  0.1548E-02  0.1351E-01
    -14.068  0.5299E-02  0.1400E-01
    -13.975  0.1194E-01  0.1511E-01
    -13.882  0.1772E-01  0.1676E-01
    -13.789  0.1733E-01  0.1837E-01
    -13.696  0.1116E-01  0.1941E-01
    -13.603  0.4735E-02  0.1985E-01
    -13.510  0.1322E-02  0.1997E-01
    -13.417  0.2429E-03  0.2000E-01
    -13.324  0.2933E-04  0.2000E-01
    -13.231  0.2324E-05  0.2000E-01
    -13.138  0.1208E-06  0.2000E-01
    -13.045  0.4115E-08  0.2000E-01
    -12.952  0.9173E-10  0.2000E-01
    -12.859  0.1340E-11  0.2000E-01
    -12.766  0.3243E-12  0.2000E-01
    -12.673  0.2610E-10  0.2000E-01
    -12.580  0.1430E-08  0.2000E-01
    -12.487  0.5124E-07  0.2000E-01
    -12.394  0.1203E-05  0.2000E-01
    -12.301  0.1853E-04  0.2000E-01
    -12.208  0.1873E-03  0.2002E-01
    -12.115  0.1244E-02  0.2013E-01
    -12.022  0.5433E-02  0.2064E-01
    -11.929  0.1562E-01  0.2209E-01
    -11.836  0.2959E-01  0.2485E-01
    -11.743  0.3692E-01  0.2828E-01
    -11.650  0.3037E-01  0.3111E-01
    -11.557  0.1646E-01  0.3264E-01
    -11.464  0.5876E-02  0.3318E-01
    -11.371  0.1381E-02  0.3331E-01
    -11.278  0.2135E-03  0.3333E-01
    -11.185  0.2168E-04  0.3333E-01
    -11.092  0.1446E-05  0.3333E-01
    -10.998  0.6323E-07  0.3333E-01
    -10.905  0.1811E-08  0.3333E-01
    -10.812  0.3396E-10  0.3333E-01
    -10.719  0.4164E-12  0.3333E-01
    -10.626  0.3334E-14  0.3333E-01
    -10.533  0.2387E-16  0.3333E-01
    -10.440  0.0000E+00  0.3333E-01
    -10.347  0.0000E+00  0.3333E-01
    -10.254  0.0000E+00  0.3333E-01
    -10.161  0.0000E+00  0.3333E-01
    -10.068  0.0000E+00  0.3333E-01
     -9.975  0.0000E+00  0.3333E-01
     -9.882  0.0000E+00  0.3333E-01
     -9.789  0.0000E+00  0.3333E-01
     -9.696  0.0000E+00  0.3333E-01
     -9.603  0.0000E+00  0.3333E-01
     -9.510  0.0000E+00  0.3333E-01
     -9.417  0.2626E-15  0.3333E-01
     -9.324  0.4012E-13  0.3333E-01
     -9.231  0.4047E-11  0.3333E-01
     -9.138  0.2667E-09  0.3333E-01
     -9.045  0.1150E-07  0.3333E-01
     -8.952  0.3244E-06  0.3333E-01
     -8.859  0.5997E-05  0.3333E-01
     -8.766  0.7273E-04  0.3334E-01
     -8.673  0.5792E-03  0.3339E-01
     -8.580  0.3032E-02  0.3368E-01
     -8.487  0.1044E-01  0.3465E-01
     -8.394  0.2367E-01  0.3685E-01
     -8.301  0.3534E-01  0.4014E-01
     -8.208  0.3477E-01  0.4337E-01
     -8.115  0.2254E-01  0.4547E-01
     -8.022  0.9621E-02  0.4636E-01
     -7.929  0.2704E-02  0.4661E-01
     -7.836  0.4999E-03  0.4666E-01
     -7.743  0.6158E-04  0.4667E-01
     -7.650  0.1723E-04  0.4667E-01
     -7.557  0.1195E-03  0.4668E-01
     -7.464  0.7550E-03  0.4675E-01
     -7.371  0.3142E-02  0.4704E-01
     -7.278  0.8607E-02  0.4784E-01
     -7.185  0.1552E-01  0.4929E-01
     -7.092  0.1844E-01  0.5100E-01
     -6.999  0.1444E-01  0.5234E-01
     -6.906  0.7444E-02  0.5304E-01
     -6.813  0.2528E-02  0.5327E-01
     -6.720  0.5647E-03  0.5332E-01
     -6.627  0.8294E-04  0.5333E-01
     -6.534  0.8002E-05  0.5333E-01
     -6.440  0.5066E-06  0.5333E-01
     -6.347  0.2102E-07  0.5333E-01
     -6.254  0.5713E-09  0.5333E-01
     -6.161  0.1016E-10  0.5333E-01
     -6.068  0.1180E-12  0.5333E-01
     -5.975  0.8991E-15  0.5333E-01
     -5.882  0.0000E+00  0.5333E-01
     -5.789  0.0000E+00  0.5333E-01
     -5.696  0.0000E+00  0.5333E-01
     -5.603  0.0000E+00  0.5333E-01
     -5.510  0.0000E+00  0.5333E-01
     -5.417  0.0000E+00  0.5333E-01
     -5.324  0.0000E+00  0.5333E-01
     -5.231  0.0000E+00  0.5333E-01
     -5.138  0.0000E+00  0.5333E-01
     -5.045  0.0000E+00  0.5333E-01
     -4.952  0.0000E+00  0.5333E-01
     -4.859  0.0000E+00  0.5333E-01
     -4.766  0.0000E+00  0.5333E-01
     -4.673  0.0000E+00  0.5333E-01
     -4.580  0.0000E+00  0.5333E-01
     -4.487  0.0000E+00  0.5333E-01
     -4.394  0.0000E+00  0.5333E-01
     -4.301  0.0000E+00  0.5333E-01
     -4.208  0.0000E+00  0.5333E-01
     -4.115  0.0000E+00  0.5333E-01
     -4.022  0.0000E+00  0.5333E-01
     -3.929  0.0000E+00  0.5333E-01
     -3.836  0.0000E+00  0.5333E-01
     -3.743  0.0000E+00  0.5333E-01
     -3.650  0.0000E+00  0.5333E-01
     -3.557  0.0000E+00  0.5333E-01
     -3.464  0.0000E+00  0.5333E-01
     -3.371  0.0000E+00  0.5333E-01
     -3.278  0.0000E+00  0.5333E-01
     -3.185  0.0000E+00  0.5333E-01
     -3.092  0.0000E+00  0.5333E-01
     -2.999  0.0000E+00  0.5333E-01
     -2.906  0.0000E+00  0.5333E-01
     -2.813  0.0000E+00  0.5333E-01
     -2.720  0.0000E+00  0.5333E-01
     -2.627  0.0000E+00  0.5333E-01
     -2.534  0.0000E+00  0.5333E-01
     -2.441  0.0000E+00  0.5333E-01
     -2.348  0.0000E+00  0.5333E-01
     -2.255  0.0000E+00  0.5333E-01
     -2.162  0.0000E+00  0.5333E-01
     -2.069  0.0000E+00  0.5333E-01
     -1.976  0.0000E+00  0.5333E-01
     -1.882  0.8753E-16  0.5333E-01
     -1.789  0.1404E-13  0.5333E-01
     -1.696  0.1470E-11  0.5333E-01
     -1.603  0.1009E-09  0.5333E-01
     -1.510  0.4551E-08  0.5333E-01
     -1.417  0.1352E-06  0.5333E-01
     -1.324  0.2660E-05  0.5333E-01
     -1.231  0.3482E-04  0.5334E-01
     -1.138  0.3057E-03  0.5337E-01
     -1.045  0.1814E-02  0.5353E-01
     -0.952  0.7343E-02  0.5422E-01
     -0.859  0.2043E-01  0.5612E-01
     -0.766  0.3924E-01  0.5977E-01
     -0.673  0.5204E-01  0.6461E-01
     -0.580  0.4747E-01  0.6902E-01
     -0.487  0.2957E-01  0.7177E-01
     -0.394  0.1257E-01  0.7294E-01
     -0.301  0.4191E-02  0.7333E-01
     -0.208  0.3495E-02  0.7366E-01
     -0.115  0.8108E-02  0.7441E-01
     -0.022  0.1501E-01  0.7581E-01
      0.071  0.1847E-01  0.7753E-01
      0.164  0.1499E-01  0.7892E-01
      0.257  0.8011E-02  0.7967E-01
      0.350  0.2819E-02  0.7993E-01
      0.443  0.6529E-03  0.7999E-01
      0.536  0.9943E-04  0.8000E-01
      0.629  0.9946E-05  0.8000E-01
      0.722  0.6529E-06  0.8000E-01
      0.815  0.2809E-07  0.8000E-01
      0.908  0.7918E-09  0.8000E-01
      1.001  0.1460E-10  0.8000E-01
      1.094  0.1759E-12  0.8000E-01
      1.187  0.1383E-14  0.8000E-01
      1.280  0.7957E-17  0.8000E-01
      1.373  0.0000E+00  0.8000E-01
      1.466  0.0000E+00  0.8000E-01
      1.559  0.0000E+00  0.8000E-01
      1.652  0.0000E+00  0.8000E-01
      1.745  0.0000E+00  0.8000E-01
      1.838  0.0000E+00  0.8000E-01
      1.931  0.0000E+00  0.8000E-01
      2.024  0.0000E+00  0.8000E-01
