    6    6  300    1
  0.4500000E+04  0.3000000E-08  0.3000000E-08  0.3000000E-08  0.0000000E+00
  1.000000000000000E-004
  CAR 
 unknown system                          
     16      4     12
 
  0.2500000E+00  0.2500000E+00  0.2500000E+00  0.2500000E+00
    1      -23.881740   1.000000
    2      -19.291372   1.000000
    3      -13.887125   1.000000
    4      -11.790227   1.000000
    5      -11.782258   1.000000
    6       -8.306207   1.000000
    7       -8.302875   1.000000
    8       -7.146217   1.000000
    9       -0.762911   0.000000
   10       -0.665763   0.000000
   11       -0.664431   0.000000
   12        0.024340   0.000000
 
 -0.2500000E+00  0.2500000E+00  0.2500000E+00  0.2500000E+00
    1      -23.881740   1.000000
    2      -19.291375   1.000000
    3      -13.887126   1.000000
    4      -11.790223   1.000000
    5      -11.782255   1.000000
    6       -8.306198   1.000000
    7       -8.302869   1.000000
    8       -7.146218   1.000000
    9       -0.762911   0.000000
   10       -0.665763   0.000000
   11       -0.664438   0.000000
   12        0.024307   0.000000
 
  0.2500000E+00 -0.2500000E+00  0.2500000E+00  0.2500000E+00
    1      -23.881739   1.000000
    2      -19.291373   1.000000
    3      -13.887122   1.000000
    4      -11.790224   1.000000
    5      -11.782255   1.000000
    6       -8.306199   1.000000
    7       -8.302864   1.000000
    8       -7.146216   1.000000
    9       -0.762911   0.000000
   10       -0.665778   0.000000
   11       -0.664436   0.000000
   12        0.024352   0.000000
 
 -0.2500000E+00 -0.2500000E+00  0.2500000E+00  0.2500000E+00
    1      -23.881740   1.000000
    2      -19.291373   1.000000
    3      -13.887123   1.000000
    4      -11.790221   1.000000
    5      -11.782261   1.000000
    6       -8.306199   1.000000
    7       -8.302861   1.000000
    8       -7.146221   1.000000
    9       -0.762911   0.000000
   10       -0.665773   0.000000
   11       -0.664434   0.000000
   12        0.024369   0.000000
