 vasp.5.4.1 24Jun15 (build Jan 13 2020 12:58:22) complex                        
  
 executed on           IFC91_ompi date 2020.02.05  18:18:08
 running on   15 total cores
 each image running on    1 cores
 distrk:  each k-point on    1 cores,    1 groups
 distr:  one band on NCORES_PER_BAND=   1 cores,    1 groups


--------------------------------------------------------------------------------------------------------


 INCAR:
 POTCAR:    PAW_PBE H 15Jun2001                   
 POTCAR:    PAW_PBE C 08Apr2002                   
 POTCAR:    PAW_PBE N 08Apr2002                   
 POTCAR:    PAW_PBE H 15Jun2001                   
   VRHFIN =H: ultrasoft test                                                    
   LEXCH  = PE                                                                  
   EATOM  =    12.4884 eV,    0.9179 Ry                                         
                                                                                
   TITEL  = PAW_PBE H 15Jun2001                                                 
   LULTRA =        F    use ultrasoft PP ?                                      
   IUNSCR =        0    unscreen: 0-lin 1-nonlin 2-no                           
   RPACOR =    0.000    partial core radius                                     
   POMASS =    1.000; ZVAL   =    1.000    mass and valenz                      
   RCORE  =    1.100    outmost cutoff radius                                   
   RWIGS  =    0.700; RWIGS  =    0.370    wigner-seitz radius (au A)           
   ENMAX  =  250.000; ENMIN  =  200.000 eV                                      
   RCLOC  =    0.701    cutoff for local pot                                    
   LCOR   =        T    correct aug charges                                     
   LPAW   =        T    paw PP                                                  
   EAUG   =  400.000                                                            
   RMAX   =    1.123    core radius for proj-oper                               
   RAUG   =    1.200    factor for augmentation sphere                          
   RDEP   =    1.112    radius for radial grids                                 
   RDEPT  =    0.926    core radius for aug-charge                              
                                                                                
   Atomic configuration                                                         
    2 entries                                                                   
     n  l   j            E        occ.                                          
     1  0  0.50        -6.4927   1.0000                                         
     2  1  0.50        -3.4015   0.0000                                         
   Description                                                                  
     l       E           TYP  RCUT    TYP  RCUT                                 
     0     -6.4927494     23  1.100                                             
     0      6.8029130     23  1.100                                             
     1     -4.0817478     23  1.100                                             
  local pseudopotential read in
  atomic valenz-charges read in
  non local Contribution for L=           0  read in
    real space projection operators read in
  non local Contribution for L=           0  read in
    real space projection operators read in
  non local Contribution for L=           1  read in
    real space projection operators read in
    PAW grid and wavefunctions read in
 
   number of l-projection  operators is LMAX  =           3
   number of lm-projection operators is LMMAX =           5
 
 POTCAR:    PAW_PBE C 08Apr2002                   
   VRHFIN =C: s2p2                                                              
   LEXCH  = PE                                                                  
   EATOM  =   147.1560 eV,   10.8157 Ry                                         
                                                                                
   TITEL  = PAW_PBE C 08Apr2002                                                 
   LULTRA =        F    use ultrasoft PP ?                                      
   IUNSCR =        1    unscreen: 0-lin 1-nonlin 2-no                           
   RPACOR =    1.200    partial core radius                                     
   POMASS =   12.011; ZVAL   =    4.000    mass and valenz                      
   RCORE  =    1.500    outmost cutoff radius                                   
   RWIGS  =    1.630; RWIGS  =    0.863    wigner-seitz radius (au A)           
   ENMAX  =  400.000; ENMIN  =  300.000 eV                                      
   ICORE  =        2    local potential                                         
   LCOR   =        T    correct aug charges                                     
   LPAW   =        T    paw PP                                                  
   EAUG   =  644.873                                                            
   DEXC   =    0.000                                                            
   RMAX   =    1.529    core radius for proj-oper                               
   RAUG   =    1.300    factor for augmentation sphere                          
   RDEP   =    1.501    radius for radial grids                                 
   RDEPT  =    1.300    core radius for aug-charge                              
                                                                                
   Atomic configuration                                                         
    4 entries                                                                   
     n  l   j            E        occ.                                          
     1  0  0.50      -273.3789   2.0000                                         
     2  0  0.50       -13.7508   2.0000                                         
     2  1  0.50        -5.2854   2.0000                                         
     3  2  1.50        -5.4423   0.0000                                         
   Description                                                                  
     l       E           TYP  RCUT    TYP  RCUT                                 
     0    -13.7508458     23  1.200                                             
     0     -8.2022199     23  1.200                                             
     1     -5.2854383     23  1.500                                             
     1     34.0145650     23  1.500                                             
     2     -5.4423304      7  1.500                                             
  local pseudopotential read in
  partial core-charges read in
  partial kinetic energy density read in
  atomic valenz-charges read in
  non local Contribution for L=           0  read in
    real space projection operators read in
  non local Contribution for L=           0  read in
    real space projection operators read in
  non local Contribution for L=           1  read in
    real space projection operators read in
  non local Contribution for L=           1  read in
    real space projection operators read in
    PAW grid and wavefunctions read in
 
   number of l-projection  operators is LMAX  =           4
   number of lm-projection operators is LMMAX =           8
 
 POTCAR:    PAW_PBE N 08Apr2002                   
   VRHFIN =N: s2p3                                                              
   LEXCH  = PE                                                                  
   EATOM  =   264.5486 eV,   19.4438 Ry                                         
                                                                                
   TITEL  = PAW_PBE N 08Apr2002                                                 
   LULTRA =        F    use ultrasoft PP ?                                      
   IUNSCR =        1    unscreen: 0-lin 1-nonlin 2-no                           
   RPACOR =    1.200    partial core radius                                     
   POMASS =   14.001; ZVAL   =    5.000    mass and valenz                      
   RCORE  =    1.500    outmost cutoff radius                                   
   RWIGS  =    1.400; RWIGS  =    0.741    wigner-seitz radius (au A)           
   ENMAX  =  400.000; ENMIN  =  300.000 eV                                      
   ICORE  =        2    local potential                                         
   LCOR   =        T    correct aug charges                                     
   LPAW   =        T    paw PP                                                  
   EAUG   =  627.112                                                            
   DEXC   =    0.000                                                            
   RMAX   =    1.529    core radius for proj-oper                               
   RAUG   =    1.300    factor for augmentation sphere                          
   RDEP   =    1.514    radius for radial grids                                 
   RDEPT  =    1.338    core radius for aug-charge                              
                                                                                
   Atomic configuration                                                         
    4 entries                                                                   
     n  l   j            E        occ.                                          
     1  0  0.50      -384.7179   2.0000                                         
     2  0  0.50       -18.5828   2.0000                                         
     2  1  0.50        -7.0898   3.0000                                         
     3  2  1.50        -6.8029   0.0000                                         
   Description                                                                  
     l       E           TYP  RCUT    TYP  RCUT                                 
     0    -18.5828119     23  1.200                                             
     0    -13.5018863     23  1.200                                             
     1     -7.0897853     23  1.500                                             
     1      9.5240782     23  1.500                                             
     2     -6.8029130      7  1.500                                             
  local pseudopotential read in
  partial core-charges read in
  partial kinetic energy density read in
  atomic valenz-charges read in
  non local Contribution for L=           0  read in
    real space projection operators read in
  non local Contribution for L=           0  read in
    real space projection operators read in
  non local Contribution for L=           1  read in
    real space projection operators read in
  non local Contribution for L=           1  read in
    real space projection operators read in
    PAW grid and wavefunctions read in
 
   number of l-projection  operators is LMAX  =           4
   number of lm-projection operators is LMMAX =           8
 

 ----------------------------------------------------------------------------- 
|                                                                             |
|  ADVICE TO THIS USER RUNNING 'VASP/VAMP'   (HEAR YOUR MASTER'S VOICE ...):  |
|                                                                             |
|      You have a (more or less) 'small supercell' and for smaller cells      |
|      it is recommended  to use the reciprocal-space projection scheme!      |
|      The real space optimization is not  efficient for small cells and it   |
|      is also less accurate ...                                              |
|      Therefore set LREAL=.FALSE. in the  INCAR file                         |
|                                                                             |
 ----------------------------------------------------------------------------- 

 Optimization of the real space projectors (new method)

 maximal supplied QI-value         = 34.20
 optimisation between [QCUT,QGAM] = [  9.92, 20.18] = [ 27.55,114.04] Ry 
 Optimized for a Real-space Cutoff    1.26 Angstroem

   l    n(q)    QCUT    max X(q) W(low)/X(q) W(high)/X(q)  e(spline) 
   0      8     9.919    19.460    0.50E-03    0.23E-03    0.29E-06
   0      8     9.919    12.209    0.48E-03    0.23E-03    0.28E-06
   1      7     9.919     4.655    0.17E-03    0.75E-03    0.30E-06
 Optimization of the real space projectors (new method)

 maximal supplied QI-value         = 25.13
 optimisation between [QCUT,QGAM] = [ 10.05, 20.36] = [ 28.30,116.06] Ry 
 Optimized for a Real-space Cutoff    1.30 Angstroem

   l    n(q)    QCUT    max X(q) W(low)/X(q) W(high)/X(q)  e(spline) 
   0      8    10.053   115.676    0.49E-03    0.72E-03    0.18E-06
   0      8    10.053    87.132    0.49E-03    0.71E-03    0.18E-06
   1      7    10.053     4.429    0.32E-03    0.31E-03    0.18E-06
   1      7    10.053     2.733    0.23E-03    0.19E-03    0.20E-06
 Optimization of the real space projectors (new method)

 maximal supplied QI-value         = 25.13
 optimisation between [QCUT,QGAM] = [ 10.05, 20.36] = [ 28.30,116.06] Ry 
 Optimized for a Real-space Cutoff    1.65 Angstroem

   l    n(q)    QCUT    max X(q) W(low)/X(q) W(high)/X(q)  e(spline) 
   0     10    10.053    79.467    0.76E-04    0.72E-04    0.56E-06
   0     10    10.053    66.151    0.76E-04    0.72E-04    0.55E-06
   1     10    10.053     8.350    0.25E-03    0.92E-03    0.41E-05
   1     10    10.053     5.531    0.27E-03    0.10E-02    0.45E-05
  PAW_PBE H 15Jun2001                   :
 energy of atom  1       EATOM=  -12.4884
 kinetic energy error for atom=    0.0098 (will be added to EATOM!!)
  PAW_PBE C 08Apr2002                   :
 energy of atom  2       EATOM= -147.1560
 kinetic energy error for atom=    0.0288 (will be added to EATOM!!)
  PAW_PBE N 08Apr2002                   :
 energy of atom  3       EATOM= -264.5486
 kinetic energy error for atom=    0.0736 (will be added to EATOM!!)
 
 
 POSCAR: H3 C2 N1                                
  positions in direct lattice
  velocities in cartesian coordinates
 exchange correlation table for  LEXCH =        8
   RHO(1)=    0.500       N(1)  =     2000
   RHO(2)=  100.500       N(2)  =     4000

 VTST: version 3.2, (02/03/18)

 CHAIN: initializing optimizer
 
 OPT: Using FIRE optimizer
 OPT: FIRE, Init
 OPT: FIRE, MAXMOVE       0.20000
 OPT: FIRE, TIMESTEP      0.10000
 OPT: FIRE, FTIMEMAX      1.00000
 OPT: FIRE, FTIMEINC      1.10000
 OPT: FIRE, FTIMEDEC      0.50000
 OPT: FIRE, FALPHADEC     0.99000
 OPT: FIRE, FALPHA        0.10000
 OPT: FIRE, FNMIN         5
 
 CHAIN: Read ICHAIN            0
 CHAIN: Running the NEB
 NEB:          SPRING     -5.000000
 NEB:          LCLIMB      T
 NEB:     LTANGENTOLD      F
 NEB:           LDNEB      F
 NEB:        LDNEBORG      F
 NEB:        LNEBCELL      F
 NEB:          EFIRST      0.000000
 NEB:           ELAST      0.000000
 
 POSCAR: H3 C2 N1                                
  positions in direct lattice
  No initial velocities read in
 
 POSCAR: H3 C2 N1                                
  positions in direct lattice
  No initial velocities read in
 


--------------------------------------------------------------------------------------------------------


 ion  position               nearest neighbor table
   1  0.476  0.466  0.517-   4 1.10
   2  0.466  0.505  0.473-   4 1.10
   3  0.475  0.525  0.528-   4 1.10
   4  0.485  0.499  0.504-   3 1.10   2 1.10   1 1.10   6 1.42
   5  0.570  0.501  0.487-   6 1.18
   6  0.532  0.500  0.496-   5 1.18   4 1.42
 
  LATTYP: Found a simple cubic cell.
 ALAT       =    30.0000000000
  
  Lattice vectors:
  
 A1 = (  30.0000000000,   0.0000000000,   0.0000000000)
 A2 = (   0.0000000000,  30.0000000000,   0.0000000000)
 A3 = (   0.0000000000,   0.0000000000,  30.0000000000)


Analysis of symmetry for initial positions (statically):
=====================================================================
 Subroutine PRICEL returns:
 Original cell was already a primitive cell.
 

 Routine SETGRP: Setting up the symmetry group for a 
 simple cubic supercell.


 Subroutine GETGRP returns: Found  1 space group operations
 (whereof  1 operations were pure point group operations)
 out of a pool of 48 trial point group operations.


The static configuration has the point symmetry C_1 .


Analysis of symmetry for dynamics (positions and initial velocities):
=====================================================================
 Subroutine PRICEL returns:
 Original cell was already a primitive cell.
 

 Routine SETGRP: Setting up the symmetry group for a 
 simple cubic supercell.


 Subroutine GETGRP returns: Found  1 space group operations
 (whereof  1 operations were pure point group operations)
 out of a pool of 48 trial point group operations.


The dynamic configuration has the point symmetry C_1 .
 
 
 KPOINTS: Mo2C                                    

Automatic generation of k-mesh.
Space group operators:
 irot       det(A)        alpha          n_x          n_y          n_z        tau_x        tau_y        tau_z
    1     1.000000     0.000000     1.000000     0.000000     0.000000     0.000000     0.000000     0.000000
 
 Subroutine IBZKPT returns following result:
 ===========================================
 
 Found      4 irreducible k-points:
 
 Following reciprocal coordinates:
            Coordinates               Weight
  0.250000  0.250000  0.250000      2.000000
 -0.250000  0.250000  0.250000      2.000000
  0.250000 -0.250000  0.250000      2.000000
 -0.250000 -0.250000  0.250000      2.000000
 
 Following cartesian coordinates:
            Coordinates               Weight
  0.008333  0.008333  0.008333      2.000000
 -0.008333  0.008333  0.008333      2.000000
  0.008333 -0.008333  0.008333      2.000000
 -0.008333 -0.008333  0.008333      2.000000
 


--------------------------------------------------------------------------------------------------------




 Dimension of arrays:
   k-points           NKPTS =      4   k-points in BZ     NKDIM =      4   number of bands    NBANDS=     12
   number of dos      NEDOS =    301   number of ions     NIONS =      6
   non local maximal  LDIM  =      4   non local SUM 2l+1 LMDIM =      8
   total plane-waves  NPLWV = ******
   max r-space proj   IRMAX =   2395   max aug-charges    IRDMAX=   1738
   dimension x,y,z NGX =   150 NGY =  150 NGZ =  150
   dimension x,y,z NGXF=   300 NGYF=  300 NGZF=  300
   support grid    NGXF=   300 NGYF=  300 NGZF=  300
   ions per type =               3   2   1
 NGX,Y,Z   is equivalent  to a cutoff of   8.31,  8.31,  8.31 a.u.
 NGXF,Y,Z  is equivalent  to a cutoff of  16.62, 16.62, 16.62 a.u.


 I would recommend the setting:
   dimension x,y,z NGX =   147 NGY =  147 NGZ =  147
 SYSTEM =  unknown system                          
 POSCAR =  H3 C2 N1                                

 Startparameter for this run:
   NWRITE =      2    write-flag & timer
   PREC   = normal    normal or accurate (medium, high low for compatibility)
   ISTART =      0    job   : 0-new  1-cont  2-samecut
   ICHARG =      2    charge: 1-file 2-atom 10-const
   ISPIN  =      1    spin polarized calculation?
   LNONCOLLINEAR =      F non collinear calculations
   LSORBIT =      F    spin-orbit coupling
   INIWAV =      1    electr: 0-lowe 1-rand  2-diag
   LASPH  =      F    aspherical Exc in radial PAW
   METAGGA=      F    non-selfconsistent MetaGGA calc.

 Electronic Relaxation 1
   ENCUT  =  400.0 eV  29.40 Ry    5.42 a.u.  48.92 48.92 48.92*2*pi/ulx,y,z
   ENINI  =  400.0     initial cutoff
   ENAUG  =  644.9 eV  augmentation charge cutoff
   NELM   =    500;   NELMIN=  6; NELMDL= -5     # of ELM steps 
   EDIFF  = 0.1E-03   stopping-criterion for ELM
   LREAL  =      T    real-space projection
   NLSPLINE    = F    spline interpolate recip. space projectors
   LCOMPAT=      F    compatible to vasp.4.4
   GGA_COMPAT  = T    GGA compatible to vasp.4.4-vasp.4.6
   LMAXPAW     = -100 max onsite density
   LMAXMIX     =    2 max onsite mixed and CHGCAR
   VOSKOWN=      0    Vosko Wilk Nusair interpolation
   ROPT   =   -0.00050  -0.00050  -0.00050
 Ionic relaxation
   EDIFFG = -.1E+00   stopping-criterion for IOM
   NSW    =    300    number of steps for IOM
   NBLOCK =      1;   KBLOCK =    300    inner block; outer block 
   IBRION =      3    ionic relax: 0-MD 1-quasi-New 2-CG
   NFREE  =      0    steps in history (QN), initial steepest desc. (CG)
   ISIF   =      2    stress and relaxation
   IWAVPR =     11    prediction:  0-non 1-charg 2-wave 3-comb
   ISYM   =      2    0-nonsym 1-usesym 2-fastsym
   LCORR  =      T    Harris-Foulkes like correction to forces

   POTIM  = 0.0000    time-step for ionic-motion
   TEIN   =    0.0    initial temperature
   TEBEG  =    0.0;   TEEND  =   0.0 temperature during run
   SMASS  =   2.00    Nose mass-parameter (am)
   estimated Nose-frequenzy (Omega)   =  0.12E+10 period in steps =  0.00 mass=   0.137E-25a.u.
   SCALEE = 1.0000    scale energy and forces
   NPACO  =    256;   APACO  = 16.0  distance and # of slots for P.C.
   PSTRESS=    0.0 pullay stress

  Mass of Ions in am
   POMASS =   1.00 12.01 14.00
  Ionic Valenz
   ZVAL   =   1.00  4.00  5.00
  Atomic Wigner-Seitz radii
   RWIGS  =  -1.00 -1.00 -1.00
  virtual crystal weights 
   VCA    =   1.00  1.00  1.00
   NELECT =      16.0000    total number of electrons
   NUPDOWN=      -1.0000    fix difference up-down

 DOS related values:
   EMIN   =  10.00;   EMAX   =-10.00  energy-range for DOS
   EFERMI =   0.00
   ISMEAR =     0;   SIGMA  =   0.20  broadening in eV -4-tet -1-fermi 0-gaus

 Electronic relaxation 2 (details)
   IALGO  =     38    algorithm
   LDIAG  =      T    sub-space diagonalisation (order eigenvalues)
   LSUBROT=      F    optimize rotation matrix (better conditioning)
   TURBO    =      0    0=normal 1=particle mesh
   IRESTART =      0    0=no restart 2=restart with 2 vectors
   NREBOOT  =      0    no. of reboots
   NMIN     =      0    reboot dimension
   EREF     =   0.00    reference energy to select bands
   IMIX   =      4    mixing-type and parameters
     AMIX     =   0.40;   BMIX     =  1.00
     AMIX_MAG =   1.60;   BMIX_MAG =  1.00
     AMIN     =   0.10
     WC   =   100.;   INIMIX=   1;  MIXPRE=   1;  MAXMIX= -45

 Intra band minimization:
   WEIMIN = 0.0010     energy-eigenvalue tresh-hold
   EBREAK =  0.21E-05  absolut break condition
   DEPER  =   0.30     relativ break condition  

   TIME   =   0.40     timestep for ELM

  volume/ion in A,a.u.               =    4500.00     30367.50
  Fermi-wavevector in a.u.,A,eV,Ry     =   0.137508  0.259852  0.257264  0.018908
  Thomas-Fermi vector in A             =   0.790710
 
 Write flags
   LWAVE  =      F    write WAVECAR
   LCHARG =      F    write CHGCAR
   LVTOT  =      F    write LOCPOT, total local potential
   LVHAR  =      F    write LOCPOT, Hartree potential only
   LELF   =      F    write electronic localiz. function (ELF)
   LORBIT =      0    0 simple, 1 ext, 2 COOP (PROOUT)


 Dipole corrections
   LMONO  =      F    monopole corrections only (constant potential shift)
   LDIPOL =      F    correct potential (dipole corrections)
   IDIPOL =      0    1-x, 2-y, 3-z, 4-all directions 
   EPSILON=  1.0000000 bulk dielectric constant

 Exchange correlation treatment:
   GGA     =    PE    GGA type
   LEXCH   =     8    internal setting for exchange type
   VOSKOWN=      0    Vosko Wilk Nusair interpolation
   LHFCALC =     F    Hartree Fock is set to
   LHFONE  =     F    Hartree Fock one center treatment
   AEXX    =    0.0000 exact exchange contribution

 Linear response parameters
   LEPSILON=     F    determine dielectric tensor
   LRPA    =     F    only Hartree local field effects (RPA)
   LNABLA  =     F    use nabla operator in PAW spheres
   LVEL    =     F    velocity operator in full k-point grid
   LINTERFAST=   F  fast interpolation
   KINTER  =     0    interpolate to denser k-point grid
   CSHIFT  =0.1000    complex shift for real part using Kramers Kronig
   OMEGAMAX=  -1.0    maximum frequency
   DEG_THRESHOLD= 0.2000000E-02 threshold for treating states as degnerate
   RTIME   =    0.100 relaxation time in fs

 Orbital magnetization related:
   ORBITALMAG=     F  switch on orbital magnetization
   LCHIMAG   =     F  perturbation theory with respect to B field
   DQ        =  0.001000  dq finite difference perturbation B field



--------------------------------------------------------------------------------------------------------


 quickmin algorithm: (dynamic with friction)
 charge density and potential will be updated during run
 non-spin polarized calculation
 Variant of blocked Davidson
 Davidson routine will perform the subspace rotation
 perform sub-space diagonalisation
    after iterative eigenvector-optimisation
 modified Broyden-mixing scheme, WC =      100.0
 initial mixing is a Kerker type mixing with AMIX =  0.4000 and BMIX =      1.0000
 Hartree-type preconditioning will be used
 using additional bands            4
 real space projection scheme for non local part
 use partial core corrections
 calculate Harris-corrections to forces 
   (improved forces if not selfconsistent)
 use gradient corrections 
 use of overlap-Matrix (Vanderbilt PP)
 Gauss-broadening in eV      SIGMA  =   0.20


--------------------------------------------------------------------------------------------------------


  energy-cutoff  :      400.00
  volume of cell :    27000.00
      direct lattice vectors                 reciprocal lattice vectors
    30.000000000  0.000000000  0.000000000     0.033333333  0.000000000  0.000000000
     0.000000000 30.000000000  0.000000000     0.000000000  0.033333333  0.000000000
     0.000000000  0.000000000 30.000000000     0.000000000  0.000000000  0.033333333

  length of vectors
    30.000000000 30.000000000 30.000000000     0.033333333  0.033333333  0.033333333


 
 k-points in units of 2pi/SCALE and weight: Mo2C                                    
   0.00833333  0.00833333  0.00833333       0.250
  -0.00833333  0.00833333  0.00833333       0.250
   0.00833333 -0.00833333  0.00833333       0.250
  -0.00833333 -0.00833333  0.00833333       0.250
 
 k-points in reciprocal lattice and weights: Mo2C                                    
   0.25000000  0.25000000  0.25000000       0.250
  -0.25000000  0.25000000  0.25000000       0.250
   0.25000000 -0.25000000  0.25000000       0.250
  -0.25000000 -0.25000000  0.25000000       0.250
 
 position of ions in fractional coordinates (direct lattice) 
   0.47560001  0.46578982  0.51662878
   0.46594510  0.50455575  0.47295838
   0.47529897  0.52473848  0.52779694
   0.48481392  0.49881168  0.50379074
   0.56966860  0.50056592  0.48666928
   0.53150185  0.50043183  0.49561932
 
 position of ions in cartesian coordinates  (Angst):
  14.26800040 13.97369468 15.49886352
  13.97835312 15.13667262 14.18875155
  14.25896912 15.74215440 15.83390831
  14.54441765 14.96435054 15.11372216
  17.09005792 15.01697773 14.60007840
  15.94505547 15.01295487 14.86857965
 


--------------------------------------------------------------------------------------------------------


 k-point  1 :   0.2500 0.2500 0.2500  plane waves:  490454
 k-point  2 :  -0.2500 0.2500 0.2500  plane waves:  490454
 k-point  3 :   0.2500-0.2500 0.2500  plane waves:  490454
 k-point  4 :  -0.2500-0.2500 0.2500  plane waves:  490454

 maximum and minimum number of plane-waves per node :    490454   490454

 maximum number of plane-waves:    490454
 maximum index in each direction: 
   IXMAX=   49   IYMAX=   49   IZMAX=   48
   IXMIN=  -49   IYMIN=  -49   IZMIN=  -49

 WARNING: aliasing errors must be expected set NGX to 198 to avoid them
 WARNING: aliasing errors must be expected set NGY to 198 to avoid them
 WARNING: aliasing errors must be expected set NGZ to 196 to avoid them
 aliasing errors are usually negligible using standard VASP settings
 and one can safely disregard these warnings

 serial   3D FFT for wavefunctions
 parallel 3D FFT for charge:
    minimum data exchange during FFTs selected (reduces bandwidth)


 total amount of memory used by VASP on root node  3203888. kBytes
========================================================================

   base      :      30000. kBytes
   nonlr-proj:        692. kBytes
   fftplans  :     924480. kBytes
   grid      :    1872000. kBytes
   one-center:         18. kBytes
   wavefun   :     376698. kBytes
 
     INWAV:  cpu time    0.0000: real time    0.0005
 Broyden mixing: mesh for mixing (old mesh)
   NGX = 97   NGY = 97   NGZ = 97
  (NGX  =300   NGY  =300   NGZ  =300)
  gives a total of 912673 points

 initial charge density was supplied:
 charge density of overlapping atoms calculated
 number of electron      16.0000000 magnetization 
 keeping initial charge density in first step


--------------------------------------------------------------------------------------------------------


 Maximum index for non-local projection operator         2272
 Maximum index for augmentation-charges         1500 (set IRDMAX)


--------------------------------------------------------------------------------------------------------


 First call to EWALD:  gamma=   0.059
 Maximum number of real-space cells 3x 3x 3
 Maximum number of reciprocal cells 3x 3x 3

 FEWALD executed in parallel
    FEWALD:  cpu time    0.0020: real time    0.0023


----------------------------------------- Iteration    1(   1)  ---------------------------------------


    POTLOK:  cpu time   30.4024: real time   30.4733
    SETDIJ:  cpu time    0.0070: real time    0.0064
     EDDAV:  cpu time  140.6376: real time  140.9752
       DOS:  cpu time    0.0000: real time    0.0003
    --------------------------------------------
      LOOP:  cpu time  171.0510: real time  171.4599

 eigenvalue-minimisations  :   160
 total energy-change (2. order) : 0.1138218E+03  (-0.2139852E+03)
 number of electron      16.0000000 magnetization 
 augmentation part       16.0000000 magnetization 

 Free energy of the ion-electron system (eV)
  ---------------------------------------------------
  alpha Z        PSCENC =         0.04144063
  Ewald energy   TEWEN  =       702.53674435
  -Hartree energ DENC   =     -1116.64963562
  -exchange      EXHF   =         0.00000000
  -V(xc)+E(xc)   XCENC  =        51.42017675
  PAW double counting   =       428.37890668     -430.73533574
  entropy T*S    EENTRO =        -0.18851383
  eigenvalues    EBANDS =      -117.14732617
  atomic energy  EATOM  =       596.16534815
  Solvation  Ediel_sol  =         0.00000000
  ---------------------------------------------------
  free energy    TOTEN  =       113.82180519 eV

  energy without entropy =      114.01031902  energy(sigma->0) =      113.91606210


--------------------------------------------------------------------------------------------------------




----------------------------------------- Iteration    1(   2)  ---------------------------------------


     EDDAV:  cpu time  163.9551: real time  164.3432
       DOS:  cpu time    0.0010: real time    0.0002
    --------------------------------------------
      LOOP:  cpu time  163.9571: real time  164.3477

 eigenvalue-minimisations  :   192
 total energy-change (2. order) :-0.1157589E+03  (-0.1136707E+03)
 number of electron      16.0000000 magnetization 
 augmentation part       16.0000000 magnetization 

 Free energy of the ion-electron system (eV)
  ---------------------------------------------------
  alpha Z        PSCENC =         0.04144063
  Ewald energy   TEWEN  =       702.53674435
  -Hartree energ DENC   =     -1116.64963562
  -exchange      EXHF   =         0.00000000
  -V(xc)+E(xc)   XCENC  =        51.42017675
  PAW double counting   =       428.37890668     -430.73533574
  entropy T*S    EENTRO =        -0.00000007
  eigenvalues    EBANDS =      -233.09471960
  atomic energy  EATOM  =       596.16534815
  Solvation  Ediel_sol  =         0.00000000
  ---------------------------------------------------
  free energy    TOTEN  =        -1.93707448 eV

  energy without entropy =       -1.93707441  energy(sigma->0) =       -1.93707445


--------------------------------------------------------------------------------------------------------




----------------------------------------- Iteration    1(   3)  ---------------------------------------


     EDDAV:  cpu time  137.3851: real time  137.7145
       DOS:  cpu time    0.0000: real time    0.0002
    --------------------------------------------
      LOOP:  cpu time  137.3871: real time  137.7191

 eigenvalue-minimisations  :   152
 total energy-change (2. order) :-0.3322443E+02  (-0.3317248E+02)
 number of electron      16.0000000 magnetization 
 augmentation part       16.0000000 magnetization 

 Free energy of the ion-electron system (eV)
  ---------------------------------------------------
  alpha Z        PSCENC =         0.04144063
  Ewald energy   TEWEN  =       702.53674435
  -Hartree energ DENC   =     -1116.64963562
  -exchange      EXHF   =         0.00000000
  -V(xc)+E(xc)   XCENC  =        51.42017675
  PAW double counting   =       428.37890668     -430.73533574
  entropy T*S    EENTRO =         0.00000000
  eigenvalues    EBANDS =      -266.31915189
  atomic energy  EATOM  =       596.16534815
  Solvation  Ediel_sol  =         0.00000000
  ---------------------------------------------------
  free energy    TOTEN  =       -35.16150670 eV

  energy without entropy =      -35.16150670  energy(sigma->0) =      -35.16150670


--------------------------------------------------------------------------------------------------------




----------------------------------------- Iteration    1(   4)  ---------------------------------------


     EDDAV:  cpu time  124.8790: real time  125.1787
       DOS:  cpu time    0.0010: real time    0.0002
    --------------------------------------------
      LOOP:  cpu time  124.8820: real time  125.1831

 eigenvalue-minimisations  :   136
 total energy-change (2. order) :-0.3867008E+01  (-0.3837730E+01)
 number of electron      16.0000000 magnetization 
 augmentation part       16.0000000 magnetization 

 Free energy of the ion-electron system (eV)
  ---------------------------------------------------
  alpha Z        PSCENC =         0.04144063
  Ewald energy   TEWEN  =       702.53674435
  -Hartree energ DENC   =     -1116.64963562
  -exchange      EXHF   =         0.00000000
  -V(xc)+E(xc)   XCENC  =        51.42017675
  PAW double counting   =       428.37890668     -430.73533574
  entropy T*S    EENTRO =         0.00000000
  eigenvalues    EBANDS =      -270.18615996
  atomic energy  EATOM  =       596.16534815
  Solvation  Ediel_sol  =         0.00000000
  ---------------------------------------------------
  free energy    TOTEN  =       -39.02851477 eV

  energy without entropy =      -39.02851477  energy(sigma->0) =      -39.02851477


--------------------------------------------------------------------------------------------------------




----------------------------------------- Iteration    1(   5)  ---------------------------------------


     EDDAV:  cpu time  110.3422: real time  110.6060
       DOS:  cpu time    0.0000: real time    0.0002
    CHARGE:  cpu time    8.6897: real time    8.7106
    MIXING:  cpu time    0.6949: real time    0.6969
    --------------------------------------------
      LOOP:  cpu time  119.7288: real time  120.0176

 eigenvalue-minimisations  :   120
 total energy-change (2. order) :-0.9025650E-01  (-0.8948333E-01)
 number of electron      15.9999992 magnetization 
 augmentation part        0.5210088 magnetization 

 Broyden mixing:
  rms(total) = 0.10420E+01    rms(broyden)= 0.10414E+01
  rms(prec ) = 0.10785E+01
  weight for this iteration     100.00

 Free energy of the ion-electron system (eV)
  ---------------------------------------------------
  alpha Z        PSCENC =         0.04144063
  Ewald energy   TEWEN  =       702.53674435
  -Hartree energ DENC   =     -1116.64963562
  -exchange      EXHF   =         0.00000000
  -V(xc)+E(xc)   XCENC  =        51.42017675
  PAW double counting   =       428.37890668     -430.73533574
  entropy T*S    EENTRO =         0.00000000
  eigenvalues    EBANDS =      -270.27641646
  atomic energy  EATOM  =       596.16534815
  Solvation  Ediel_sol  =         0.00000000
  ---------------------------------------------------
  free energy    TOTEN  =       -39.11877128 eV

  energy without entropy =      -39.11877128  energy(sigma->0) =      -39.11877128


--------------------------------------------------------------------------------------------------------




----------------------------------------- Iteration    1(   6)  ---------------------------------------


    POTLOK:  cpu time   31.3522: real time   31.4271
    SETDIJ:  cpu time    0.0070: real time    0.0066
     EDDAV:  cpu time  109.3934: real time  109.6472
       DOS:  cpu time    0.0000: real time    0.0002
    CHARGE:  cpu time    9.1196: real time    9.1416
    MIXING:  cpu time    0.8759: real time    0.8782
    --------------------------------------------
      LOOP:  cpu time  150.7501: real time  156.6037

 eigenvalue-minimisations  :   124
 total energy-change (2. order) : 0.2711833E+01  (-0.4515535E+00)
 number of electron      15.9999991 magnetization 
 augmentation part        0.4751778 magnetization 

 Broyden mixing:
  rms(total) = 0.56459E+00    rms(broyden)= 0.56448E+00
  rms(prec ) = 0.58007E+00
  weight for this iteration     100.00

 eigenvalues of (default mixing * dielectric matrix)
  average eigenvalue GAMMA=   1.6197
  1.6197

 Free energy of the ion-electron system (eV)
  ---------------------------------------------------
  alpha Z        PSCENC =         0.04144063
  Ewald energy   TEWEN  =       702.53674435
  -Hartree energ DENC   =     -1145.82843639
  -exchange      EXHF   =         0.00000000
  -V(xc)+E(xc)   XCENC  =        53.02690310
  PAW double counting   =       720.61555679     -723.30954081
  entropy T*S    EENTRO =         0.00000000
  eigenvalues    EBANDS =      -239.65495426
  atomic energy  EATOM  =       596.16534815
  Solvation  Ediel_sol  =         0.00000000
  ---------------------------------------------------
  free energy    TOTEN  =       -36.40693844 eV

  energy without entropy =      -36.40693844  energy(sigma->0) =      -36.40693844


--------------------------------------------------------------------------------------------------------




----------------------------------------- Iteration    1(   7)  ---------------------------------------


    POTLOK:  cpu time   31.0583: real time   31.1325
    SETDIJ:  cpu time    0.0060: real time    0.0068
     EDDAV:  cpu time  122.7583: real time  123.0524
       DOS:  cpu time    0.0000: real time    0.0002
    CHARGE:  cpu time    8.9006: real time    8.9229
    MIXING:  cpu time    0.9449: real time    0.9478
    --------------------------------------------
      LOOP:  cpu time  163.6721: real time  164.0676

 eigenvalue-minimisations  :   128
 total energy-change (2. order) : 0.7077577E+00  (-0.1850906E+00)
 number of electron      15.9999991 magnetization 
 augmentation part        0.4585447 magnetization 

 Broyden mixing:
  rms(total) = 0.22207E+00    rms(broyden)= 0.22200E+00
  rms(prec ) = 0.22711E+00
  weight for this iteration     100.00

 eigenvalues of (default mixing * dielectric matrix)
  average eigenvalue GAMMA=   1.5872
  1.1100  2.0643

 Free energy of the ion-electron system (eV)
  ---------------------------------------------------
  alpha Z        PSCENC =         0.04144063
  Ewald energy   TEWEN  =       702.53674435
  -Hartree energ DENC   =     -1165.97244165
  -exchange      EXHF   =         0.00000000
  -V(xc)+E(xc)   XCENC  =        54.31220013
  PAW double counting   =      1102.80311490    -1105.69043052
  entropy T*S    EENTRO =         0.00000000
  eigenvalues    EBANDS =      -219.89515671
  atomic energy  EATOM  =       596.16534815
  Solvation  Ediel_sol  =         0.00000000
  ---------------------------------------------------
  free energy    TOTEN  =       -35.69918073 eV

  energy without entropy =      -35.69918073  energy(sigma->0) =      -35.69918073


--------------------------------------------------------------------------------------------------------




----------------------------------------- Iteration    1(   8)  ---------------------------------------


    POTLOK:  cpu time   31.6712: real time   31.7474
    SETDIJ:  cpu time    0.0070: real time    0.0070
     EDDAV:  cpu time  122.1814: real time  122.4723
       DOS:  cpu time    0.0000: real time    0.0002
    CHARGE:  cpu time    8.2258: real time    8.2454
    MIXING:  cpu time    0.7209: real time    0.7217
    --------------------------------------------
      LOOP:  cpu time  162.8073: real time  163.1983

 eigenvalue-minimisations  :   128
 total energy-change (2. order) : 0.6835623E-01  (-0.1347792E-01)
 number of electron      15.9999991 magnetization 
 augmentation part        0.4502684 magnetization 

 Broyden mixing:
  rms(total) = 0.85842E-01    rms(broyden)= 0.85820E-01
  rms(prec ) = 0.90136E-01
  weight for this iteration     100.00

 eigenvalues of (default mixing * dielectric matrix)
  average eigenvalue GAMMA=   1.5937
  2.3141  0.8315  1.6357

 Free energy of the ion-electron system (eV)
  ---------------------------------------------------
  alpha Z        PSCENC =         0.04144063
  Ewald energy   TEWEN  =       702.53674435
  -Hartree energ DENC   =     -1172.16554289
  -exchange      EXHF   =         0.00000000
  -V(xc)+E(xc)   XCENC  =        54.71658844
  PAW double counting   =      1278.54564054    -1281.45130320
  entropy T*S    EENTRO =         0.00000000
  eigenvalues    EBANDS =      -214.01974051
  atomic energy  EATOM  =       596.16534815
  Solvation  Ediel_sol  =         0.00000000
  ---------------------------------------------------
  free energy    TOTEN  =       -35.63082450 eV

  energy without entropy =      -35.63082450  energy(sigma->0) =      -35.63082450


--------------------------------------------------------------------------------------------------------




----------------------------------------- Iteration    1(   9)  ---------------------------------------


    POTLOK:  cpu time   29.3175: real time   29.3860
    SETDIJ:  cpu time    0.0060: real time    0.0068
     EDDAV:  cpu time  117.9411: real time  118.2255
       DOS:  cpu time    0.0000: real time    0.0002
    CHARGE:  cpu time    8.8577: real time    8.8788
    MIXING:  cpu time    1.0908: real time    1.0936
    --------------------------------------------
      LOOP:  cpu time  157.2141: real time  157.5956

 eigenvalue-minimisations  :   124
 total energy-change (2. order) : 0.1779820E-01  (-0.1994028E-02)
 number of electron      15.9999991 magnetization 
 augmentation part        0.4509066 magnetization 

 Broyden mixing:
  rms(total) = 0.21310E-01    rms(broyden)= 0.21299E-01
  rms(prec ) = 0.27615E-01
  weight for this iteration     100.00

 eigenvalues of (default mixing * dielectric matrix)
  average eigenvalue GAMMA=   1.5583
  2.0262  2.0262  0.8525  1.3283

 Free energy of the ion-electron system (eV)
  ---------------------------------------------------
  alpha Z        PSCENC =         0.04144063
  Ewald energy   TEWEN  =       702.53674435
  -Hartree energ DENC   =     -1173.37186209
  -exchange      EXHF   =         0.00000000
  -V(xc)+E(xc)   XCENC  =        54.79829897
  PAW double counting   =      1342.37820207    -1345.25694082
  entropy T*S    EENTRO =         0.00000000
  eigenvalues    EBANDS =      -212.90425756
  atomic energy  EATOM  =       596.16534815
  Solvation  Ediel_sol  =         0.00000000
  ---------------------------------------------------
  free energy    TOTEN  =       -35.61302631 eV

  energy without entropy =      -35.61302631  energy(sigma->0) =      -35.61302631


--------------------------------------------------------------------------------------------------------




----------------------------------------- Iteration    1(  10)  ---------------------------------------


    POTLOK:  cpu time   30.8053: real time   30.8805
    SETDIJ:  cpu time    0.0070: real time    0.0069
     EDDAV:  cpu time  121.6205: real time  121.9231
       DOS:  cpu time    0.0000: real time    0.0002
    CHARGE:  cpu time    7.8618: real time    7.8816
    MIXING:  cpu time    1.2978: real time    1.3005
    --------------------------------------------
      LOOP:  cpu time  161.5954: real time  161.9981

 eigenvalue-minimisations  :   128
 total energy-change (2. order) : 0.2207619E-03  (-0.4255156E-03)
 number of electron      15.9999991 magnetization 
 augmentation part        0.4517220 magnetization 

 Broyden mixing:
  rms(total) = 0.12954E-01    rms(broyden)= 0.12946E-01
  rms(prec ) = 0.18607E-01
  weight for this iteration     100.00

 eigenvalues of (default mixing * dielectric matrix)
  average eigenvalue GAMMA=   1.5157
  2.1913  2.1913  0.8932  0.8932  1.4095

 Free energy of the ion-electron system (eV)
  ---------------------------------------------------
  alpha Z        PSCENC =         0.04144063
  Ewald energy   TEWEN  =       702.53674435
  -Hartree energ DENC   =     -1174.40291884
  -exchange      EXHF   =         0.00000000
  -V(xc)+E(xc)   XCENC  =        54.82315806
  PAW double counting   =      1337.23763107    -1340.11163682
  entropy T*S    EENTRO =         0.00000000
  eigenvalues    EBANDS =      -211.90257215
  atomic energy  EATOM  =       596.16534815
  Solvation  Ediel_sol  =         0.00000000
  ---------------------------------------------------
  free energy    TOTEN  =       -35.61280554 eV

  energy without entropy =      -35.61280554  energy(sigma->0) =      -35.61280554


--------------------------------------------------------------------------------------------------------




----------------------------------------- Iteration    1(  11)  ---------------------------------------


    POTLOK:  cpu time   31.0723: real time   31.1458
    SETDIJ:  cpu time    0.0050: real time    0.0066
     EDDAV:  cpu time  121.9185: real time  122.2117
       DOS:  cpu time    0.0000: real time    0.0002
    CHARGE:  cpu time    6.7980: real time    6.8131
    MIXING:  cpu time    1.2868: real time    1.2896
    --------------------------------------------
      LOOP:  cpu time  161.0825: real time  161.4723

 eigenvalue-minimisations  :   128
 total energy-change (2. order) :-0.1640031E-02  (-0.1743026E-03)
 number of electron      15.9999991 magnetization 
 augmentation part        0.4511878 magnetization 

 Broyden mixing:
  rms(total) = 0.80024E-02    rms(broyden)= 0.80008E-02
  rms(prec ) = 0.12897E-01
  weight for this iteration     100.00

 eigenvalues of (default mixing * dielectric matrix)
  average eigenvalue GAMMA=   1.6595
  2.6422  2.6422  1.4476  1.4476  0.8889  0.8889

 Free energy of the ion-electron system (eV)
  ---------------------------------------------------
  alpha Z        PSCENC =         0.04144063
  Ewald energy   TEWEN  =       702.53674435
  -Hartree energ DENC   =     -1175.42720971
  -exchange      EXHF   =         0.00000000
  -V(xc)+E(xc)   XCENC  =        54.85482266
  PAW double counting   =      1336.81210655    -1339.68483755
  entropy T*S    EENTRO =         0.00000000
  eigenvalues    EBANDS =      -210.91286065
  atomic energy  EATOM  =       596.16534815
  Solvation  Ediel_sol  =         0.00000000
  ---------------------------------------------------
  free energy    TOTEN  =       -35.61444557 eV

  energy without entropy =      -35.61444557  energy(sigma->0) =      -35.61444557


--------------------------------------------------------------------------------------------------------




----------------------------------------- Iteration    1(  12)  ---------------------------------------


    POTLOK:  cpu time   28.8736: real time   28.9433
    SETDIJ:  cpu time    0.0070: real time    0.0067
     EDDAV:  cpu time  118.8719: real time  119.1583
       DOS:  cpu time    0.0000: real time    0.0002
    CHARGE:  cpu time    8.8467: real time    8.8678
    MIXING:  cpu time    1.5278: real time    1.5326
    --------------------------------------------
      LOOP:  cpu time  158.1300: real time  158.5138

 eigenvalue-minimisations  :   124
 total energy-change (2. order) :-0.5652071E-02  (-0.2973136E-03)
 number of electron      15.9999991 magnetization 
 augmentation part        0.4509032 magnetization 

 Broyden mixing:
  rms(total) = 0.45754E-02    rms(broyden)= 0.45694E-02
  rms(prec ) = 0.73847E-02
  weight for this iteration     100.00

 eigenvalues of (default mixing * dielectric matrix)
  average eigenvalue GAMMA=   1.7955
  3.8854  2.2328  1.9204  1.5838  0.9105  1.0179  1.0179

 Free energy of the ion-electron system (eV)
  ---------------------------------------------------
  alpha Z        PSCENC =         0.04144063
  Ewald energy   TEWEN  =       702.53674435
  -Hartree energ DENC   =     -1176.63233312
  -exchange      EXHF   =         0.00000000
  -V(xc)+E(xc)   XCENC  =        54.88296066
  PAW double counting   =      1333.19096315    -1336.06137627
  entropy T*S    EENTRO =         0.00000000
  eigenvalues    EBANDS =      -209.74384518
  atomic energy  EATOM  =       596.16534815
  Solvation  Ediel_sol  =         0.00000000
  ---------------------------------------------------
  free energy    TOTEN  =       -35.62009765 eV

  energy without entropy =      -35.62009765  energy(sigma->0) =      -35.62009765


--------------------------------------------------------------------------------------------------------




----------------------------------------- Iteration    1(  13)  ---------------------------------------


    POTLOK:  cpu time   28.0357: real time   28.1021
    SETDIJ:  cpu time    0.0060: real time    0.0066
     EDDAV:  cpu time  121.4565: real time  121.7478
       DOS:  cpu time    0.0000: real time    0.0002
    CHARGE:  cpu time    9.1026: real time    9.1246
    MIXING:  cpu time    1.5088: real time    1.5122
    --------------------------------------------
      LOOP:  cpu time  160.1117: real time  160.4986

 eigenvalue-minimisations  :   128
 total energy-change (2. order) :-0.6019407E-02  (-0.1630887E-03)
 number of electron      15.9999991 magnetization 
 augmentation part        0.4507432 magnetization 

 Broyden mixing:
  rms(total) = 0.28551E-02    rms(broyden)= 0.28525E-02
  rms(prec ) = 0.43621E-02
  weight for this iteration     100.00

 eigenvalues of (default mixing * dielectric matrix)
  average eigenvalue GAMMA=   1.8912
  4.9106  2.3929  1.7629  1.7629  1.4670  0.8972  0.9679  0.9679

 Free energy of the ion-electron system (eV)
  ---------------------------------------------------
  alpha Z        PSCENC =         0.04144063
  Ewald energy   TEWEN  =       702.53674435
  -Hartree energ DENC   =     -1177.23605333
  -exchange      EXHF   =         0.00000000
  -V(xc)+E(xc)   XCENC  =        54.89014386
  PAW double counting   =      1332.51464281    -1335.38546719
  entropy T*S    EENTRO =         0.00000000
  eigenvalues    EBANDS =      -209.15291633
  atomic energy  EATOM  =       596.16534815
  Solvation  Ediel_sol  =         0.00000000
  ---------------------------------------------------
  free energy    TOTEN  =       -35.62611705 eV

  energy without entropy =      -35.62611705  energy(sigma->0) =      -35.62611705


--------------------------------------------------------------------------------------------------------




----------------------------------------- Iteration    1(  14)  ---------------------------------------


    POTLOK:  cpu time   30.3744: real time   30.4461
    SETDIJ:  cpu time    0.0060: real time    0.0062
     EDDAV:  cpu time  117.7921: real time  118.0722
       DOS:  cpu time    0.0000: real time    0.0002
    CHARGE:  cpu time    9.1256: real time    9.1472
    MIXING:  cpu time    1.7987: real time    1.8031
    --------------------------------------------
      LOOP:  cpu time  159.0988: real time  159.4803

 eigenvalue-minimisations  :   128
 total energy-change (2. order) :-0.4020454E-02  (-0.4964071E-04)
 number of electron      15.9999991 magnetization 
 augmentation part        0.4507603 magnetization 

 Broyden mixing:
  rms(total) = 0.18331E-02    rms(broyden)= 0.18324E-02
  rms(prec ) = 0.26802E-02
  weight for this iteration     100.00

 eigenvalues of (default mixing * dielectric matrix)
  average eigenvalue GAMMA=   1.9832
  5.1582  2.8095  2.4262  1.8999  1.5634  1.1043  1.1043  0.8916  0.8916

 Free energy of the ion-electron system (eV)
  ---------------------------------------------------
  alpha Z        PSCENC =         0.04144063
  Ewald energy   TEWEN  =       702.53674435
  -Hartree energ DENC   =     -1177.41805726
  -exchange      EXHF   =         0.00000000
  -V(xc)+E(xc)   XCENC  =        54.88398886
  PAW double counting   =      1330.93035409    -1333.80109971
  entropy T*S    EENTRO =         0.00000000
  eigenvalues    EBANDS =      -208.96885661
  atomic energy  EATOM  =       596.16534815
  Solvation  Ediel_sol  =         0.00000000
  ---------------------------------------------------
  free energy    TOTEN  =       -35.63013751 eV

  energy without entropy =      -35.63013751  energy(sigma->0) =      -35.63013751


--------------------------------------------------------------------------------------------------------




----------------------------------------- Iteration    1(  15)  ---------------------------------------


    POTLOK:  cpu time   30.6493: real time   30.7228
    SETDIJ:  cpu time    0.0060: real time    0.0063
     EDDAV:  cpu time  119.4148: real time  119.7002
       DOS:  cpu time    0.0010: real time    0.0002
    CHARGE:  cpu time    8.7517: real time    8.7733
    MIXING:  cpu time    2.0127: real time    2.0172
    --------------------------------------------
      LOOP:  cpu time  160.8375: real time  161.2247

 eigenvalue-minimisations  :   128
 total energy-change (2. order) :-0.3278514E-02  (-0.3593276E-04)
 number of electron      15.9999991 magnetization 
 augmentation part        0.4508050 magnetization 

 Broyden mixing:
  rms(total) = 0.11688E-02    rms(broyden)= 0.11687E-02
  rms(prec ) = 0.15813E-02
  weight for this iteration     100.00

 eigenvalues of (default mixing * dielectric matrix)
  average eigenvalue GAMMA=   2.0946
  6.5363  3.4661  2.3509  1.6501  1.6501  1.5419  0.9280  0.9280  0.8766  1.0181

 Free energy of the ion-electron system (eV)
  ---------------------------------------------------
  alpha Z        PSCENC =         0.04144063
  Ewald energy   TEWEN  =       702.53674435
  -Hartree energ DENC   =     -1177.44426239
  -exchange      EXHF   =         0.00000000
  -V(xc)+E(xc)   XCENC  =        54.87780986
  PAW double counting   =      1331.77340250    -1334.64435541
  entropy T*S    EENTRO =         0.00000000
  eigenvalues    EBANDS =      -208.93954371
  atomic energy  EATOM  =       596.16534815
  Solvation  Ediel_sol  =         0.00000000
  ---------------------------------------------------
  free energy    TOTEN  =       -35.63341602 eV

  energy without entropy =      -35.63341602  energy(sigma->0) =      -35.63341602


--------------------------------------------------------------------------------------------------------




----------------------------------------- Iteration    1(  16)  ---------------------------------------


    POTLOK:  cpu time   26.4650: real time   26.5266
    SETDIJ:  cpu time    0.0070: real time    0.0071
     EDDAV:  cpu time  116.8092: real time  117.0818
       DOS:  cpu time    0.0000: real time    0.0002
    CHARGE:  cpu time    7.5309: real time    7.5493
    MIXING:  cpu time    1.8537: real time    1.8589
    --------------------------------------------
      LOOP:  cpu time  152.6678: real time  153.0273

 eigenvalue-minimisations  :   128
 total energy-change (2. order) :-0.1200053E-02  (-0.1048092E-04)
 number of electron      15.9999991 magnetization 
 augmentation part        0.4507777 magnetization 

 Broyden mixing:
  rms(total) = 0.65413E-03    rms(broyden)= 0.65389E-03
  rms(prec ) = 0.90274E-03
  weight for this iteration     100.00

 eigenvalues of (default mixing * dielectric matrix)
  average eigenvalue GAMMA=   2.1586
  7.2405  3.4441  2.3168  2.3168  1.6489  1.6489  1.3583  0.9898  0.9898  0.8955
  0.8955

 Free energy of the ion-electron system (eV)
  ---------------------------------------------------
  alpha Z        PSCENC =         0.04144063
  Ewald energy   TEWEN  =       702.53674435
  -Hartree energ DENC   =     -1177.47665846
  -exchange      EXHF   =         0.00000000
  -V(xc)+E(xc)   XCENC  =        54.87587580
  PAW double counting   =      1331.66360596    -1334.53458338
  entropy T*S    EENTRO =         0.00000000
  eigenvalues    EBANDS =      -208.90638912
  atomic energy  EATOM  =       596.16534815
  Solvation  Ediel_sol  =         0.00000000
  ---------------------------------------------------
  free energy    TOTEN  =       -35.63461607 eV

  energy without entropy =      -35.63461607  energy(sigma->0) =      -35.63461607


--------------------------------------------------------------------------------------------------------




----------------------------------------- Iteration    1(  17)  ---------------------------------------


    POTLOK:  cpu time   31.2163: real time   31.2929
    SETDIJ:  cpu time    0.0070: real time    0.0071
     EDDAV:  cpu time   89.9443: real time   90.1571
       DOS:  cpu time    0.0000: real time    0.0002
    CHARGE:  cpu time    8.6927: real time    8.7134
    MIXING:  cpu time    2.1187: real time    2.1243
    --------------------------------------------
      LOOP:  cpu time  131.9819: real time  132.3000

 eigenvalue-minimisations  :    92
 total energy-change (2. order) :-0.8442039E-03  (-0.2889971E-05)
 number of electron      15.9999991 magnetization 
 augmentation part        0.4507489 magnetization 

 Broyden mixing:
  rms(total) = 0.40960E-03    rms(broyden)= 0.40948E-03
  rms(prec ) = 0.53214E-03
  weight for this iteration     100.00

 eigenvalues of (default mixing * dielectric matrix)
  average eigenvalue GAMMA=   2.2606
  8.0988  4.2779  2.7431  2.3469  1.6279  1.6279  1.5776  1.0877  0.9848  0.9848
  0.8847  0.8847

 Free energy of the ion-electron system (eV)
  ---------------------------------------------------
  alpha Z        PSCENC =         0.04144063
  Ewald energy   TEWEN  =       702.53674435
  -Hartree energ DENC   =     -1177.48524578
  -exchange      EXHF   =         0.00000000
  -V(xc)+E(xc)   XCENC  =        54.87474441
  PAW double counting   =      1331.53518337    -1334.40592357
  entropy T*S    EENTRO =         0.00000000
  eigenvalues    EBANDS =      -208.89775183
  atomic energy  EATOM  =       596.16534815
  Solvation  Ediel_sol  =         0.00000000
  ---------------------------------------------------
  free energy    TOTEN  =       -35.63546028 eV

  energy without entropy =      -35.63546028  energy(sigma->0) =      -35.63546028


--------------------------------------------------------------------------------------------------------




----------------------------------------- Iteration    1(  18)  ---------------------------------------


    POTLOK:  cpu time   30.2954: real time   30.3677
    SETDIJ:  cpu time    0.0070: real time    0.0069
     EDDAV:  cpu time   76.8783: real time   77.0581
       DOS:  cpu time    0.0000: real time    0.0002
    CHARGE:  cpu time    8.6657: real time    8.6858
    MIXING:  cpu time    2.3646: real time    2.3705
    --------------------------------------------
      LOOP:  cpu time  118.2130: real time  118.4928

 eigenvalue-minimisations  :    76
 total energy-change (2. order) :-0.3459715E-03  (-0.2512521E-05)
 number of electron      15.9999991 magnetization 
 augmentation part        0.4507521 magnetization 

 Broyden mixing:
  rms(total) = 0.27127E-03    rms(broyden)= 0.27123E-03
  rms(prec ) = 0.33346E-03
  weight for this iteration     100.00

 eigenvalues of (default mixing * dielectric matrix)
  average eigenvalue GAMMA=   2.3612
  8.4485  4.7645  2.6852  2.6852  2.5288  1.6631  1.6631  1.4538  0.9978  0.9978
  0.8949  0.8949  1.0182

 Free energy of the ion-electron system (eV)
  ---------------------------------------------------
  alpha Z        PSCENC =         0.04144063
  Ewald energy   TEWEN  =       702.53674435
  -Hartree energ DENC   =     -1177.47824134
  -exchange      EXHF   =         0.00000000
  -V(xc)+E(xc)   XCENC  =        54.87401899
  PAW double counting   =      1331.73802593    -1334.60878252
  entropy T*S    EENTRO =         0.00000000
  eigenvalues    EBANDS =      -208.90436043
  atomic energy  EATOM  =       596.16534815
  Solvation  Ediel_sol  =         0.00000000
  ---------------------------------------------------
  free energy    TOTEN  =       -35.63580625 eV

  energy without entropy =      -35.63580625  energy(sigma->0) =      -35.63580625


--------------------------------------------------------------------------------------------------------




----------------------------------------- Iteration    1(  19)  ---------------------------------------


    POTLOK:  cpu time   30.4434: real time   30.5164
    SETDIJ:  cpu time    0.0070: real time    0.0069
     EDDAV:  cpu time   79.7799: real time   79.9587
       DOS:  cpu time    0.0000: real time    0.0002
    CHARGE:  cpu time    9.0696: real time    9.0915
    MIXING:  cpu time    2.6596: real time    2.6652
    --------------------------------------------
      LOOP:  cpu time  121.9615: real time  122.2430

 eigenvalue-minimisations  :    88
 total energy-change (2. order) :-0.2319756E-03  (-0.1020910E-05)
 number of electron      15.9999991 magnetization 
 augmentation part        0.4507677 magnetization 

 Broyden mixing:
  rms(total) = 0.30956E-03    rms(broyden)= 0.30947E-03
  rms(prec ) = 0.32988E-03
  weight for this iteration     100.00

 eigenvalues of (default mixing * dielectric matrix)
  average eigenvalue GAMMA=   2.3294
  8.6587  5.3215  3.2316  2.5897  2.1163  1.7647  1.6120  1.6120  1.0155  1.0155
  1.0718  0.8800  0.8800  0.8424

 Free energy of the ion-electron system (eV)
  ---------------------------------------------------
  alpha Z        PSCENC =         0.04144063
  Ewald energy   TEWEN  =       702.53674435
  -Hartree energ DENC   =     -1177.47108730
  -exchange      EXHF   =         0.00000000
  -V(xc)+E(xc)   XCENC  =        54.87347253
  PAW double counting   =      1331.70100074    -1334.57188158
  entropy T*S    EENTRO =         0.00000000
  eigenvalues    EBANDS =      -208.91107574
  atomic energy  EATOM  =       596.16534815
  Solvation  Ediel_sol  =         0.00000000
  ---------------------------------------------------
  free energy    TOTEN  =       -35.63603822 eV

  energy without entropy =      -35.63603822  energy(sigma->0) =      -35.63603822


--------------------------------------------------------------------------------------------------------




----------------------------------------- Iteration    1(  20)  ---------------------------------------


    POTLOK:  cpu time   30.8903: real time   30.9638
    SETDIJ:  cpu time    0.0070: real time    0.0065
     EDDAV:  cpu time   92.6939: real time   92.9087
       DOS:  cpu time    0.0000: real time    0.0002
    --------------------------------------------
      LOOP:  cpu time  123.5932: real time  123.8849

 eigenvalue-minimisations  :    96
 total energy-change (2. order) :-0.3436794E-04  (-0.2733401E-06)
 number of electron      15.9999991 magnetization 
 augmentation part        0.4507677 magnetization 

 Free energy of the ion-electron system (eV)
  ---------------------------------------------------
  alpha Z        PSCENC =         0.04144063
  Ewald energy   TEWEN  =       702.53674435
  -Hartree energ DENC   =     -1177.47175253
  -exchange      EXHF   =         0.00000000
  -V(xc)+E(xc)   XCENC  =        54.87339970
  PAW double counting   =      1331.61979374    -1334.49061859
  entropy T*S    EENTRO =         0.00000000
  eigenvalues    EBANDS =      -208.91042804
  atomic energy  EATOM  =       596.16534815
  Solvation  Ediel_sol  =         0.00000000
  ---------------------------------------------------
  free energy    TOTEN  =       -35.63607259 eV

  energy without entropy =      -35.63607259  energy(sigma->0) =      -35.63607259


--------------------------------------------------------------------------------------------------------




 average (electrostatic) potential at core
  the test charge radii are     0.5201  0.6991  0.7089
  (the norm of the test charge is              1.0000)
       1 -43.0889       2 -43.0895       3 -43.0873       4 -60.5391       5 -59.3341
       6 -74.8354
 
 
 
 E-fermi :  -6.1908     XC(G=0):  -0.0945     alpha+bet : -0.0137


 k-point     1 :       0.2500    0.2500    0.2500
  band No.  band energies     occupation 
      1     -23.8948      2.00000
      2     -19.2963      2.00000
      3     -13.9061      2.00000
      4     -11.8240      2.00000
      5     -11.7254      2.00000
      6      -8.3530      2.00000
      7      -8.3274      2.00000
      8      -7.1283      2.00000
      9      -0.7886      0.00000
     10      -0.6407      0.00000
     11      -0.6140      0.00000
     12      -0.0128      0.00000

 k-point     2 :      -0.2500    0.2500    0.2500
  band No.  band energies     occupation 
      1     -23.8948      2.00000
      2     -19.2963      2.00000
      3     -13.9061      2.00000
      4     -11.8240      2.00000
      5     -11.7254      2.00000
      6      -8.3530      2.00000
      7      -8.3274      2.00000
      8      -7.1283      2.00000
      9      -0.7886      0.00000
     10      -0.6407      0.00000
     11      -0.6140      0.00000
     12      -0.0123      0.00000

 k-point     3 :       0.2500   -0.2500    0.2500
  band No.  band energies     occupation 
      1     -23.8948      2.00000
      2     -19.2963      2.00000
      3     -13.9061      2.00000
      4     -11.8240      2.00000
      5     -11.7254      2.00000
      6      -8.3530      2.00000
      7      -8.3274      2.00000
      8      -7.1283      2.00000
      9      -0.7886      0.00000
     10      -0.6407      0.00000
     11      -0.6140      0.00000
     12      -0.0124      0.00000

 k-point     4 :      -0.2500   -0.2500    0.2500
  band No.  band energies     occupation 
      1     -23.8948      2.00000
      2     -19.2963      2.00000
      3     -13.9061      2.00000
      4     -11.8240      2.00000
      5     -11.7254      2.00000
      6      -8.3530      2.00000
      7      -8.3274      2.00000
      8      -7.1283      2.00000
      9      -0.7886      0.00000
     10      -0.6407      0.00000
     11      -0.6140      0.00000
     12      -0.0127      0.00000


--------------------------------------------------------------------------------------------------------


 soft charge-density along one line, spin component           1
         0         1         2         3         4         5         6         7         8         9
 total charge-density along one line
 
 pseudopotential strength for first ion, spin component:           1
 -2.363  -4.075  -0.002   0.001   0.000
 -4.075  -6.943  -0.005   0.002  -0.001
 -0.002  -0.005  -0.330  -0.002   0.001
  0.001   0.002  -0.002  -0.333   0.000
  0.000  -0.001   0.001   0.000  -0.334
 total augmentation occupancy for first ion, spin component:           1
  3.525  -0.635   0.402  -0.156   0.114
 -0.635   0.131  -0.074   0.029  -0.020
  0.402  -0.074   0.048  -0.015   0.012
 -0.156   0.029  -0.015   0.015  -0.004
  0.114  -0.020   0.012  -0.004   0.009


------------------------ aborting loop because EDIFF is reached ----------------------------------------


    CHARGE:  cpu time    8.2777: real time    8.2984
    FORLOC:  cpu time    2.7606: real time    2.7666
    FORNL :  cpu time   23.7074: real time   23.7629
    STRESS:  cpu time   72.4740: real time   72.6421
    FORCOR:  cpu time   21.2558: real time   21.2974
    FORHAR:  cpu time    7.0539: real time    7.0680
    MIXING:  cpu time    1.4788: real time    1.4821
    OFIELD:  cpu time    0.0000: real time    0.0000

  FORCE on cell =-STRESS in cart. coord.  units (eV):
  Direction    XX          YY          ZZ          XY          YZ          ZX
  --------------------------------------------------------------------------------------
  Alpha Z     0.04144     0.04144     0.04144
  Ewald     601.00535    40.63422    60.89707    10.25458    -1.29113  -114.09600
  Hartree   585.42025   290.71446   301.34217     6.29407    -0.99739   -58.26701
  E(xc)     -58.83760   -60.20647   -60.15996     0.01781    -0.00031    -0.28865
  Local   -1326.10914  -506.15587  -535.84369   -16.17130     2.33305   164.73026
  n-local   -26.56663   -24.43271   -24.61163     0.06684    -0.00534     0.63307
  augment     0.47076     0.99644     0.97672    -0.00901     0.00073     0.10765
  Kinetic   223.85640   257.36870   256.60577    -0.43945    -0.09149     7.00777
  Fock        0.00000     0.00000     0.00000     0.00000     0.00000     0.00000
  -------------------------------------------------------------------------------------
  Total      -0.71917    -1.03980    -0.75211     0.01354    -0.05188    -0.17291
  in kB      -0.04268    -0.06170    -0.04463     0.00080    -0.00308    -0.01026
  external pressure =       -0.05 kB  Pullay stress =        0.00 kB


 VOLUME and BASIS-vectors are now :
 -----------------------------------------------------------------------------
  energy-cutoff  :      400.00
  volume of cell :    27000.00
      direct lattice vectors                 reciprocal lattice vectors
    30.000000000  0.000000000  0.000000000     0.033333333  0.000000000  0.000000000
     0.000000000 30.000000000  0.000000000     0.000000000  0.033333333  0.000000000
     0.000000000  0.000000000 30.000000000     0.000000000  0.000000000  0.033333333

  length of vectors
    30.000000000 30.000000000 30.000000000     0.033333333  0.033333333  0.033333333


 FORCES acting on ions
    electron-ion (+dipol)            ewald-force                    non-local-force                 convergence-correction
 -----------------------------------------------------------------------------------------------
   0.286E+02 0.556E+02 -.240E+02   -.300E+02 -.608E+02 0.260E+02   0.148E+01 0.513E+01 -.198E+01   -.645E-04 0.354E-03 -.108E-03
   0.446E+02 -.922E+01 0.491E+02   -.475E+02 0.101E+02 -.540E+02   0.299E+01 -.885E+00 0.476E+01   0.327E-04 -.680E-04 0.366E-03
   0.289E+02 -.429E+02 -.426E+02   -.304E+02 0.469E+02 0.464E+02   0.153E+01 -.404E+01 -.372E+01   -.538E-04 -.293E-03 -.235E-03
   0.117E+03 0.355E+01 -.220E+02   -.124E+03 -.383E+01 0.234E+02   0.741E+01 0.299E+00 -.140E+01   -.189E-02 -.567E-04 0.383E-03
   -.226E+03 -.178E+01 0.511E+02   0.252E+03 0.181E+01 -.574E+02   -.258E+02 0.111E-02 0.624E+01   0.227E-02 -.207E-04 -.526E-03
   0.163E+02 -.515E+01 -.136E+02   -.199E+02 0.571E+01 0.156E+02   0.284E+01 -.604E+00 -.194E+01   -.208E-02 -.355E-04 0.522E-03
 -----------------------------------------------------------------------------------------------
   0.953E+01 0.974E-01 -.197E+01   0.284E-13 -.355E-14 0.000E+00   -.952E+01 -.964E-01 0.196E+01   -.178E-02 -.120E-03 0.402E-03
 
 
 POSITION                                       TOTAL-FORCE (eV/Angst)
 -----------------------------------------------------------------------------------
     14.26800     13.97369     15.49886         0.013156      0.016527      0.105652
     13.97835     15.13667     14.18875         0.101007      0.026581     -0.114689
     14.25897     15.74215     15.83391         0.021008     -0.038325      0.098647
     14.54442     14.96435     15.11372         0.116216      0.011673     -0.015107
     17.09006     15.01698     14.60008         0.489368      0.031044     -0.045635
     15.94506     15.01295     14.86858        -0.740755     -0.047499     -0.028868
 -----------------------------------------------------------------------------------
    total drift:                                0.011084      0.000936     -0.008883


--------------------------------------------------------------------------------------------------------



  FREE ENERGIE OF THE ION-ELECTRON SYSTEM (eV)
  ---------------------------------------------------
  free  energy   TOTEN  =       -35.63607259 eV

  energy  without entropy=      -35.63607259  energy(sigma->0) =      -35.63607259
 


--------------------------------------------------------------------------------------------------------


    POTLOK:  cpu time   17.3024: real time   17.3366


--------------------------------------------------------------------------------------------------------


 NEB: the previous image is higher in energy: F
 NEB: the next image is higher in energy    : T
 NEB: only next energy greater

 NEB: Tangent
 ----------------------------------------------
      0.00236      0.07267     -0.32315
      0.36787      0.29397     -0.15362
     -0.23410     -0.02190     -0.01302
      0.00823      0.14830     -0.03070
     -0.31239     -0.50134     -0.02831
      0.05844      0.20729      0.41276

 NEB: forces: par spring, perp REAL, dneb     0.441505    0.901999    0.000000
 NEB: distance to prev, next image, angle between     0.864351    0.776050  115.401526
 NEB: projections on to tangent (spring, REAL)    -0.441505   -0.204731

 stress matrix after NEB project (eV)
     -0.71917      0.01354     -0.17291
      0.01354     -1.03980     -0.05188
     -0.17291     -0.05188     -0.75211
  FORCES: max atom, RMS     0.771210    0.409986
  FORCE total and by dimension    1.004255    0.754592
  Stress total and by dimension    1.493188    1.039801
 
 OPT: Flag T
 OPT: FIRE Step
 OPT: FIRE, TIMESTEP      0.10000
 OPT: FIRE, alpha         0.10000


--------------------------------------------------------------------------------------------------------


    WAVPRE:  cpu time    8.1368: real time    9.3176
 FEWALD executed in parallel
    FEWALD:  cpu time    0.0000: real time    0.0004
    ORTHCH:  cpu time    6.2890: real time    6.7051
     LOOP+:  cpu time 3180.5695: real time 3195.2267


----------------------------------------- Iteration    2(   1)  ---------------------------------------


    POTLOK:  cpu time   36.6714: real time   37.9850
    SETDIJ:  cpu time    0.0070: real time    0.0073
     EDDAV:  cpu time   71.9441: real time   77.9760
       DOS:  cpu time    0.0000: real time    0.0002
    CHARGE:  cpu time    5.9151: real time    6.7826
    MIXING:  cpu time    0.9289: real time    0.9402
    --------------------------------------------
      LOOP:  cpu time  115.4684: real time  123.7009

 eigenvalue-minimisations  :    96
 total energy-change (2. order) :-0.6920558E-03  (-0.4286464E-01)
 number of electron      15.9999992 magnetization 
 augmentation part        0.4478782 magnetization 

 Broyden mixing:
  rms(total) = 0.31160E-01    rms(broyden)= 0.31115E-01
  rms(prec ) = 0.31873E-01
  weight for this iteration     100.00

 Free energy of the ion-electron system (eV)
  ---------------------------------------------------
  alpha Z        PSCENC =         0.04144063
  Ewald energy   TEWEN  =       701.05939999
  -Hartree energ DENC   =     -1176.73519853
  -exchange      EXHF   =         0.00000000
  -V(xc)+E(xc)   XCENC  =        54.84039054
  PAW double counting   =      1331.65295872    -1334.52377483
  entropy T*S    EENTRO =         0.00000000
  eigenvalues    EBANDS =      -208.13729495
  atomic energy  EATOM  =       596.16534815
  Solvation  Ediel_sol  =         0.00000000
  ---------------------------------------------------
  free energy    TOTEN  =       -35.63673028 eV

  energy without entropy =      -35.63673028  energy(sigma->0) =      -35.63673028


--------------------------------------------------------------------------------------------------------




----------------------------------------- Iteration    2(   2)  ---------------------------------------


    POTLOK:  cpu time   32.2721: real time   33.7355
    SETDIJ:  cpu time    0.0060: real time    0.0073
     EDDAV:  cpu time   96.0124: real time   96.2386
       DOS:  cpu time    0.0000: real time    0.0002
    CHARGE:  cpu time    5.7831: real time    5.7958
    MIXING:  cpu time    0.9289: real time    0.9308
    --------------------------------------------
      LOOP:  cpu time  135.0035: real time  136.7181

 eigenvalue-minimisations  :   128
 total energy-change (2. order) : 0.7611608E-03  (-0.1141379E-02)
 number of electron      15.9999992 magnetization 
 augmentation part        0.4463775 magnetization 

 Broyden mixing:
  rms(total) = 0.14624E-01    rms(broyden)= 0.14614E-01
  rms(prec ) = 0.15021E-01
  weight for this iteration     100.00

 eigenvalues of (default mixing * dielectric matrix)
  average eigenvalue GAMMA=   1.0149
  1.0149

 Free energy of the ion-electron system (eV)
  ---------------------------------------------------
  alpha Z        PSCENC =         0.04144063
  Ewald energy   TEWEN  =       701.05939999
  -Hartree energ DENC   =     -1176.63085657
  -exchange      EXHF   =         0.00000000
  -V(xc)+E(xc)   XCENC  =        54.82978614
  PAW double counting   =      1325.88994743    -1328.75601771
  entropy T*S    EENTRO =         0.00000000
  eigenvalues    EBANDS =      -208.23501717
  atomic energy  EATOM  =       596.16534815
  Solvation  Ediel_sol  =         0.00000000
  ---------------------------------------------------
  free energy    TOTEN  =       -35.63596912 eV

  energy without entropy =      -35.63596912  energy(sigma->0) =      -35.63596912


--------------------------------------------------------------------------------------------------------




----------------------------------------- Iteration    2(   3)  ---------------------------------------


    POTLOK:  cpu time   34.0948: real time   34.1724
    SETDIJ:  cpu time    0.0070: real time    0.0076
     EDDAV:  cpu time   91.2441: real time   91.4548
       DOS:  cpu time    0.0000: real time    0.0002
    CHARGE:  cpu time    6.6000: real time    6.9421
    MIXING:  cpu time    1.0788: real time    1.1129
    --------------------------------------------
      LOOP:  cpu time  133.0258: real time  133.6944

 eigenvalue-minimisations  :   128
 total energy-change (2. order) : 0.3805378E-03  (-0.1553264E-03)
 number of electron      15.9999992 magnetization 
 augmentation part        0.4468779 magnetization 

 Broyden mixing:
  rms(total) = 0.71369E-02    rms(broyden)= 0.71356E-02
  rms(prec ) = 0.72551E-02
  weight for this iteration     100.00

 eigenvalues of (default mixing * dielectric matrix)
  average eigenvalue GAMMA=   1.3330
  0.8867  1.7792

 Free energy of the ion-electron system (eV)
  ---------------------------------------------------
  alpha Z        PSCENC =         0.04144063
  Ewald energy   TEWEN  =       701.05939999
  -Hartree energ DENC   =     -1176.38824157
  -exchange      EXHF   =         0.00000000
  -V(xc)+E(xc)   XCENC  =        54.81732273
  PAW double counting   =      1322.61455217    -1325.47679359
  entropy T*S    EENTRO =         0.00000000
  eigenvalues    EBANDS =      -208.46861708
  atomic energy  EATOM  =       596.16534815
  Solvation  Ediel_sol  =         0.00000000
  ---------------------------------------------------
  free energy    TOTEN  =       -35.63558858 eV

  energy without entropy =      -35.63558858  energy(sigma->0) =      -35.63558858


--------------------------------------------------------------------------------------------------------




----------------------------------------- Iteration    2(   4)  ---------------------------------------


    POTLOK:  cpu time   32.9040: real time   35.5505
    SETDIJ:  cpu time    0.0070: real time    0.0072
     EDDAV:  cpu time   91.4401: real time  100.1791
[...]
  Solvation  Ediel_sol  =         0.00000000
  ---------------------------------------------------
  free energy    TOTEN  =       -35.64276274 eV

  energy without entropy =      -35.64276274  energy(sigma->0) =      -35.64276274


--------------------------------------------------------------------------------------------------------




----------------------------------------- Iteration   74(   2)  ---------------------------------------


    POTLOK:  cpu time   21.8727: real time   21.9152
    SETDIJ:  cpu time    0.0060: real time    0.0066
     EDDAV:  cpu time   58.1582: real time   58.2751
       DOS:  cpu time    0.0000: real time    0.0002
    CHARGE:  cpu time    5.1302: real time    5.1408
    MIXING:  cpu time    0.6219: real time    0.6234
    --------------------------------------------
      LOOP:  cpu time   85.7900: real time   85.9647

 eigenvalue-minimisations  :   100
 total energy-change (2. order) :-0.6308271E-05  (-0.1898056E-04)
 number of electron      15.9999993 magnetization 
 augmentation part        0.4493708 magnetization 

 Broyden mixing:
  rms(total) = 0.18199E-02    rms(broyden)= 0.18179E-02
  rms(prec ) = 0.18535E-02
  weight for this iteration     100.00

 eigenvalues of (default mixing * dielectric matrix)
  average eigenvalue GAMMA=   1.4245
  1.4245

 Free energy of the ion-electron system (eV)
  ---------------------------------------------------
  alpha Z        PSCENC =         0.04144063
  Ewald energy   TEWEN  =       702.21654310
  -Hartree energ DENC   =     -1177.28151875
  -exchange      EXHF   =         0.00000000
  -V(xc)+E(xc)   XCENC  =        54.84810914
  PAW double counting   =      1326.78954069    -1329.65632462
  entropy T*S    EENTRO =         0.00000000
  eigenvalues    EBANDS =      -208.76590737
  atomic energy  EATOM  =       596.16534815
  Solvation  Ediel_sol  =         0.00000000
  ---------------------------------------------------
  free energy    TOTEN  =       -35.64276905 eV

  energy without entropy =      -35.64276905  energy(sigma->0) =      -35.64276905


--------------------------------------------------------------------------------------------------------




----------------------------------------- Iteration   74(   3)  ---------------------------------------


    POTLOK:  cpu time   20.6839: real time   20.7277
    SETDIJ:  cpu time    0.0060: real time    0.0064
     EDDAV:  cpu time   55.1076: real time   55.2146
       DOS:  cpu time    0.0000: real time    0.0002
    CHARGE:  cpu time    5.0602: real time    5.0707
    MIXING:  cpu time    0.6019: real time    0.6026
    --------------------------------------------
      LOOP:  cpu time   81.4616: real time   81.6257

 eigenvalue-minimisations  :    92
 total energy-change (2. order) : 0.1960630E-06  (-0.7068278E-06)
 number of electron      15.9999993 magnetization 
 augmentation part        0.4493746 magnetization 

 Broyden mixing:
  rms(total) = 0.71324E-03    rms(broyden)= 0.71300E-03
  rms(prec ) = 0.72491E-03
  weight for this iteration     100.00

 eigenvalues of (default mixing * dielectric matrix)
  average eigenvalue GAMMA=   1.6263
  0.9787  2.2738

 Free energy of the ion-electron system (eV)
  ---------------------------------------------------
  alpha Z        PSCENC =         0.04144063
  Ewald energy   TEWEN  =       702.21654310
  -Hartree energ DENC   =     -1177.27206904
  -exchange      EXHF   =         0.00000000
  -V(xc)+E(xc)   XCENC  =        54.84763846
  PAW double counting   =      1326.58548216    -1329.45206054
  entropy T*S    EENTRO =         0.00000000
  eigenvalues    EBANDS =      -208.77509176
  atomic energy  EATOM  =       596.16534815
  Solvation  Ediel_sol  =         0.00000000
  ---------------------------------------------------
  free energy    TOTEN  =       -35.64276885 eV

  energy without entropy =      -35.64276885  energy(sigma->0) =      -35.64276885


--------------------------------------------------------------------------------------------------------




----------------------------------------- Iteration   74(   4)  ---------------------------------------


    POTLOK:  cpu time   21.3877: real time   21.4305
    SETDIJ:  cpu time    0.0060: real time    0.0063
     EDDAV:  cpu time   46.2940: real time   46.3868
       DOS:  cpu time    0.0000: real time    0.0002
    CHARGE:  cpu time    5.1022: real time    5.1137
    MIXING:  cpu time    0.6369: real time    0.6372
    --------------------------------------------
      LOOP:  cpu time   73.4288: real time   73.5787

 eigenvalue-minimisations  :    72
 total energy-change (2. order) :-0.1582557E-05  (-0.4186256E-06)
 number of electron      15.9999993 magnetization 
 augmentation part        0.4493894 magnetization 

 Broyden mixing:
  rms(total) = 0.20222E-03    rms(broyden)= 0.20211E-03
  rms(prec ) = 0.20865E-03
  weight for this iteration     100.00

 eigenvalues of (default mixing * dielectric matrix)
  average eigenvalue GAMMA=   1.6315
  1.0865  2.2036  1.6046

 Free energy of the ion-electron system (eV)
  ---------------------------------------------------
  alpha Z        PSCENC =         0.04144063
  Ewald energy   TEWEN  =       702.21654310
  -Hartree energ DENC   =     -1177.26765135
  -exchange      EXHF   =         0.00000000
  -V(xc)+E(xc)   XCENC  =        54.84742753
  PAW double counting   =      1326.43491660    -1329.30139135
  entropy T*S    EENTRO =         0.00000000
  eigenvalues    EBANDS =      -208.77940374
  atomic energy  EATOM  =       596.16534815
  Solvation  Ediel_sol  =         0.00000000
  ---------------------------------------------------
  free energy    TOTEN  =       -35.64277043 eV

  energy without entropy =      -35.64277043  energy(sigma->0) =      -35.64277043


--------------------------------------------------------------------------------------------------------




----------------------------------------- Iteration   74(   5)  ---------------------------------------


    POTLOK:  cpu time   23.1445: real time   23.1916
    SETDIJ:  cpu time    0.0060: real time    0.0065
     EDDAV:  cpu time   40.6538: real time   40.7343
       DOS:  cpu time    0.0000: real time    0.0002
    CHARGE:  cpu time    5.2182: real time    5.2291
    MIXING:  cpu time    0.6709: real time    0.6712
    --------------------------------------------
      LOOP:  cpu time   69.6954: real time   69.8370

 eigenvalue-minimisations  :    60
 total energy-change (2. order) :-0.4134331E-06  (-0.9031171E-07)
 number of electron      15.9999993 magnetization 
 augmentation part        0.4493883 magnetization 

 Broyden mixing:
  rms(total) = 0.79911E-04    rms(broyden)= 0.79874E-04
  rms(prec ) = 0.83276E-04
  weight for this iteration     100.00

 eigenvalues of (default mixing * dielectric matrix)
  average eigenvalue GAMMA=   1.5561
  2.4220  1.8194  1.1523  0.8305

 Free energy of the ion-electron system (eV)
  ---------------------------------------------------
  alpha Z        PSCENC =         0.04144063
  Ewald energy   TEWEN  =       702.21654310
  -Hartree energ DENC   =     -1177.27074037
  -exchange      EXHF   =         0.00000000
  -V(xc)+E(xc)   XCENC  =        54.84758962
  PAW double counting   =      1326.40847754    -1329.27499182
  entropy T*S    EENTRO =         0.00000000
  eigenvalues    EBANDS =      -208.77643770
  atomic energy  EATOM  =       596.16534815
  Solvation  Ediel_sol  =         0.00000000
  ---------------------------------------------------
  free energy    TOTEN  =       -35.64277085 eV

  energy without entropy =      -35.64277085  energy(sigma->0) =      -35.64277085


--------------------------------------------------------------------------------------------------------




----------------------------------------- Iteration   74(   6)  ---------------------------------------


    POTLOK:  cpu time   18.4962: real time   18.5335
    SETDIJ:  cpu time    0.0060: real time    0.0063
     EDDAV:  cpu time   34.9407: real time   35.0086
       DOS:  cpu time    0.0000: real time    0.0002
    --------------------------------------------
      LOOP:  cpu time   53.4429: real time   53.5517

 eigenvalue-minimisations  :    48
 total energy-change (2. order) :-0.2876959E-06  (-0.1920048E-07)
 number of electron      15.9999993 magnetization 
 augmentation part        0.4493883 magnetization 

 Free energy of the ion-electron system (eV)
  ---------------------------------------------------
  alpha Z        PSCENC =         0.04144063
  Ewald energy   TEWEN  =       702.21654310
  -Hartree energ DENC   =     -1177.27119256
  -exchange      EXHF   =         0.00000000
  -V(xc)+E(xc)   XCENC  =        54.84761781
  PAW double counting   =      1326.40050355    -1329.26702412
  entropy T*S    EENTRO =         0.00000000
  eigenvalues    EBANDS =      -208.77600769
  atomic energy  EATOM  =       596.16534815
  Solvation  Ediel_sol  =         0.00000000
  ---------------------------------------------------
  free energy    TOTEN  =       -35.64277113 eV

  energy without entropy =      -35.64277113  energy(sigma->0) =      -35.64277113


--------------------------------------------------------------------------------------------------------




 average (electrostatic) potential at core
  the test charge radii are     0.5201  0.6991  0.7089
  (the norm of the test charge is              1.0000)
       1 -43.0730       2 -43.0738       3 -43.0763       4 -60.5383       5 -59.3502
       6 -74.8321
 
 
 
 E-fermi :  -6.1611     XC(G=0):  -0.0605     alpha+bet : -0.0137


 k-point     1 :       0.2500    0.2500    0.2500
  band No.  band energies     occupation 
      1     -23.8817      2.00000
      2     -19.2914      2.00000
      3     -13.8871      2.00000
      4     -11.7902      2.00000
      5     -11.7823      2.00000
      6      -8.3062      2.00000
      7      -8.3029      2.00000
      8      -7.1462      2.00000
      9      -0.7629      0.00000
     10      -0.6658      0.00000
     11      -0.6644      0.00000
     12       0.0243      0.00000

 k-point     2 :      -0.2500    0.2500    0.2500
  band No.  band energies     occupation 
      1     -23.8817      2.00000
      2     -19.2914      2.00000
      3     -13.8871      2.00000
      4     -11.7902      2.00000
      5     -11.7823      2.00000
      6      -8.3062      2.00000
      7      -8.3029      2.00000
      8      -7.1462      2.00000
      9      -0.7629      0.00000
     10      -0.6658      0.00000
     11      -0.6644      0.00000
     12       0.0243      0.00000

 k-point     3 :       0.2500   -0.2500    0.2500
  band No.  band energies     occupation 
      1     -23.8817      2.00000
      2     -19.2914      2.00000
      3     -13.8871      2.00000
      4     -11.7902      2.00000
      5     -11.7823      2.00000
      6      -8.3062      2.00000
      7      -8.3029      2.00000
      8      -7.1462      2.00000
      9      -0.7629      0.00000
     10      -0.6658      0.00000
     11      -0.6644      0.00000
     12       0.0244      0.00000

 k-point     4 :      -0.2500   -0.2500    0.2500
  band No.  band energies     occupation 
      1     -23.8817      2.00000
      2     -19.2914      2.00000
      3     -13.8871      2.00000
      4     -11.7902      2.00000
      5     -11.7823      2.00000
      6      -8.3062      2.00000
      7      -8.3029      2.00000
      8      -7.1462      2.00000
      9      -0.7629      0.00000
     10      -0.6658      0.00000
     11      -0.6644      0.00000
     12       0.0244      0.00000


--------------------------------------------------------------------------------------------------------


 soft charge-density along one line, spin component           1
         0         1         2         3         4         5         6         7         8         9
 total charge-density along one line
 
 pseudopotential strength for first ion, spin component:           1
 -2.362  -4.075  -0.002   0.001   0.000
 -4.075  -6.942  -0.005   0.003   0.000
 -0.002  -0.005  -0.330  -0.002   0.000
  0.001   0.003  -0.002  -0.333   0.000
  0.000   0.000   0.000   0.000  -0.334
 total augmentation occupancy for first ion, spin component:           1
  3.519  -0.634   0.381  -0.225   0.036
 -0.634   0.131  -0.070   0.042  -0.006
  0.381  -0.070   0.044  -0.021   0.004
 -0.225   0.042  -0.021   0.021  -0.001
  0.036  -0.006   0.004  -0.001   0.006


------------------------ aborting loop because EDIFF is reached ----------------------------------------


    CHARGE:  cpu time    5.1082: real time    5.1178
    FORLOC:  cpu time    2.3456: real time    2.3507
    FORNL :  cpu time   15.9696: real time   16.0014
    STRESS:  cpu time   47.6518: real time   47.7445
    FORCOR:  cpu time   18.5462: real time   18.5771
    FORHAR:  cpu time    6.3880: real time    6.3992
    MIXING:  cpu time    0.6329: real time    0.6342
    OFIELD:  cpu time    0.0000: real time    0.0000

  FORCE on cell =-STRESS in cart. coord.  units (eV):
  Direction    XX          YY          ZZ          XY          YZ          ZX
  --------------------------------------------------------------------------------------
  Alpha Z     0.04144     0.04144     0.04144
  Ewald     558.68046    50.28643    93.24936    76.60354   -24.64787  -167.05754
  Hartree   562.71241   295.99366   318.56475    39.95957   -12.88491   -87.45157
  E(xc)     -58.90765   -60.15699   -60.05145     0.19000    -0.06101    -0.41103
  Local   -1263.84404  -520.57984  -583.42020  -111.72174    35.98428   244.03411
  n-local   -26.41263   -24.40354   -24.56566    -0.31114     0.09722     0.65318
  augment     0.51828     0.98852     0.94966    -0.07115     0.02295     0.15458
  Kinetic   226.25114   256.82089   254.20939    -4.65899     1.49612    10.04429
  Fock        0.00000     0.00000     0.00000     0.00000     0.00000     0.00000
  -------------------------------------------------------------------------------------
  Total      -0.96059    -1.00942    -1.02271    -0.00990     0.00676    -0.03398
  in kB      -0.05700    -0.05990    -0.06069    -0.00059     0.00040    -0.00202
  external pressure =       -0.06 kB  Pullay stress =        0.00 kB


 VOLUME and BASIS-vectors are now :
 -----------------------------------------------------------------------------
  energy-cutoff  :      400.00
  volume of cell :    27000.00
      direct lattice vectors                 reciprocal lattice vectors
    30.000000000  0.000000000  0.000000000     0.033333333  0.000000000  0.000000000
     0.000000000 30.000000000  0.000000000     0.000000000  0.033333333  0.000000000
     0.000000000  0.000000000 30.000000000     0.000000000  0.000000000  0.033333333

  length of vectors
    30.000000000 30.000000000 30.000000000     0.033333333  0.033333333  0.033333333


 FORCES acting on ions
    electron-ion (+dipol)            ewald-force                    non-local-force                 convergence-correction
 -----------------------------------------------------------------------------------------------
   0.172E+02 0.544E+02 -.351E+02   -.177E+02 -.592E+02 0.379E+02   0.473E+00 0.486E+01 -.288E+01   0.908E-04 -.534E-04 0.352E-04
   0.502E+02 0.391E+01 0.441E+02   -.537E+02 -.410E+01 -.485E+02   0.352E+01 0.196E+00 0.444E+01   0.348E-04 -.670E-04 0.321E-04
   0.297E+02 -.442E+02 -.407E+02   -.313E+02 0.484E+02 0.441E+02   0.162E+01 -.425E+01 -.340E+01   0.620E-04 -.464E-04 0.768E-04
   0.114E+03 0.168E+02 -.366E+02   -.121E+03 -.178E+02 0.389E+02   0.712E+01 0.104E+01 -.230E+01   0.501E-03 -.418E-03 0.323E-03
   -.217E+03 -.323E+02 0.698E+02   0.242E+03 0.360E+02 -.778E+02   -.251E+02 -.374E+01 0.804E+01   0.230E-03 -.611E-03 0.589E-03
   0.158E+02 0.279E+01 -.455E+01   -.188E+02 -.328E+01 0.545E+01   0.292E+01 0.468E+00 -.880E+00   0.143E-03 -.711E-03 0.553E-03
 -----------------------------------------------------------------------------------------------
   0.941E+01 0.142E+01 -.302E+01   0.000E+00 0.711E-14 0.000E+00   -.942E+01 -.143E+01 0.302E+01   0.106E-02 -.191E-02 0.161E-02
 
 
 POSITION                                       TOTAL-FORCE (eV/Angst)
 -----------------------------------------------------------------------------------
     14.49650     13.92890     15.74436         0.024401      0.010555     -0.021800
     13.90295     14.83607     14.32036         0.029772      0.005400      0.010004
     14.27419     15.69972     15.84358         0.003978      0.005885     -0.011051
     14.57985     14.87310     15.18652         0.001571     -0.000345      0.003056
     17.02892     15.23439     14.39630        -0.007103     -0.000308      0.001376
     15.91587     15.06865     14.75361        -0.052618     -0.021187      0.018415
 -----------------------------------------------------------------------------------
    total drift:                               -0.009428     -0.009020      0.004661


--------------------------------------------------------------------------------------------------------



  FREE ENERGIE OF THE ION-ELECTRON SYSTEM (eV)
  ---------------------------------------------------
  free  energy   TOTEN  =       -35.64277113 eV

  energy  without entropy=      -35.64277113  energy(sigma->0) =      -35.64277113
 
 d Force = 0.6972034E-04[ 0.514E-04, 0.881E-04]  d Energy = 0.7120741E-04-0.149E-05
 d Force = 0.2254074E-01[ 0.231E-01, 0.220E-01]  d Ewald  = 0.2254083E-01-0.921E-07


--------------------------------------------------------------------------------------------------------


    POTLOK:  cpu time   16.6075: real time   16.6353


--------------------------------------------------------------------------------------------------------


 NEB: the previous image is higher in energy: F
 NEB: the next image is higher in energy    : T
 NEB: only next energy greater

 NEB: Tangent
 ----------------------------------------------
     -0.32284      0.10253     -0.42493
      0.20865      0.49778     -0.21219
     -0.06972      0.03762     -0.00211
     -0.04945      0.15929     -0.11727
      0.03394     -0.41094      0.31304
      0.01965     -0.05983      0.22028

 NEB: forces: par spring, perp REAL, dneb     0.122585    0.076247    0.000000
 NEB: distance to prev, next image, angle between     1.123103    1.098586  115.894681
 NEB: projections on to tangent (spring, REAL)    -0.122585    0.013328

 stress matrix after NEB project (eV)
     -0.96059     -0.00990     -0.03398
     -0.00990     -1.00942      0.00676
     -0.03398      0.00676     -1.02271
  FORCES: max atom, RMS     0.077240    0.058936
  FORCE total and by dimension    0.144363    0.068279
  Stress total and by dimension    1.729215    1.022708
 OPT: skip step - force has converged


--------------------------------------------------------------------------------------------------------


  
 reached required accuracy - stopping structural energy minimisation
     LOOP+:  cpu time  579.5279: real time  580.8859
    4ORBIT:  cpu time    0.0000: real time    0.0000

 total amount of memory used by VASP on root node  3203888. kBytes
========================================================================

   base      :      30000. kBytes
   nonlr-proj:        692. kBytes
   fftplans  :     924480. kBytes
   grid      :    1872000. kBytes
   one-center:         18. kBytes
   wavefun   :     376698. kBytes
 
  
  
 General timing and accounting informations for this job:
 ========================================================
  
                  Total CPU time used (sec):    49519.211
                            User time (sec):    48854.273
                          System time (sec):      664.939
                         Elapsed time (sec):    49851.731
  
                   Maximum memory used (kb):     4762868.
                   Average memory used (kb):           0.
  
                          Minor page faults:      6411236
                          Major page faults:            9
                 Voluntary context switches:         9169
