 vasp.5.4.1 24Jun15 (build Jan 13 2020 12:58:22) complex                        
  
 POSCAR found type information on POSCAR  H  C  N 
 06/POSCAR found :  3 types and       6 ions
 scaLAPACK will be used

 ----------------------------------------------------------------------------- 
|                                                                             |
|  ADVICE TO THIS USER RUNNING 'VASP/VAMP'   (HEAR YOUR MASTER'S VOICE ...):  |
|                                                                             |
|      You have a (more or less) 'small supercell' and for smaller cells      |
|      it is recommended  to use the reciprocal-space projection scheme!      |
|      The real space optimization is not  efficient for small cells and it   |
|      is also less accurate ...                                              |
|      Therefore set LREAL=.FALSE. in the  INCAR file                         |
|                                                                             |
 ----------------------------------------------------------------------------- 

 LDA part: xc-table for Pade appr. of Perdew
 POSCAR found type information on POSCAR  H  C  N 
 00/POSCAR found :  3 types and       6 ions
 POSCAR found type information on POSCAR  H  C  N 
 16/POSCAR found :  3 types and       6 ions
 Jacobian:    40.4401846379183     
 POSCAR, INCAR and KPOINTS ok, starting setup
 WARNING: small aliasing (wrap around) errors must be expected
 FFT: planning ...
 WAVECAR not read
 entering main loop
       N       E                     dE             d eps       ncg     rms          rms(c)
DAV:   1     0.113821805191E+03    0.11382E+03   -0.21399E+03   160   0.366E+02
DAV:   2    -0.193707447941E+01   -0.11576E+03   -0.11367E+03   192   0.109E+02
DAV:   3    -0.351615067001E+02   -0.33224E+02   -0.33172E+02   152   0.873E+01
DAV:   4    -0.390285147725E+02   -0.38670E+01   -0.38377E+01   136   0.269E+01
DAV:   5    -0.391187712771E+02   -0.90257E-01   -0.89483E-01   120   0.450E+00    0.104E+01
DAV:   6    -0.364069384355E+02    0.27118E+01   -0.45155E+00   124   0.148E+01    0.565E+00
DAV:   7    -0.356991807296E+02    0.70776E+00   -0.18509E+00   128   0.936E+00    0.222E+00
DAV:   8    -0.356308245024E+02    0.68356E-01   -0.13478E-01   128   0.279E+00    0.858E-01
DAV:   9    -0.356130263056E+02    0.17798E-01   -0.19940E-02   124   0.120E+00    0.213E-01
DAV:  10    -0.356128055437E+02    0.22076E-03   -0.42552E-03   128   0.510E-01    0.130E-01
DAV:  11    -0.356144455744E+02   -0.16400E-02   -0.17430E-03   128   0.344E-01    0.800E-02
DAV:  12    -0.356200976454E+02   -0.56521E-02   -0.29731E-03   124   0.415E-01    0.458E-02
DAV:  13    -0.356261170520E+02   -0.60194E-02   -0.16309E-03   128   0.248E-01    0.286E-02
DAV:  14    -0.356301375056E+02   -0.40205E-02   -0.49641E-04   128   0.120E-01    0.183E-02
DAV:  15    -0.356334160201E+02   -0.32785E-02   -0.35933E-04   128   0.875E-02    0.117E-02
DAV:  16    -0.356346160729E+02   -0.12001E-02   -0.10481E-04   128   0.521E-02    0.654E-03
DAV:  17    -0.356354602768E+02   -0.84420E-03   -0.28900E-05    92   0.372E-02    0.410E-03
DAV:  18    -0.356358062482E+02   -0.34597E-03   -0.25125E-05    76   0.234E-02    0.271E-03
DAV:  19    -0.356360382238E+02   -0.23198E-03   -0.10209E-05    88   0.218E-02    0.310E-03
DAV:  20    -0.356360725918E+02   -0.34368E-04   -0.27334E-06    96   0.125E-02
   1 F= -.35636073E+02 E0= -.35636073E+02  d E =-.356361E+02
damped:  g(F)=  0.000E+00 g(S)=  0.000E+00 dE (1.order)= 0.000E+00
 bond charge predicted
       N       E                     dE             d eps       ncg     rms          rms(c)
DAV:   1    -0.356367302796E+02   -0.69206E-03   -0.42865E-01    96   0.629E+00    0.312E-01
DAV:   2    -0.356359691188E+02    0.76116E-03   -0.11414E-02   128   0.940E-01    0.146E-01
DAV:   3    -0.356355885810E+02    0.38054E-03   -0.15533E-03   128   0.377E-01    0.714E-02
DAV:   4    -0.356355739526E+02    0.14628E-04   -0.48115E-04   128   0.215E-01    0.219E-02
DAV:   5    -0.356355789544E+02   -0.50018E-05   -0.44189E-05    80   0.697E-02    0.101E-02
DAV:   6    -0.356355867511E+02   -0.77967E-05   -0.10285E-05    64   0.296E-02
   2 F= -.35635587E+02 E0= -.35635587E+02  d E =0.485841E-03
damped:  g(F)=  0.000E+00 g(S)=  0.000E+00 dE (1.order)= 0.000E+00
 bond charge predicted
       N       E                     dE             d eps       ncg     rms          rms(c)
DAV:   1    -0.356383751540E+02   -0.27962E-02   -0.40955E-02    96   0.195E+00    0.908E-02
DAV:   2    -0.356383233447E+02    0.51809E-04   -0.10779E-03   128   0.291E-01    0.440E-02
DAV:   3    -0.356382958133E+02    0.27531E-04   -0.12236E-04    96   0.115E-01    0.222E-02
DAV:   4    -0.356383100987E+02   -0.14285E-04   -0.10627E-04    80   0.100E-01    0.840E-03
DAV:   5    -0.356383142785E+02   -0.41797E-05   -0.18124E-05    96   0.445E-02    0.448E-03
DAV:   6    -0.356383182356E+02   -0.39571E-05   -0.41419E-06    64   0.195E-02
   3 F= -.35638318E+02 E0= -.35638318E+02  d E =-.273148E-02
damped:  g(F)=  0.000E+00 g(S)=  0.000E+00 dE (1.order)= 0.000E+00
 bond charge predicted
       N       E                     dE             d eps       ncg     rms          rms(c)
DAV:   1    -0.356395645382E+02   -0.12503E-02   -0.94548E-02    96   0.297E+00    0.130E-01
DAV:   2    -0.356394384120E+02    0.12613E-03   -0.24036E-03   128   0.430E-01    0.647E-02
DAV:   3    -0.356393685141E+02    0.69898E-04   -0.31743E-04   128   0.169E-01    0.325E-02
DAV:   4    -0.356393678591E+02    0.65502E-06   -0.86426E-05    64   0.983E-02    0.106E-02
DAV:   5    -0.356393677577E+02    0.10139E-06   -0.13786E-05    96   0.376E-02    0.463E-03
DAV:   6    -0.356393676469E+02    0.11080E-06   -0.25597E-06    64   0.163E-02
   4 F= -.35639368E+02 E0= -.35639368E+02  d E =-.104941E-02
damped:  g(F)=  0.000E+00 g(S)=  0.000E+00 dE (1.order)= 0.000E+00
 bond charge predicted
       N       E                     dE             d eps       ncg     rms          rms(c)
DAV:   1    -0.356394793245E+02   -0.11157E-03   -0.38464E-04   124   0.192E-01    0.669E-03
DAV:   2    -0.356394801729E+02   -0.84834E-06   -0.78078E-06    64   0.251E-02    0.376E-03
DAV:   3    -0.356394811196E+02   -0.94673E-06   -0.15598E-06    64   0.120E-02    0.193E-03
DAV:   4    -0.356394827586E+02   -0.16390E-05   -0.78233E-07    64   0.803E-03    0.681E-04
DAV:   5    -0.356394838408E+02   -0.10822E-05   -0.16505E-07    48   0.391E-03    0.341E-04
DAV:   6    -0.356394847392E+02   -0.89847E-06   -0.81319E-08    64   0.208E-03
   5 F= -.35639485E+02 E0= -.35639485E+02  d E =-.117092E-03
damped:  g(F)=  0.000E+00 g(S)=  0.000E+00 dE (1.order)= 0.000E+00
 bond charge predicted
       N       E                     dE             d eps       ncg     rms          rms(c)
DAV:   1    -0.356396679643E+02   -0.18412E-03   -0.14838E-03    96   0.376E-01    0.130E-02
DAV:   2    -0.356396674953E+02    0.46893E-06   -0.29250E-05    64   0.485E-02    0.707E-03
DAV:   3    -0.356396674407E+02    0.54673E-07   -0.56506E-06    76   0.230E-02    0.360E-03
DAV:   4    -0.356396682896E+02   -0.84894E-06   -0.28422E-06    72   0.157E-02    0.130E-03
DAV:   5    -0.356396686993E+02   -0.40964E-06   -0.51958E-07    48   0.740E-03    0.711E-04
DAV:   6    -0.356396690525E+02   -0.35329E-06   -0.16107E-07    76   0.356E-03
   6 F= -.35639669E+02 E0= -.35639669E+02  d E =-.184313E-03
damped:  g(F)=  0.000E+00 g(S)=  0.000E+00 dE (1.order)= 0.000E+00
 bond charge predicted
       N       E                     dE             d eps       ncg     rms          rms(c)
DAV:   1    -0.356398664150E+02   -0.19772E-03   -0.30464E-03    96   0.538E-01    0.168E-02
DAV:   2    -0.356398649833E+02    0.14317E-05   -0.56064E-05    64   0.666E-02    0.956E-03
DAV:   3    -0.356398640096E+02    0.97374E-06   -0.10030E-05    96   0.306E-02    0.504E-03
DAV:   4    -0.356398643040E+02   -0.29445E-06   -0.50848E-06    64   0.210E-02    0.177E-03
DAV:   5    -0.356398643903E+02   -0.86303E-07   -0.94642E-07    88   0.989E-03    0.101E-03
DAV:   6    -0.356398644729E+02   -0.82567E-07   -0.28834E-07    64   0.470E-03
   7 F= -.35639864E+02 E0= -.35639864E+02  d E =-.195420E-03
damped:  g(F)=  0.000E+00 g(S)=  0.000E+00 dE (1.order)= 0.000E+00
 bond charge predicted
       N       E                     dE             d eps       ncg     rms          rms(c)
DAV:   1    -0.356400349349E+02   -0.17054E-03   -0.48456E-03    96   0.676E-01    0.180E-02
DAV:   2    -0.356400343650E+02    0.56989E-06   -0.79440E-05    80   0.784E-02    0.110E-02
DAV:   3    -0.356400331538E+02    0.12112E-05   -0.12743E-05    80   0.343E-02    0.601E-03
DAV:   4    -0.356400334400E+02   -0.28622E-06   -0.62366E-06    76   0.232E-02    0.202E-03
DAV:   5    -0.356400335627E+02   -0.12264E-06   -0.11983E-06    48   0.108E-02    0.116E-03
DAV:   6    -0.356400337032E+02   -0.14052E-06   -0.34440E-07    60   0.507E-03
   8 F= -.35640034E+02 E0= -.35640034E+02  d E =-.169230E-03
damped:  g(F)=  0.000E+00 g(S)=  0.000E+00 dE (1.order)= 0.000E+00
 bond charge predicted
       N       E                     dE             d eps       ncg     rms          rms(c)
DAV:   1    -0.356401797745E+02   -0.14621E-03   -0.67870E-03    96   0.794E-01    0.172E-02
DAV:   2    -0.356401817164E+02   -0.19419E-05   -0.94835E-05    72   0.844E-02    0.114E-02
DAV:   3    -0.356401809313E+02    0.78505E-06   -0.13391E-05    48   0.347E-02    0.637E-03
DAV:   4    -0.356401814687E+02   -0.53732E-06   -0.56726E-06    48   0.221E-02    0.201E-03
DAV:   5    -0.356401817092E+02   -0.24053E-06   -0.11739E-06    48   0.101E-02    0.108E-03
DAV:   6    -0.356401819162E+02   -0.20703E-06   -0.30597E-07    48   0.456E-03
   9 F= -.35640182E+02 E0= -.35640182E+02  d E =-.148213E-03
damped:  g(F)=  0.000E+00 g(S)=  0.000E+00 dE (1.order)= 0.000E+00
 bond charge predicted
       N       E                     dE             d eps       ncg     rms          rms(c)
DAV:   1    -0.356403452932E+02   -0.16358E-03   -0.91796E-03    96   0.914E-01    0.165E-02
DAV:   2    -0.356403502635E+02   -0.49703E-05   -0.10917E-04    96   0.894E-02    0.116E-02
DAV:   3    -0.356403502972E+02   -0.33685E-07   -0.13741E-05    48   0.344E-02    0.607E-03
DAV:   4    -0.356403511112E+02   -0.81400E-06   -0.44007E-06    48   0.189E-02    0.178E-03
DAV:   5    -0.356403514451E+02   -0.33391E-06   -0.10483E-06    48   0.872E-03    0.782E-04
DAV:   6    -0.356403516887E+02   -0.24361E-06   -0.29811E-07    48   0.411E-03
  10 F= -.35640352E+02 E0= -.35640352E+02  d E =-.169772E-03
damped:  g(F)=  0.000E+00 g(S)=  0.000E+00 dE (1.order)= 0.000E+00
 bond charge predicted
       N       E                     dE             d eps       ncg     rms          rms(c)
DAV:   1    -0.356406041267E+02   -0.25268E-03   -0.15643E-02    96   0.119E+00    0.197E-02
DAV:   2    -0.356406161776E+02   -0.12051E-04   -0.19120E-04   128   0.111E-01    0.150E-02
DAV:   3    -0.356406152381E+02    0.93946E-06   -0.39833E-06    64   0.203E-02    0.760E-03
DAV:   4    -0.356406164987E+02   -0.12606E-05   -0.28614E-06    64   0.155E-02    0.136E-03
DAV:   5    -0.356406167813E+02   -0.28264E-06   -0.75959E-07    48   0.729E-03    0.751E-04
DAV:   6    -0.356406170537E+02   -0.27237E-06   -0.17626E-07    64   0.305E-03
  11 F= -.35640617E+02 E0= -.35640617E+02  d E =-.265365E-03
damped:  g(F)=  0.000E+00 g(S)=  0.000E+00 dE (1.order)= 0.000E+00
 bond charge predicted
       N       E                     dE             d eps       ncg     rms          rms(c)
DAV:   1    -0.356409902188E+02   -0.37344E-03   -0.27640E-02    96   0.158E+00    0.266E-02
DAV:   2    -0.356410109612E+02   -0.20742E-04   -0.33544E-04   112   0.147E-01    0.198E-02
DAV:   3    -0.356410094797E+02    0.14815E-05   -0.72171E-06    96   0.280E-02    0.940E-03
DAV:   4    -0.356410115762E+02   -0.20965E-05   -0.54563E-06    64   0.213E-02    0.180E-03
DAV:   5    -0.356410119346E+02   -0.35841E-06   -0.13584E-06    48   0.102E-02    0.101E-03
DAV:   6    -0.356410122571E+02   -0.32241E-06   -0.29969E-07    48   0.436E-03
  12 F= -.35641012E+02 E0= -.35641012E+02  d E =-.395203E-03
damped:  g(F)=  0.000E+00 g(S)=  0.000E+00 dE (1.order)= 0.000E+00
 bond charge predicted
       N       E                     dE             d eps       ncg     rms          rms(c)
DAV:   1    -0.356414576334E+02   -0.44570E-03   -0.49105E-02    96   0.210E+00    0.370E-02
DAV:   2    -0.356414931497E+02   -0.35516E-04   -0.61135E-04   128   0.199E-01    0.270E-02
DAV:   3    -0.356414895125E+02    0.36372E-05   -0.15124E-05    64   0.412E-02    0.130E-02
DAV:   4    -0.356414933762E+02   -0.38637E-05   -0.12196E-05    80   0.324E-02    0.280E-03
DAV:   5    -0.356414939612E+02   -0.58496E-06   -0.29069E-06    48   0.158E-02    0.145E-03
DAV:   6    -0.356414944485E+02   -0.48736E-06   -0.59187E-07    48   0.643E-03
  13 F= -.35641494E+02 E0= -.35641494E+02  d E =-.482191E-03
damped:  g(F)=  0.000E+00 g(S)=  0.000E+00 dE (1.order)= 0.000E+00
 bond charge predicted
       N       E                     dE             d eps       ncg     rms          rms(c)
DAV:   1    -0.356418780552E+02   -0.38409E-03   -0.85556E-02    96   0.278E+00    0.497E-02
DAV:   2    -0.356419401362E+02   -0.62081E-04   -0.10691E-03   128   0.263E-01    0.360E-02
DAV:   3    -0.356419341791E+02    0.59571E-05   -0.26537E-05    64   0.546E-02    0.169E-02
DAV:   4    -0.356419407714E+02   -0.65923E-05   -0.20499E-05    80   0.417E-02    0.366E-03
DAV:   5    -0.356419418921E+02   -0.11207E-05   -0.48776E-06    48   0.204E-02    0.188E-03
DAV:   6    -0.356419427948E+02   -0.90266E-06   -0.10081E-06    52   0.839E-03
  14 F= -.35641943E+02 E0= -.35641943E+02  d E =-.448346E-03
damped:  g(F)=  0.000E+00 g(S)=  0.000E+00 dE (1.order)= 0.000E+00
 bond charge predicted
       N       E                     dE             d eps       ncg     rms          rms(c)
DAV:   1    -0.356421276469E+02   -0.18575E-03   -0.14641E-01    96   0.363E+00    0.650E-02
DAV:   2    -0.356422350832E+02   -0.10744E-03   -0.18024E-03   128   0.341E-01    0.471E-02
DAV:   3    -0.356422288110E+02    0.62722E-05   -0.40815E-05    64   0.667E-02    0.212E-02
DAV:   4    -0.356422401531E+02   -0.11342E-04   -0.27536E-05    80   0.472E-02    0.426E-03
DAV:   5    -0.356422421199E+02   -0.19668E-05   -0.66929E-06    48   0.227E-02    0.228E-03
DAV:   6    -0.356422437846E+02   -0.16647E-05   -0.14735E-06    52   0.978E-03
  15 F= -.35642244E+02 E0= -.35642244E+02  d E =-.300990E-03
damped:  g(F)=  0.000E+00 g(S)=  0.000E+00 dE (1.order)= 0.000E+00
 bond charge predicted
       N       E                     dE             d eps       ncg     rms          rms(c)
DAV:   1    -0.356420853736E+02    0.15675E-03   -0.25134E-01    96   0.476E+00    0.862E-02
DAV:   2    -0.356422659513E+02   -0.18058E-03   -0.30808E-03   128   0.447E-01    0.629E-02
DAV:   3    -0.356422593217E+02    0.66296E-05   -0.69797E-05    96   0.857E-02    0.281E-02
DAV:   4    -0.356422808460E+02   -0.21524E-04   -0.40982E-05    76   0.573E-02    0.562E-03
DAV:   5    -0.356422842284E+02   -0.33823E-05   -0.10154E-05    52   0.271E-02    0.290E-03
DAV:   6    -0.356422870024E+02   -0.27740E-05   -0.22924E-06    60   0.118E-02
  16 F= -.35642287E+02 E0= -.35642287E+02  d E =-.432178E-04
damped:  g(F)=  0.000E+00 g(S)=  0.000E+00 dE (1.order)= 0.000E+00
 bond charge predicted
       N       E                     dE             d eps       ncg     rms          rms(c)
DAV:   1    -0.356413682695E+02    0.91596E-03   -0.43661E-01    96   0.627E+00    0.117E-01
DAV:   2    -0.356416684002E+02   -0.30013E-03   -0.53873E-03   128   0.594E-01    0.852E-02
DAV:   3    -0.356416536064E+02    0.14794E-04   -0.13499E-04    96   0.119E-01    0.386E-02
DAV:   4    -0.356416963870E+02   -0.42781E-04   -0.74506E-05    80   0.788E-02    0.820E-03
DAV:   5    -0.356417022337E+02   -0.58467E-05   -0.18157E-05    64   0.366E-02    0.402E-03
DAV:   6    -0.356417066411E+02   -0.44074E-05   -0.40334E-06    64   0.163E-02
  17 F= -.35641707E+02 E0= -.35641707E+02  d E =0.580361E-03
damped:  g(F)=  0.000E+00 g(S)=  0.000E+00 dE (1.order)= 0.000E+00
 bond charge predicted
       N       E                     dE             d eps       ncg     rms          rms(c)
DAV:   1    -0.356395280380E+02    0.21742E-02   -0.71412E-01    96   0.801E+00    0.152E-01
DAV:   2    -0.356400210661E+02   -0.49303E-03   -0.87795E-03   128   0.762E-01    0.109E-01
DAV:   3    -0.356399965321E+02    0.24534E-04   -0.26421E-04   128   0.152E-01    0.478E-02
DAV:   4    -0.356400633623E+02   -0.66830E-04   -0.63757E-05    80   0.749E-02    0.106E-02
DAV:   5    -0.356400724624E+02   -0.91001E-05   -0.13865E-05    64   0.324E-02    0.454E-03
DAV:   6    -0.356400784849E+02   -0.60226E-05   -0.26810E-06    64   0.134E-02
  18 F= -.35640078E+02 E0= -.35640078E+02  d E =0.162816E-02
damped:  g(F)=  0.000E+00 g(S)=  0.000E+00 dE (1.order)= 0.000E+00
 bond charge predicted
       N       E                     dE             d eps       ncg     rms          rms(c)
DAV:   1    -0.356365614128E+02    0.35110E-02   -0.11044E+00    96   0.996E+00    0.192E-01
DAV:   2    -0.356373641165E+02   -0.80270E-03   -0.13550E-02   128   0.948E-01    0.136E-01
DAV:   3    -0.356373083391E+02    0.55777E-04   -0.38057E-04   124   0.185E-01    0.558E-02
DAV:   4    -0.356374050299E+02   -0.96691E-04   -0.10386E-04    80   0.921E-02    0.120E-02
DAV:   5    -0.356374187286E+02   -0.13699E-04   -0.22200E-05    64   0.413E-02    0.494E-03
DAV:   6    -0.356374264776E+02   -0.77490E-05   -0.38014E-06    56   0.160E-02
  19 F= -.35637426E+02 E0= -.35637426E+02  d E =0.265201E-02
damped:  g(F)=  0.000E+00 g(S)=  0.000E+00 dE (1.order)= 0.000E+00
 bond charge predicted
       N       E                     dE             d eps       ncg     rms          rms(c)
DAV:   1    -0.356320331855E+02    0.53855E-02   -0.16052E+00    96   0.120E+01    0.239E-01
DAV:   2    -0.356332414840E+02   -0.12083E-02   -0.19925E-02   128   0.115E+00    0.167E-01
DAV:   3    -0.356331361275E+02    0.10536E-03   -0.58900E-04   128   0.235E-01    0.669E-02
DAV:   4    -0.356332576016E+02   -0.12147E-03   -0.17341E-04    80   0.118E-01    0.147E-02
DAV:   5    -0.356332773905E+02   -0.19789E-04   -0.38323E-05    92   0.557E-02    0.596E-03
DAV:   6    -0.356332879396E+02   -0.10549E-04   -0.62328E-06    56   0.207E-02
  20 F= -.35633288E+02 E0= -.35633288E+02  d E =0.413854E-02
damped:  g(F)=  0.000E+00 g(S)=  0.000E+00 dE (1.order)= 0.000E+00
 bond charge predicted
       N       E                     dE             d eps       ncg     rms          rms(c)
DAV:   1    -0.356256014904E+02    0.76759E-02   -0.21163E+00    96   0.138E+01    0.282E-01
DAV:   2    -0.356271653775E+02   -0.15639E-02   -0.25877E-02   120   0.133E+00    0.196E-01
DAV:   3    -0.356270504548E+02    0.11492E-03   -0.79501E-04   120   0.271E-01    0.734E-02
DAV:   4    -0.356272024861E+02   -0.15203E-03   -0.24393E-04   112   0.126E-01    0.192E-02
DAV:   5    -0.356272254106E+02   -0.22924E-04   -0.23469E-05    64   0.457E-02    0.664E-03
DAV:   6    -0.356272413452E+02   -0.15935E-04   -0.46446E-06    80   0.186E-02
  21 F= -.35627241E+02 E0= -.35627241E+02  d E =0.604659E-02
damped:  g(F)=  0.000E+00 g(S)=  0.000E+00 dE (1.order)= 0.000E+00
 bond charge predicted
       N       E                     dE             d eps       ncg     rms          rms(c)
DAV:   1    -0.356181117674E+02    0.91136E-02   -0.25537E+00    96   0.151E+01    0.327E-01
DAV:   2    -0.356197708555E+02   -0.16591E-02   -0.30926E-02   116   0.147E+00    0.223E-01
DAV:   3    -0.356196676338E+02    0.10322E-03   -0.11197E-03   128   0.319E-01    0.786E-02
DAV:   4    -0.356198585702E+02   -0.19094E-03   -0.28693E-04   112   0.135E-01    0.235E-02
DAV:   5    -0.356198902399E+02   -0.31670E-04   -0.23412E-05    96   0.459E-02    0.829E-03
DAV:   6    -0.356199087510E+02   -0.18511E-04   -0.54993E-06    68   0.210E-02
  22 F= -.35619909E+02 E0= -.35619909E+02  d E =0.733259E-02
damped:  g(F)=  0.000E+00 g(S)=  0.000E+00 dE (1.order)= 0.000E+00
 bond charge predicted
       N       E                     dE             d eps       ncg     rms          rms(c)
DAV:   1    -0.356103277560E+02    0.95625E-02   -0.28451E+00    96   0.159E+01    0.368E-01
DAV:   2    -0.356120556336E+02   -0.17279E-02   -0.33901E-02   112   0.156E+00    0.248E-01
DAV:   3    -0.356119796199E+02    0.76014E-04   -0.16050E-03   128   0.383E-01    0.748E-02
DAV:   4    -0.356121785161E+02   -0.19890E-03   -0.32928E-04   128   0.149E-01    0.277E-02
DAV:   5    -0.356122024676E+02   -0.23952E-04   -0.23159E-05    64   0.458E-02    0.132E-02
DAV:   6    -0.356122337899E+02   -0.31322E-04   -0.11878E-05    80   0.292E-02
  23 F= -.35612234E+02 E0= -.35612234E+02  d E =0.767496E-02
damped:  g(F)=  0.000E+00 g(S)=  0.000E+00 dE (1.order)= 0.000E+00
 bond charge predicted
       N       E                     dE             d eps       ncg     rms          rms(c)
DAV:   1    -0.356026427869E+02    0.95597E-02   -0.27803E+00    96   0.156E+01    0.395E-01
DAV:   2    -0.356039802174E+02   -0.13374E-02   -0.32665E-02   112   0.155E+00    0.257E-01
DAV:   3    -0.356040238788E+02   -0.43661E-04   -0.20272E-03   128   0.417E-01    0.692E-02
DAV:   4    -0.356041775572E+02   -0.15368E-03   -0.33587E-04   128   0.151E-01    0.307E-02
DAV:   5    -0.356042096560E+02   -0.32099E-04   -0.20153E-05    64   0.419E-02    0.150E-02
DAV:   6    -0.356042438999E+02   -0.34244E-04   -0.13089E-05    80   0.300E-02
  24 F= -.35604244E+02 E0= -.35604244E+02  d E =0.798989E-02
damped:  g(F)=  0.000E+00 g(S)=  0.000E+00 dE (1.order)= 0.000E+00
 bond charge predicted
       N       E                     dE             d eps       ncg     rms          rms(c)
DAV:   1    -0.356047063565E+02   -0.49670E-03   -0.15931E-03    96   0.390E-01    0.817E-03
DAV:   2    -0.356047216707E+02   -0.15314E-04   -0.15437E-05    96   0.339E-02    0.497E-03
DAV:   3    -0.356047408409E+02   -0.19170E-04   -0.27826E-06    80   0.139E-02    0.204E-03
DAV:   4    -0.356047586735E+02   -0.17833E-04   -0.12505E-06    96   0.748E-03    0.855E-04
DAV:   5    -0.356047754546E+02   -0.16781E-04   -0.84802E-07    96   0.498E-03    0.495E-04
DAV:   6    -0.356047913185E+02   -0.15864E-04   -0.88537E-07    80   0.421E-03
  25 F= -.35604791E+02 E0= -.35604791E+02  d E =-.547419E-03
damped:  g(F)=  0.000E+00 g(S)=  0.000E+00 dE (1.order)= 0.000E+00
 bond charge predicted
       N       E                     dE             d eps       ncg     rms          rms(c)
DAV:   1    -0.356054966413E+02   -0.72119E-03   -0.48205E-03   112   0.679E-01    0.139E-02
DAV:   2    -0.356055001325E+02   -0.34913E-05   -0.49553E-05    96   0.617E-02    0.849E-03
DAV:   3    -0.356055021651E+02   -0.20325E-05   -0.64399E-06    64   0.233E-02    0.335E-03
DAV:   4    -0.356055038446E+02   -0.16795E-05   -0.15386E-06    80   0.110E-02    0.808E-04
DAV:   5    -0.356055048931E+02   -0.10485E-05   -0.44093E-07    64   0.543E-03    0.323E-04
DAV:   6    -0.356055056276E+02   -0.73448E-06   -0.15709E-07    76   0.286E-03
  26 F= -.35605506E+02 E0= -.35605506E+02  d E =-.714309E-03
damped:  g(F)=  0.000E+00 g(S)=  0.000E+00 dE (1.order)= 0.000E+00
 bond charge predicted
       N       E                     dE             d eps       ncg     rms          rms(c)
DAV:   1    -0.356062260865E+02   -0.72119E-03   -0.94311E-03    96   0.938E-01    0.210E-02
DAV:   2    -0.356062301371E+02   -0.40506E-05   -0.10353E-04    84   0.914E-02    0.132E-02
DAV:   3    -0.356062319297E+02   -0.17926E-05   -0.14041E-05    76   0.351E-02    0.440E-03
DAV:   4    -0.356062327851E+02   -0.85547E-06   -0.32347E-06    72   0.160E-02    0.121E-03
DAV:   5    -0.356062331265E+02   -0.34137E-06   -0.88945E-07    52   0.771E-03    0.470E-04
DAV:   6    -0.356062334273E+02   -0.30077E-06   -0.30751E-07    60   0.408E-03
  27 F= -.35606233E+02 E0= -.35606233E+02  d E =-.727800E-03
damped:  g(F)=  0.000E+00 g(S)=  0.000E+00 dE (1.order)= 0.000E+00
 bond charge predicted
       N       E                     dE             d eps       ncg     rms          rms(c)
DAV:   1    -0.356068948377E+02   -0.66171E-03   -0.16412E-02    96   0.121E+00    0.293E-02
DAV:   2    -0.356068995538E+02   -0.47161E-05   -0.17409E-04    64   0.119E-01    0.184E-02
DAV:   3    -0.356069034457E+02   -0.38919E-05   -0.25878E-05    80   0.478E-02    0.470E-03
DAV:   4    -0.356069045332E+02   -0.10874E-05   -0.58426E-06    48   0.209E-02    0.183E-03
DAV:   5    -0.356069049895E+02   -0.45633E-06   -0.16314E-06    48   0.104E-02    0.609E-04
DAV:   6    -0.356069053619E+02   -0.37240E-06   -0.58188E-07    48   0.566E-03
  28 F= -.35606905E+02 E0= -.35606905E+02  d E =-.671935E-03
damped:  g(F)=  0.000E+00 g(S)=  0.000E+00 dE (1.order)= 0.000E+00
 bond charge predicted
       N       E                     dE             d eps       ncg     rms          rms(c)
DAV:   1    -0.356074092320E+02   -0.50424E-03   -0.27362E-02    96   0.154E+00    0.396E-02
DAV:   2    -0.356074184253E+02   -0.91933E-05   -0.32580E-04   100   0.152E-01    0.257E-02
DAV:   3    -0.356074212764E+02   -0.28511E-05   -0.15020E-05    68   0.413E-02    0.689E-03
DAV:   4    -0.356074230983E+02   -0.18219E-05   -0.53157E-06    48   0.194E-02    0.275E-03
DAV:   5    -0.356074238330E+02   -0.73469E-06   -0.10087E-06    48   0.893E-03    0.678E-04
DAV:   6    -0.356074243413E+02   -0.50835E-06   -0.24490E-07    48   0.366E-03
  29 F= -.35607424E+02 E0= -.35607424E+02  d E =-.518979E-03
damped:  g(F)=  0.000E+00 g(S)=  0.000E+00 dE (1.order)= 0.000E+00
 bond charge predicted
       N       E                     dE             d eps       ncg     rms          rms(c)
DAV:   1    -0.356076562245E+02   -0.23239E-03   -0.44865E-02    96   0.194E+00    0.520E-02
DAV:   2    -0.356076686345E+02   -0.12410E-04   -0.52514E-04   112   0.192E-01    0.334E-02
DAV:   3    -0.356076735133E+02   -0.48789E-05   -0.27551E-05    80   0.556E-02    0.868E-03
DAV:   4    -0.356076766243E+02   -0.31110E-05   -0.94542E-06    48   0.260E-02    0.384E-03
DAV:   5    -0.356076779260E+02   -0.13017E-05   -0.17219E-06    64   0.121E-02    0.925E-04
DAV:   6    -0.356076788103E+02   -0.88425E-06   -0.43632E-07    48   0.495E-03
  30 F= -.35607679E+02 E0= -.35607679E+02  d E =-.254469E-03
damped:  g(F)=  0.000E+00 g(S)=  0.000E+00 dE (1.order)= 0.000E+00
 bond charge predicted
       N       E                     dE             d eps       ncg     rms          rms(c)
DAV:   1    -0.356074592478E+02    0.21868E-03   -0.91809E-02    96   0.276E+00    0.749E-02
DAV:   2    -0.356074828043E+02   -0.23556E-04   -0.10747E-03   112   0.273E-01    0.480E-02
DAV:   3    -0.356074944821E+02   -0.11678E-04   -0.57403E-05    80   0.799E-02    0.124E-02
DAV:   4    -0.356075010290E+02   -0.65468E-05   -0.20201E-05    64   0.377E-02    0.569E-03
DAV:   5    -0.356075033460E+02   -0.23170E-05   -0.35658E-06    64   0.174E-02    0.134E-03
DAV:   6    -0.356075048143E+02   -0.14683E-05   -0.87153E-07    48   0.706E-03
  31 F= -.35607505E+02 E0= -.35607505E+02  d E =0.173996E-03
damped:  g(F)=  0.000E+00 g(S)=  0.000E+00 dE (1.order)= 0.000E+00
 bond charge predicted
       N       E                     dE             d eps       ncg     rms          rms(c)
DAV:   1    -0.356064810307E+02    0.10223E-02   -0.19037E-01    96   0.396E+00    0.107E-01
DAV:   2    -0.356065334097E+02   -0.52379E-04   -0.22419E-03   112   0.393E-01    0.689E-02
DAV:   3    -0.356065588005E+02   -0.25391E-04   -0.11492E-04    80   0.113E-01    0.179E-02
DAV:   4    -0.356065728526E+02   -0.14052E-04   -0.41987E-05    64   0.539E-02    0.810E-03
DAV:   5    -0.356065771999E+02   -0.43473E-05   -0.72512E-06    64   0.244E-02    0.196E-03
DAV:   6    -0.356065797319E+02   -0.25320E-05   -0.16819E-06    48   0.983E-03
  32 F= -.35606580E+02 E0= -.35606580E+02  d E =0.925082E-03
damped:  g(F)=  0.000E+00 g(S)=  0.000E+00 dE (1.order)= 0.000E+00
 bond charge predicted
       N       E                     dE             d eps       ncg     rms          rms(c)
DAV:   1    -0.356043026996E+02    0.22745E-02   -0.38917E-01    96   0.567E+00    0.151E-01
DAV:   2    -0.356044281661E+02   -0.12547E-03   -0.46228E-03   112   0.564E-01    0.975E-02
DAV:   3    -0.356044781570E+02   -0.49991E-04   -0.25863E-04   112   0.158E-01    0.258E-02
DAV:   4    -0.356045040359E+02   -0.25879E-04   -0.51228E-05    68   0.588E-02    0.110E-02
DAV:   5    -0.356045114353E+02   -0.73994E-05   -0.78009E-06    64   0.250E-02    0.316E-03
DAV:   6    -0.356045164415E+02   -0.50062E-05   -0.16683E-06    48   0.107E-02
  33 F= -.35604516E+02 E0= -.35604516E+02  d E =0.206329E-02
damped:  g(F)=  0.000E+00 g(S)=  0.000E+00 dE (1.order)= 0.000E+00
 bond charge predicted
       N       E                     dE             d eps       ncg     rms          rms(c)
DAV:   1    -0.356009066913E+02    0.36047E-02   -0.71186E-01    96   0.767E+00    0.201E-01
DAV:   2    -0.356011800391E+02   -0.27335E-03   -0.85138E-03   112   0.764E-01    0.131E-01
DAV:   3    -0.356012489993E+02   -0.68960E-04   -0.45543E-04   112   0.212E-01    0.349E-02
DAV:   4    -0.356012968808E+02   -0.47882E-04   -0.95265E-05    84   0.803E-02    0.146E-02
DAV:   5    -0.356013084630E+02   -0.11582E-04   -0.14295E-05    64   0.344E-02    0.428E-03
DAV:   6    -0.356013161137E+02   -0.76508E-05   -0.31139E-06    80   0.146E-02
  34 F= -.35601316E+02 E0= -.35601316E+02  d E =0.320033E-02
damped:  g(F)=  0.000E+00 g(S)=  0.000E+00 dE (1.order)= 0.000E+00
 bond charge predicted
       N       E                     dE             d eps       ncg     rms          rms(c)
DAV:   1    -0.355965470010E+02    0.47615E-02   -0.11747E+00    96   0.985E+00    0.256E-01
DAV:   2    -0.355970861407E+02   -0.53914E-03   -0.14186E-02   112   0.984E-01    0.167E-01
DAV:   3    -0.355971461782E+02   -0.60037E-04   -0.72968E-04   116   0.272E-01    0.454E-02
DAV:   4    -0.355972335904E+02   -0.87412E-04   -0.18471E-04   124   0.106E-01    0.204E-02
DAV:   5    -0.355972476239E+02   -0.14033E-04   -0.13282E-05    64   0.369E-02    0.571E-03
DAV:   6    -0.355972598465E+02   -0.12223E-04   -0.45559E-06    80   0.183E-02
  35 F= -.35597260E+02 E0= -.35597260E+02  d E =0.405627E-02
damped:  g(F)=  0.000E+00 g(S)=  0.000E+00 dE (1.order)= 0.000E+00
 bond charge predicted
       N       E                     dE             d eps       ncg     rms          rms(c)
DAV:   1    -0.355922731452E+02    0.49745E-02   -0.17368E+00    96   0.119E+01    0.310E-01
DAV:   2    -0.355931599539E+02   -0.88681E-03   -0.20999E-02   112   0.119E+00    0.203E-01
DAV:   3    -0.355931880526E+02   -0.28099E-04   -0.10268E-03   124   0.321E-01    0.557E-02
DAV:   4    -0.355933266288E+02   -0.13858E-03   -0.27062E-04   116   0.127E-01    0.241E-02
DAV:   5    -0.355933472940E+02   -0.20665E-04   -0.14862E-05    76   0.391E-02    0.705E-03
DAV:   6    -0.355933657449E+02   -0.18451E-04   -0.56875E-06    80   0.195E-02
  36 F= -.35593366E+02 E0= -.35593366E+02  d E =0.389410E-02
damped:  g(F)=  0.000E+00 g(S)=  0.000E+00 dE (1.order)= 0.000E+00
 bond charge predicted
       N       E                     dE             d eps       ncg     rms          rms(c)
DAV:   1    -0.355902842962E+02    0.30630E-02   -0.22595E+00    96   0.136E+01    0.358E-01
DAV:   2    -0.355914564597E+02   -0.11722E-02   -0.27380E-02   112   0.136E+00    0.233E-01
DAV:   3    -0.355914318966E+02    0.24563E-04   -0.14289E-03   128   0.372E-01    0.645E-02
DAV:   4    -0.355916160568E+02   -0.18416E-03   -0.34831E-04   120   0.144E-01    0.284E-02
DAV:   5    -0.355916429136E+02   -0.26857E-04   -0.20942E-05    80   0.447E-02    0.881E-03
DAV:   6    -0.355916661920E+02   -0.23278E-04   -0.77791E-06    80   0.233E-02
  37 F= -.35591666E+02 E0= -.35591666E+02  d E =0.169955E-02
damped:  g(F)=  0.000E+00 g(S)=  0.000E+00 dE (1.order)= 0.000E+00
 bond charge predicted
       N       E                     dE             d eps       ncg     rms          rms(c)
DAV:   1    -0.355923130924E+02   -0.67018E-03   -0.24579E+00    96   0.141E+01    0.382E-01
DAV:   2    -0.355935002129E+02   -0.11871E-02   -0.29754E-02   112   0.142E+00    0.249E-01
DAV:   3    -0.355934051218E+02    0.95091E-04   -0.19112E-03   128   0.412E-01    0.690E-02
DAV:   4    -0.355935988357E+02   -0.19371E-03   -0.37087E-04   128   0.154E-01    0.317E-02
DAV:   5    -0.355936309211E+02   -0.32085E-04   -0.24073E-05    80   0.462E-02    0.119E-02
DAV:   6    -0.355936617339E+02   -0.30813E-04   -0.11106E-05    80   0.283E-02
  38 F= -.35593662E+02 E0= -.35593662E+02  d E =-.199554E-02
damped:  g(F)=  0.000E+00 g(S)=  0.000E+00 dE (1.order)= 0.000E+00
 bond charge predicted
       N       E                     dE             d eps       ncg     rms          rms(c)
DAV:   1    -0.355944381345E+02   -0.80721E-03   -0.40990E-03    96   0.624E-01    0.169E-02
DAV:   2    -0.355944543010E+02   -0.16166E-04   -0.55268E-05    96   0.669E-02    0.991E-03
DAV:   3    -0.355944720658E+02   -0.17765E-04   -0.91569E-06    64   0.280E-02    0.440E-03
DAV:   4    -0.355944929751E+02   -0.20909E-04   -0.38290E-06    96   0.167E-02    0.144E-03
DAV:   5    -0.355945079366E+02   -0.14961E-04   -0.12219E-06    96   0.832E-03    0.747E-04
DAV:   6    -0.355945188859E+02   -0.10949E-04   -0.67662E-07    64   0.509E-03
  39 F= -.35594519E+02 E0= -.35594519E+02  d E =-.857152E-03
damped:  g(F)=  0.000E+00 g(S)=  0.000E+00 dE (1.order)= 0.000E+00
 bond charge predicted
       N       E                     dE             d eps       ncg     rms          rms(c)
DAV:   1    -0.355959223349E+02   -0.14144E-02   -0.14785E-02    96   0.118E+00    0.296E-02
DAV:   2    -0.355959318603E+02   -0.95254E-05   -0.19648E-04   128   0.117E-01    0.187E-02
DAV:   3    -0.355959365134E+02   -0.46531E-05   -0.92012E-06    64   0.321E-02    0.775E-03
DAV:   4    -0.355959437014E+02   -0.71880E-05   -0.52145E-06    96   0.214E-02    0.224E-03
DAV:   5    -0.355959471156E+02   -0.34143E-05   -0.11185E-06    64   0.106E-02    0.906E-04
DAV:   6    -0.355959492321E+02   -0.21165E-05   -0.30311E-07    48   0.432E-03
  40 F= -.35595949E+02 E0= -.35595949E+02  d E =-.143035E-02
damped:  g(F)=  0.000E+00 g(S)=  0.000E+00 dE (1.order)= 0.000E+00
 bond charge predicted
       N       E                     dE             d eps       ncg     rms          rms(c)
DAV:   1    -0.355979157625E+02   -0.19686E-02   -0.29940E-02    96   0.166E+00    0.391E-02
DAV:   2    -0.355979258974E+02   -0.10135E-04   -0.33485E-04   128   0.151E-01    0.254E-02
DAV:   3    -0.355979319191E+02   -0.60217E-05   -0.13318E-05    64   0.372E-02    0.751E-03
DAV:   4    -0.355979353805E+02   -0.34615E-05   -0.48101E-06    96   0.189E-02    0.241E-03
DAV:   5    -0.355979367694E+02   -0.13889E-05   -0.10900E-06    64   0.961E-03    0.691E-04
DAV:   6    -0.355979373299E+02   -0.56048E-06   -0.25232E-07    48   0.387E-03
  41 F= -.35597937E+02 E0= -.35597937E+02  d E =-.198810E-02
damped:  g(F)=  0.000E+00 g(S)=  0.000E+00 dE (1.order)= 0.000E+00
 bond charge predicted
       N       E                     dE             d eps       ncg     rms          rms(c)
DAV:   1    -0.356004354514E+02   -0.24987E-02   -0.49869E-02    96   0.214E+00    0.489E-02
DAV:   2    -0.356004473183E+02   -0.11867E-04   -0.51993E-04   112   0.187E-01    0.327E-02
DAV:   3    -0.356004564909E+02   -0.91726E-05   -0.22688E-05    64   0.466E-02    0.770E-03
DAV:   4    -0.356004592126E+02   -0.27217E-05   -0.62470E-06    96   0.211E-02    0.301E-03
DAV:   5    -0.356004602998E+02   -0.10872E-05   -0.11940E-06    64   0.930E-03    0.866E-04
DAV:   6    -0.356004610436E+02   -0.74374E-06   -0.34363E-07    64   0.429E-03
  42 F= -.35600461E+02 E0= -.35600461E+02  d E =-.252371E-02
damped:  g(F)=  0.000E+00 g(S)=  0.000E+00 dE (1.order)= 0.000E+00
 bond charge predicted
       N       E                     dE             d eps       ncg     rms          rms(c)
DAV:   1    -0.356033844307E+02   -0.29241E-02   -0.74608E-02    96   0.261E+00    0.596E-02
DAV:   2    -0.356033997980E+02   -0.15367E-04   -0.77746E-04   128   0.229E-01    0.403E-02
DAV:   3    -0.356034107023E+02   -0.10904E-04   -0.38730E-05    80   0.623E-02    0.101E-02
DAV:   4    -0.356034149577E+02   -0.42554E-05   -0.10763E-05    64   0.290E-02    0.399E-03
DAV:   5    -0.356034163966E+02   -0.14388E-05   -0.19231E-06    64   0.128E-02    0.139E-03
DAV:   6    -0.356034177151E+02   -0.13185E-05   -0.59521E-07    48   0.605E-03
  43 F= -.35603418E+02 E0= -.35603418E+02  d E =-.295667E-02
damped:  g(F)=  0.000E+00 g(S)=  0.000E+00 dE (1.order)= 0.000E+00
 bond charge predicted
       N       E                     dE             d eps       ncg     rms          rms(c)
DAV:   1    -0.356066564401E+02   -0.32400E-02   -0.10170E-01    96   0.305E+00    0.689E-02
DAV:   2    -0.356066788962E+02   -0.22456E-04   -0.10422E-03   128   0.264E-01    0.464E-02
DAV:   3    -0.356066959465E+02   -0.17050E-04   -0.46045E-05    80   0.679E-02    0.104E-02
DAV:   4    -0.356067011604E+02   -0.52139E-05   -0.13229E-05    64   0.310E-02    0.428E-03
DAV:   5    -0.356067033997E+02   -0.22393E-05   -0.24435E-06    60   0.140E-02    0.125E-03
DAV:   6    -0.356067050381E+02   -0.16385E-05   -0.72671E-07    52   0.640E-03
  44 F= -.35606705E+02 E0= -.35606705E+02  d E =-.328732E-02
damped:  g(F)=  0.000E+00 g(S)=  0.000E+00 dE (1.order)= 0.000E+00
 bond charge predicted
       N       E                     dE             d eps       ncg     rms          rms(c)
DAV:   1    -0.356105895746E+02   -0.38862E-02   -0.16092E-01    96   0.384E+00    0.864E-02
DAV:   2    -0.356106307263E+02   -0.41152E-04   -0.16369E-03   112   0.329E-01    0.579E-02
DAV:   3    -0.356106606706E+02   -0.29944E-04   -0.60227E-05    80   0.772E-02    0.125E-02
DAV:   4    -0.356106685738E+02   -0.79031E-05   -0.18540E-05    64   0.346E-02    0.477E-03
DAV:   5    -0.356106715604E+02   -0.29866E-05   -0.36623E-06    48   0.157E-02    0.153E-03
DAV:   6    -0.356106737256E+02   -0.21652E-05   -0.10531E-06    52   0.743E-03
  45 F= -.35610674E+02 E0= -.35610674E+02  d E =-.396869E-02
damped:  g(F)=  0.000E+00 g(S)=  0.000E+00 dE (1.order)= 0.000E+00
 bond charge predicted
       N       E                     dE             d eps       ncg     rms          rms(c)
DAV:   1    -0.356151298342E+02   -0.44583E-02   -0.24564E-01    96   0.474E+00    0.107E-01
DAV:   2    -0.356151947653E+02   -0.64931E-04   -0.24985E-03   112   0.405E-01    0.718E-02
DAV:   3    -0.356152358835E+02   -0.41118E-04   -0.93882E-05    80   0.974E-02    0.170E-02
DAV:   4    -0.356152495001E+02   -0.13617E-04   -0.29222E-05    64   0.445E-02    0.600E-03
DAV:   5    -0.356152530266E+02   -0.35264E-05   -0.59196E-06    48   0.203E-02    0.252E-03
DAV:   6    -0.356152562043E+02   -0.31778E-05   -0.17627E-06    64   0.102E-02
  46 F= -.35615256E+02 E0= -.35615256E+02  d E =-.458248E-02
damped:  g(F)=  0.000E+00 g(S)=  0.000E+00 dE (1.order)= 0.000E+00
 bond charge predicted
       N       E                     dE             d eps       ncg     rms          rms(c)
DAV:   1    -0.356201768210E+02   -0.49238E-02   -0.35503E-01    96   0.570E+00    0.126E-01
DAV:   2    -0.356202603184E+02   -0.83497E-04   -0.34786E-03   112   0.474E-01    0.851E-02
DAV:   3    -0.356203196687E+02   -0.59350E-04   -0.16202E-04   112   0.115E-01    0.180E-02
DAV:   4    -0.356203321193E+02   -0.12451E-04   -0.23443E-05    64   0.406E-02    0.752E-03
DAV:   5    -0.356203370773E+02   -0.49581E-05   -0.39621E-06    60   0.167E-02    0.299E-03
DAV:   6    -0.356203411872E+02   -0.41098E-05   -0.12512E-06    52   0.869E-03
  47 F= -.35620341E+02 E0= -.35620341E+02  d E =-.508498E-02
damped:  g(F)=  0.000E+00 g(S)=  0.000E+00 dE (1.order)= 0.000E+00
 bond charge predicted
       N       E                     dE             d eps       ncg     rms          rms(c)
DAV:   1    -0.356254390251E+02   -0.51019E-02   -0.49481E-01    96   0.672E+00    0.149E-01
DAV:   2    -0.356255495049E+02   -0.11048E-03   -0.48566E-03   112   0.558E-01    0.998E-02
DAV:   3    -0.356256057503E+02   -0.56245E-04   -0.25798E-04   112   0.146E-01    0.231E-02
DAV:   4    -0.356256256423E+02   -0.19892E-04   -0.38224E-05    80   0.536E-02    0.100E-02
DAV:   5    -0.356256332338E+02   -0.75915E-05   -0.67921E-06    64   0.227E-02    0.380E-03
DAV:   6    -0.356256384709E+02   -0.52370E-05   -0.22418E-06    64   0.123E-02
  48 F= -.35625638E+02 E0= -.35625638E+02  d E =-.529728E-02
damped:  g(F)=  0.000E+00 g(S)=  0.000E+00 dE (1.order)= 0.000E+00
 bond charge predicted
       N       E                     dE             d eps       ncg     rms          rms(c)
DAV:   1    -0.356303291043E+02   -0.46959E-02   -0.63913E-01    96   0.764E+00    0.167E-01
DAV:   2    -0.356305207660E+02   -0.19166E-03   -0.63245E-03   112   0.624E-01    0.114E-01
DAV:   3    -0.356305723838E+02   -0.51618E-04   -0.32839E-04   128   0.158E-01    0.300E-02
DAV:   4    -0.356305970299E+02   -0.24646E-04   -0.46524E-05    72   0.607E-02    0.113E-02
DAV:   5    -0.356306075558E+02   -0.10526E-04   -0.94671E-06    64   0.265E-02    0.500E-03
DAV:   6    -0.356306156024E+02   -0.80467E-05   -0.25709E-06    64   0.128E-02
  49 F= -.35630616E+02 E0= -.35630616E+02  d E =-.497713E-02
damped:  g(F)=  0.000E+00 g(S)=  0.000E+00 dE (1.order)= 0.000E+00
 bond charge predicted
       N       E                     dE             d eps       ncg     rms          rms(c)
DAV:   1    -0.356343986265E+02   -0.37911E-02   -0.77415E-01    96   0.839E+00    0.181E-01
DAV:   2    -0.356346894706E+02   -0.29084E-03   -0.79361E-03   128   0.703E-01    0.123E-01
DAV:   3    -0.356347289934E+02   -0.39523E-04   -0.36728E-04   112   0.172E-01    0.303E-02
DAV:   4    -0.356347573325E+02   -0.28339E-04   -0.56980E-05    96   0.650E-02    0.119E-02
DAV:   5    -0.356347699457E+02   -0.12613E-04   -0.95069E-06    64   0.267E-02    0.532E-03
DAV:   6    -0.356347790897E+02   -0.91440E-05   -0.34059E-06    64   0.148E-02
  50 F= -.35634779E+02 E0= -.35634779E+02  d E =-.416349E-02
damped:  g(F)=  0.000E+00 g(S)=  0.000E+00 dE (1.order)= 0.000E+00
 bond charge predicted
       N       E                     dE             d eps       ncg     rms          rms(c)
DAV:   1    -0.356373737956E+02   -0.26038E-02   -0.91845E-01    96   0.911E+00    0.196E-01
DAV:   2    -0.356378205518E+02   -0.44676E-03   -0.10140E-02   128   0.805E-01    0.134E-01
DAV:   3    -0.356378397037E+02   -0.19152E-04   -0.39733E-04   112   0.188E-01    0.358E-02
DAV:   4    -0.356378880688E+02   -0.48365E-04   -0.69968E-05    96   0.708E-02    0.121E-02
DAV:   5    -0.356379009530E+02   -0.12884E-04   -0.11113E-05    64   0.287E-02    0.567E-03
DAV:   6    -0.356379111586E+02   -0.10206E-04   -0.35120E-06    64   0.152E-02
  51 F= -.35637911E+02 E0= -.35637911E+02  d E =-.313207E-02
damped:  g(F)=  0.000E+00 g(S)=  0.000E+00 dE (1.order)= 0.000E+00
 bond charge predicted
       N       E                     dE             d eps       ncg     rms          rms(c)
DAV:   1    -0.356393090113E+02   -0.14081E-02   -0.11058E+00    96   0.993E+00    0.218E-01
DAV:   2    -0.356399411581E+02   -0.63215E-03   -0.13133E-02   128   0.932E-01    0.150E-01
DAV:   3    -0.356399391796E+02    0.19786E-05   -0.52636E-04   120   0.221E-01    0.468E-02
DAV:   4    -0.356400156304E+02   -0.76451E-04   -0.95239E-05    80   0.853E-02    0.141E-02
DAV:   5    -0.356400312705E+02   -0.15640E-04   -0.17730E-05    64   0.373E-02    0.600E-03
DAV:   6    -0.356400429230E+02   -0.11652E-04   -0.43238E-06    80   0.172E-02
  52 F= -.35640043E+02 E0= -.35640043E+02  d E =-.213176E-02
damped:  g(F)=  0.000E+00 g(S)=  0.000E+00 dE (1.order)= 0.000E+00
 bond charge predicted
       N       E                     dE             d eps       ncg     rms          rms(c)
DAV:   1    -0.356403727507E+02   -0.34148E-03   -0.14222E+00    96   0.112E+01    0.257E-01
DAV:   2    -0.356412350540E+02   -0.86230E-03   -0.17992E-02   128   0.110E+00    0.176E-01
DAV:   3    -0.356411653252E+02    0.69729E-04   -0.75152E-04   128   0.273E-01    0.596E-02
DAV:   4    -0.356412881521E+02   -0.12283E-03   -0.22298E-04   128   0.122E-01    0.200E-02
DAV:   5    -0.356413025491E+02   -0.14397E-04   -0.24287E-05    64   0.490E-02    0.639E-03
DAV:   6    -0.356413159388E+02   -0.13390E-04   -0.58411E-06    64   0.207E-02
  53 F= -.35641316E+02 E0= -.35641316E+02  d E =-.127302E-02
damped:  g(F)=  0.000E+00 g(S)=  0.000E+00 dE (1.order)= 0.000E+00
 bond charge predicted
       N       E                     dE             d eps       ncg     rms          rms(c)
DAV:   1    -0.356391072371E+02    0.21953E-02   -0.19412E+00    96   0.130E+01    0.332E-01
DAV:   2    -0.356399976969E+02   -0.89046E-03   -0.27529E-02   128   0.138E+00    0.221E-01
DAV:   3    -0.356397600414E+02    0.23766E-03   -0.17617E-03   128   0.412E-01    0.941E-02
DAV:   4    -0.356399732114E+02   -0.21317E-03   -0.44114E-04   128   0.186E-01    0.318E-02
DAV:   5    -0.356399974314E+02   -0.24220E-04   -0.63275E-05    80   0.806E-02    0.116E-02
DAV:   6    -0.356400180501E+02   -0.20619E-04   -0.16790E-05    84   0.368E-02
  54 F= -.35640018E+02 E0= -.35640018E+02  d E =0.129789E-02
damped:  g(F)=  0.000E+00 g(S)=  0.000E+00 dE (1.order)= 0.000E+00
 bond charge predicted
       N       E                     dE             d eps       ncg     rms          rms(c)
DAV:   1    -0.356222584052E+02    0.17739E-01   -0.37518E+00    96   0.183E+01    0.622E-01
DAV:   2    -0.356222215075E+02    0.36898E-04   -0.76746E-02   128   0.236E+00    0.389E-01
DAV:   3    -0.356202633785E+02    0.19581E-02   -0.69377E-03   128   0.825E-01    0.202E-01
DAV:   4    -0.356204928583E+02   -0.22948E-03   -0.32822E-03   128   0.550E-01    0.635E-02
DAV:   5    -0.356205066502E+02   -0.13792E-04   -0.60739E-04   120   0.234E-01    0.310E-02
DAV:   6    -0.356205306160E+02   -0.23966E-04   -0.48072E-05    96   0.682E-02
  55 F= -.35620531E+02 E0= -.35620531E+02  d E =0.194874E-01
damped:  g(F)=  0.000E+00 g(S)=  0.000E+00 dE (1.order)= 0.000E+00
 bond charge predicted
       N       E                     dE             d eps       ncg     rms          rms(c)
DAV:   1    -0.356453403633E+02   -0.24834E-01   -0.13691E+00    96   0.111E+01    0.600E-01
DAV:   2    -0.356419685168E+02    0.33718E-02   -0.35450E-02   128   0.172E+00    0.275E-01
DAV:   3    -0.356406830903E+02    0.12854E-02   -0.61685E-03   128   0.750E-01    0.129E-01
DAV:   4    -0.356406632881E+02    0.19802E-04   -0.14125E-03   112   0.375E-01    0.421E-02
DAV:   5    -0.356406719861E+02   -0.86980E-05   -0.10056E-04    96   0.107E-01    0.175E-02
DAV:   6    -0.356406833809E+02   -0.11395E-04   -0.30987E-05    84   0.502E-02
  56 F= -.35640683E+02 E0= -.35640683E+02  d E =-.201528E-01
damped:  g(F)=  0.000E+00 g(S)=  0.000E+00 dE (1.order)= 0.000E+00
 bond charge predicted
       N       E                     dE             d eps       ncg     rms          rms(c)
DAV:   1    -0.356414658323E+02   -0.79385E-03   -0.52033E-03   104   0.688E-01    0.357E-02
DAV:   2    -0.356414647087E+02    0.11236E-05   -0.12774E-04    88   0.109E-01    0.167E-02
DAV:   3    -0.356414695129E+02   -0.48042E-05   -0.32341E-05    72   0.573E-02    0.781E-03
DAV:   4    -0.356414804787E+02   -0.10966E-04   -0.15763E-05    72   0.371E-02    0.279E-03
DAV:   5    -0.356414878488E+02   -0.73702E-05   -0.30151E-06    88   0.173E-02    0.121E-03
DAV:   6    -0.356414933173E+02   -0.54685E-05   -0.66701E-07    72   0.780E-03
  57 F= -.35641493E+02 E0= -.35641493E+02  d E =-.809936E-03
damped:  g(F)=  0.000E+00 g(S)=  0.000E+00 dE (1.order)= 0.000E+00
 bond charge predicted
       N       E                     dE             d eps       ncg     rms          rms(c)
DAV:   1    -0.356422487034E+02   -0.76085E-03   -0.15325E-02    96   0.118E+00    0.621E-02
DAV:   2    -0.356422212796E+02    0.27424E-04   -0.42892E-04   128   0.187E-01    0.288E-02
DAV:   3    -0.356422089054E+02    0.12374E-04   -0.55637E-05    96   0.779E-02    0.140E-02
DAV:   4    -0.356422134914E+02   -0.45860E-05   -0.42138E-05    64   0.639E-02    0.510E-03
DAV:   5    -0.356422153359E+02   -0.18445E-05   -0.73499E-06    96   0.272E-02    0.274E-03
DAV:   6    -0.356422168493E+02   -0.15134E-05   -0.14385E-06    64   0.117E-02
  58 F= -.35642217E+02 E0= -.35642217E+02  d E =-.723532E-03
damped:  g(F)=  0.000E+00 g(S)=  0.000E+00 dE (1.order)= 0.000E+00
 bond charge predicted
       N       E                     dE             d eps       ncg     rms          rms(c)
DAV:   1    -0.356422231126E+02   -0.77767E-05   -0.18381E-02    96   0.129E+00    0.659E-02
DAV:   2    -0.356421870579E+02    0.36055E-04   -0.51923E-04    96   0.203E-01    0.314E-02
DAV:   3    -0.356421687740E+02    0.18284E-04   -0.65482E-05    96   0.846E-02    0.153E-02
DAV:   4    -0.356421694010E+02   -0.62707E-06   -0.50603E-05    64   0.701E-02    0.574E-03
DAV:   5    -0.356421696031E+02   -0.20206E-06   -0.90121E-06    96   0.305E-02    0.304E-03
DAV:   6    -0.356421700173E+02   -0.41423E-06   -0.18589E-06    64   0.128E-02
  59 F= -.35642170E+02 E0= -.35642170E+02  d E =0.468320E-04
damped:  g(F)=  0.000E+00 g(S)=  0.000E+00 dE (1.order)= 0.000E+00
 bond charge predicted
       N       E                     dE             d eps       ncg     rms          rms(c)
DAV:   1    -0.356421985935E+02   -0.28990E-04   -0.44682E-05    64   0.661E-02    0.265E-03
DAV:   2    -0.356421992749E+02   -0.68141E-06   -0.28021E-06    48   0.165E-02    0.165E-03
DAV:   3    -0.356421997539E+02   -0.47898E-06   -0.35328E-07    92   0.573E-03    0.104E-03
DAV:   4    -0.356422008056E+02   -0.10517E-05   -0.28260E-07    64   0.517E-03    0.340E-04
DAV:   5    -0.356422011177E+02   -0.31216E-06   -0.77334E-08    48   0.236E-03    0.274E-04
DAV:   6    -0.356422016034E+02   -0.48567E-06   -0.39847E-08    48   0.138E-03
  60 F= -.35642202E+02 E0= -.35642202E+02  d E =-.315861E-04
damped:  g(F)=  0.000E+00 g(S)=  0.000E+00 dE (1.order)= 0.000E+00
 bond charge predicted
       N       E                     dE             d eps       ncg     rms          rms(c)
DAV:   1    -0.356422501019E+02   -0.48984E-04   -0.16526E-04    64   0.126E-01    0.524E-03
DAV:   2    -0.356422509336E+02   -0.83169E-06   -0.99688E-06    48   0.311E-02    0.281E-03
DAV:   3    -0.356422511383E+02   -0.20474E-06   -0.11209E-06    64   0.101E-02    0.183E-03
DAV:   4    -0.356422515982E+02   -0.45984E-06   -0.67986E-07    64   0.879E-03    0.522E-04
DAV:   5    -0.356422517534E+02   -0.15528E-06   -0.20173E-07    48   0.415E-03    0.460E-04
DAV:   6    -0.356422518694E+02   -0.11596E-06   -0.55988E-08    48   0.184E-03
  61 F= -.35642252E+02 E0= -.35642252E+02  d E =-.502660E-04
damped:  g(F)=  0.000E+00 g(S)=  0.000E+00 dE (1.order)= 0.000E+00
 bond charge predicted
       N       E                     dE             d eps       ncg     rms          rms(c)
DAV:   1    -0.356423087651E+02   -0.57012E-04   -0.34751E-04   120   0.179E-01    0.834E-03
DAV:   2    -0.356423081203E+02    0.64482E-06   -0.83403E-06    64   0.271E-02    0.410E-03
DAV:   3    -0.356423079502E+02    0.17008E-06   -0.19785E-06    96   0.137E-02    0.186E-03
DAV:   4    -0.356423080583E+02   -0.10810E-06   -0.95412E-07    64   0.907E-03    0.671E-04
DAV:   5    -0.356423081126E+02   -0.54261E-07   -0.19395E-07    76   0.413E-03    0.367E-04
DAV:   6    -0.356423081598E+02   -0.47198E-07   -0.69776E-08    60   0.197E-03
  62 F= -.35642308E+02 E0= -.35642308E+02  d E =-.562904E-04
damped:  g(F)=  0.000E+00 g(S)=  0.000E+00 dE (1.order)= 0.000E+00
 bond charge predicted
       N       E                     dE             d eps       ncg     rms          rms(c)
DAV:   1    -0.356423588099E+02   -0.50697E-04   -0.51512E-04    96   0.219E-01    0.976E-03
DAV:   2    -0.356423577865E+02    0.10234E-05   -0.12155E-05    64   0.323E-02    0.485E-03
DAV:   3    -0.356423574422E+02    0.34425E-06   -0.26854E-06    84   0.159E-02    0.228E-03
DAV:   4    -0.356423574430E+02   -0.80513E-09   -0.13098E-06    64   0.106E-02    0.807E-04
DAV:   5    -0.356423574530E+02   -0.99935E-08   -0.25763E-07    48   0.482E-03    0.445E-04
DAV:   6    -0.356423574739E+02   -0.20829E-07   -0.94031E-08    48   0.233E-03
  63 F= -.35642357E+02 E0= -.35642357E+02  d E =-.493141E-04
damped:  g(F)=  0.000E+00 g(S)=  0.000E+00 dE (1.order)= 0.000E+00
 bond charge predicted
       N       E                     dE             d eps       ncg     rms          rms(c)
DAV:   1    -0.356423917527E+02   -0.34300E-04   -0.63144E-04    96   0.242E-01    0.103E-02
DAV:   2    -0.356423907266E+02    0.10261E-05   -0.14561E-05    64   0.350E-02    0.522E-03
DAV:   3    -0.356423903376E+02    0.38899E-06   -0.30185E-06    48   0.168E-02    0.253E-03
DAV:   4    -0.356423903328E+02    0.48008E-08   -0.14823E-06    48   0.113E-02    0.879E-04
DAV:   5    -0.356423903533E+02   -0.20498E-07   -0.28910E-07    48   0.515E-03    0.487E-04
DAV:   6    -0.356423903906E+02   -0.37308E-07   -0.10373E-07    48   0.247E-03
  64 F= -.35642390E+02 E0= -.35642390E+02  d E =-.329167E-04
damped:  g(F)=  0.000E+00 g(S)=  0.000E+00 dE (1.order)= 0.000E+00
 bond charge predicted
       N       E                     dE             d eps       ncg     rms          rms(c)
DAV:   1    -0.356424060383E+02   -0.15685E-04   -0.66239E-04    96   0.249E-01    0.964E-03
DAV:   2    -0.356424052767E+02    0.76168E-06   -0.14474E-05    64   0.343E-02    0.509E-03
DAV:   3    -0.356424049536E+02    0.32303E-06   -0.27463E-06    48   0.159E-02    0.259E-03
DAV:   4    -0.356424049716E+02   -0.18018E-07   -0.13433E-06    48   0.109E-02    0.859E-04
DAV:   5    -0.356424050106E+02   -0.39002E-07   -0.26959E-07    48   0.490E-03    0.476E-04
DAV:   6    -0.356424050647E+02   -0.54020E-07   -0.97098E-08    48   0.230E-03
  65 F= -.35642405E+02 E0= -.35642405E+02  d E =-.146741E-04
damped:  g(F)=  0.000E+00 g(S)=  0.000E+00 dE (1.order)= 0.000E+00
 bond charge predicted
       N       E                     dE             d eps       ncg     rms          rms(c)
DAV:   1    -0.356424090874E+02   -0.40767E-05   -0.76481E-04    96   0.266E-01    0.901E-03
DAV:   2    -0.356424086550E+02    0.43241E-06   -0.14661E-05    64   0.342E-02    0.502E-03
DAV:   3    -0.356424084360E+02    0.21899E-06   -0.24881E-06    48   0.149E-02    0.265E-03
DAV:   4    -0.356424084942E+02   -0.58190E-07   -0.11367E-06    48   0.101E-02    0.808E-04
DAV:   5    -0.356424085496E+02   -0.55443E-07   -0.24604E-07    48   0.445E-03    0.434E-04
DAV:   6    -0.356424086088E+02   -0.59165E-07   -0.86267E-08    48   0.202E-03
  66 F= -.35642409E+02 E0= -.35642409E+02  d E =-.354412E-05
damped:  g(F)=  0.000E+00 g(S)=  0.000E+00 dE (1.order)= 0.000E+00
 bond charge predicted
       N       E                     dE             d eps       ncg     rms          rms(c)
DAV:   1    -0.356424143011E+02   -0.57514E-05   -0.87626E-04    96   0.282E-01    0.784E-03
DAV:   2    -0.356424142786E+02    0.22411E-07   -0.12868E-05    48   0.321E-02    0.467E-03
DAV:   3    -0.356424142648E+02    0.13888E-07   -0.19824E-06    48   0.131E-02    0.229E-03
DAV:   4    -0.356424143943E+02   -0.12959E-06   -0.70510E-07    48   0.779E-03    0.616E-04
DAV:   5    -0.356424144676E+02   -0.73267E-07   -0.18363E-07    48   0.339E-03    0.293E-04
DAV:   6    -0.356424145248E+02   -0.57191E-07   -0.72718E-08    48   0.155E-03
  67 F= -.35642415E+02 E0= -.35642415E+02  d E =-.591603E-05
damped:  g(F)=  0.000E+00 g(S)=  0.000E+00 dE (1.order)= 0.000E+00
 bond charge predicted
       N       E                     dE             d eps       ncg     rms          rms(c)
DAV:   1    -0.356424399869E+02   -0.25519E-04   -0.11454E-03    96   0.317E-01    0.760E-03
DAV:   2    -0.356424402563E+02   -0.26941E-06   -0.12720E-05    48   0.319E-02    0.478E-03
DAV:   3    -0.356424405396E+02   -0.28329E-06   -0.20044E-06    64   0.130E-02    0.142E-03
DAV:   4    -0.356424406701E+02   -0.13046E-06   -0.49914E-07    48   0.595E-03    0.529E-04
DAV:   5    -0.356424407459E+02   -0.75855E-07   -0.15975E-07    48   0.293E-03    0.175E-04
DAV:   6    -0.356424408066E+02   -0.60690E-07   -0.79850E-08    48   0.158E-03
  68 F= -.35642441E+02 E0= -.35642441E+02  d E =-.262818E-04
damped:  g(F)=  0.000E+00 g(S)=  0.000E+00 dE (1.order)= 0.000E+00
 bond charge predicted
       N       E                     dE             d eps       ncg     rms          rms(c)
DAV:   1    -0.356424963561E+02   -0.55610E-04   -0.18088E-03    96   0.397E-01    0.982E-03
DAV:   2    -0.356424965536E+02   -0.19755E-06   -0.20162E-05    76   0.404E-02    0.633E-03
DAV:   3    -0.356424968879E+02   -0.33432E-06   -0.41155E-06    72   0.194E-02    0.194E-03
DAV:   4    -0.356424970793E+02   -0.19139E-06   -0.11191E-06    48   0.923E-03    0.108E-03
DAV:   5    -0.356424971330E+02   -0.53631E-07   -0.24728E-07    48   0.436E-03    0.443E-04
DAV:   6    -0.356424972048E+02   -0.71858E-07   -0.13836E-07    48   0.266E-03
  69 F= -.35642497E+02 E0= -.35642497E+02  d E =-.563982E-04
damped:  g(F)=  0.000E+00 g(S)=  0.000E+00 dE (1.order)= 0.000E+00
 bond charge predicted
       N       E                     dE             d eps       ncg     rms          rms(c)
DAV:   1    -0.356425709365E+02   -0.73804E-04   -0.30848E-03    96   0.521E-01    0.139E-02
DAV:   2    -0.356425706001E+02    0.33634E-06   -0.38925E-05    64   0.565E-02    0.896E-03
DAV:   3    -0.356425706291E+02   -0.28933E-07   -0.84387E-06    96   0.282E-02    0.349E-03
DAV:   4    -0.356425710544E+02   -0.42529E-06   -0.27406E-06    48   0.148E-02    0.174E-03
DAV:   5    -0.356425711172E+02   -0.62849E-07   -0.52427E-07    48   0.692E-03    0.636E-04
DAV:   6    -0.356425712380E+02   -0.12078E-06   -0.22397E-07    56   0.366E-03
  70 F= -.35642571E+02 E0= -.35642571E+02  d E =-.740332E-04
damped:  g(F)=  0.000E+00 g(S)=  0.000E+00 dE (1.order)= 0.000E+00
 bond charge predicted
       N       E                     dE             d eps       ncg     rms          rms(c)
DAV:   1    -0.356426288609E+02   -0.57744E-04   -0.49344E-03    96   0.659E-01    0.180E-02
DAV:   2    -0.356426281323E+02    0.72862E-06   -0.64479E-05    64   0.727E-02    0.116E-02
DAV:   3    -0.356426279887E+02    0.14355E-06   -0.13826E-05    64   0.362E-02    0.469E-03
DAV:   4    -0.356426287126E+02   -0.72387E-06   -0.47273E-06    48   0.196E-02    0.224E-03
DAV:   5    -0.356426288255E+02   -0.11289E-06   -0.89279E-07    48   0.916E-03    0.815E-04
DAV:   6    -0.356426290284E+02   -0.20290E-06   -0.34596E-07    64   0.468E-03
  71 F= -.35642629E+02 E0= -.35642629E+02  d E =-.577904E-04
damped:  g(F)=  0.000E+00 g(S)=  0.000E+00 dE (1.order)= 0.000E+00
 bond charge predicted
       N       E                     dE             d eps       ncg     rms          rms(c)
DAV:   1    -0.356426554042E+02   -0.26579E-04   -0.70040E-03    96   0.781E-01    0.203E-02
DAV:   2    -0.356426555474E+02   -0.14325E-06   -0.82788E-05    64   0.821E-02    0.131E-02
DAV:   3    -0.356426562127E+02   -0.66530E-06   -0.17111E-05    64   0.401E-02    0.459E-03
DAV:   4    -0.356426571111E+02   -0.89838E-06   -0.50931E-06    48   0.200E-02    0.237E-03
DAV:   5    -0.356426573151E+02   -0.20406E-06   -0.98504E-07    48   0.934E-03    0.934E-04
DAV:   6    -0.356426576177E+02   -0.30252E-06   -0.45325E-07    64   0.538E-03
  72 F= -.35642658E+02 E0= -.35642658E+02  d E =-.285893E-04
damped:  g(F)=  0.000E+00 g(S)=  0.000E+00 dE (1.order)= 0.000E+00
 bond charge predicted
       N       E                     dE             d eps       ncg     rms          rms(c)
DAV:   1    -0.356426939331E+02   -0.36618E-04   -0.95652E-03    96   0.907E-01    0.223E-02
DAV:   2    -0.356426960702E+02   -0.21370E-05   -0.10216E-04    64   0.905E-02    0.142E-02
DAV:   3    -0.356426984151E+02   -0.23449E-05   -0.17688E-05    64   0.398E-02    0.355E-03
DAV:   4    -0.356426992059E+02   -0.79078E-06   -0.43237E-06    48   0.179E-02    0.183E-03
DAV:   5    -0.356426995548E+02   -0.34886E-06   -0.10658E-06    48   0.872E-03    0.752E-04
DAV:   6    -0.356426999262E+02   -0.37145E-06   -0.46356E-07    64   0.522E-03
  73 F= -.35642700E+02 E0= -.35642700E+02  d E =-.423085E-04
damped:  g(F)=  0.000E+00 g(S)=  0.000E+00 dE (1.order)= 0.000E+00
 bond charge predicted
       N       E                     dE             d eps       ncg     rms          rms(c)
DAV:   1    -0.356427627377E+02   -0.63183E-04   -0.14045E-02    96   0.111E+00    0.278E-02
DAV:   2    -0.356427690460E+02   -0.63083E-05   -0.18981E-04   100   0.115E-01    0.182E-02
DAV:   3    -0.356427688499E+02    0.19606E-06   -0.70683E-06    92   0.287E-02    0.713E-03
DAV:   4    -0.356427704325E+02   -0.15826E-05   -0.41863E-06    72   0.180E-02    0.202E-03
DAV:   5    -0.356427708459E+02   -0.41343E-06   -0.90312E-07    60   0.867E-03    0.799E-04
DAV:   6    -0.356427711336E+02   -0.28770E-06   -0.19200E-07    48   0.339E-03
  74 F= -.35642771E+02 E0= -.35642771E+02  d E =-.712074E-04
damped:  g(F)=  0.000E+00 g(S)=  0.000E+00 dE (1.order)= 0.000E+00
 reached required accuracy - stopping structural energy minimisation
