unknown system                          
           1
    30.000000    0.000000    0.000000
     0.000000   30.000000    0.000000
     0.000000    0.000000   30.000000
   H    C    N 
   3   2   1
Direct configuration=     1
   0.47560421  0.46578960  0.51668951
   0.46594974  0.50454141  0.47293228
   0.47532445  0.52472743  0.52783085
   0.48485201  0.49880387  0.50378813
   0.56985638  0.50061584  0.48665630
   0.53125032  0.50039964  0.49557712
Direct configuration=     2
   0.47560433  0.46578836  0.51671274
   0.46593973  0.50452922  0.47293275
   0.47533649  0.52472482  0.52783856
   0.48484123  0.49879709  0.50379028
   0.56980614  0.50064122  0.48667761
   0.53131436  0.50038768  0.49552867
Direct configuration=     3
   0.47560535  0.46578683  0.51675695
   0.46592340  0.50450699  0.47293246
   0.47535948  0.52471915  0.52785385
   0.48482543  0.49878475  0.50379317
   0.56973482  0.50068845  0.48671286
   0.53140335  0.50036489  0.49544317
Direct configuration=     4
   0.47560574  0.46578701  0.51676080
   0.46592305  0.50450546  0.47293199
   0.47536155  0.52471835  0.52785542
   0.48482610  0.49878391  0.50379286
   0.56973964  0.50069218  0.48671352
   0.53139646  0.50036286  0.49543876
Direct configuration=     5
   0.47560656  0.46578732  0.51676878
   0.46592201  0.50450206  0.47293122
   0.47536584  0.52471678  0.52785856
   0.48482730  0.49878211  0.50379232
   0.56974880  0.50070011  0.48671501
   0.53138356  0.50035860  0.49542935
Direct configuration=     6
   0.47560788  0.46578767  0.51678133
   0.46591980  0.50449636  0.47293043
   0.47537257  0.52471446  0.52786325
   0.48482878  0.49877915  0.50379166
   0.56976122  0.50071290  0.48671767
   0.53136633  0.50035189  0.49541403
Direct configuration=     7
   0.47560976  0.46578798  0.51679888
   0.46591586  0.50448785  0.47292993
   0.47538194  0.52471143  0.52786946
   0.48483017  0.49877483  0.50379103
   0.56977532  0.50073127  0.48672189
   0.53134719  0.50034244  0.49539171
Direct configuration=     8
   0.47561221  0.46578817  0.51682167
   0.46590974  0.50447622  0.47293000
   0.47539415  0.52470770  0.52787709
   0.48483106  0.49876897  0.50379053
   0.56978914  0.50075564  0.48672814
   0.53132885  0.50033015  0.49536157
Direct configuration=     9
   0.47561523  0.46578818  0.51684984
   0.46590097  0.50446116  0.47293094
   0.47540940  0.52470332  0.52788599
   0.48483114  0.49876143  0.50379026
   0.56980103  0.50078642  0.48673675
   0.53131366  0.50031495  0.49532302
Direct configuration=    10
   0.47561928  0.46578788  0.51688756
   0.46588754  0.50444004  0.47293340
   0.47543011  0.52469777  0.52789713
   0.48483002  0.49875091  0.50379029
   0.56981095  0.50082852  0.48674925
   0.53130223  0.50029458  0.49526995
Direct configuration=    11
   0.47562466  0.46578707  0.51693762
   0.46586736  0.50441070  0.47293837
   0.47545814  0.52469081  0.52791081
   0.48482736  0.49873634  0.50379074
   0.56981835  0.50088563  0.48676658
   0.53129615  0.50026751  0.49519824
Direct configuration=    12
   0.47563188  0.46578543  0.51700381
   0.46583744  0.50437007  0.47294732
   0.47549616  0.52468214  0.52792727
   0.48482309  0.49871622  0.50379170
   0.56982460  0.50096292  0.48678956
   0.53129516  0.50023166  0.49510297
Direct configuration=    13
   0.47564164  0.46578250  0.51709112
   0.46579352  0.50431391  0.47296242
   0.47554790  0.52467143  0.52794662
   0.48481771  0.49868839  0.50379313
   0.56983410  0.50106749  0.48681852
   0.53129575  0.50018425  0.49497847
Direct configuration=    14
   0.47565497  0.46577759  0.51720605
   0.46572967  0.50423646  0.47298684
   0.47561849  0.52465820  0.52796874
   0.48481233  0.49865002  0.50379485
   0.56985447  0.50120887  0.48685347
   0.53129111  0.50012161  0.49481808
Direct configuration=    15
   0.47567334  0.46576970  0.51735718
   0.46563752  0.50412971  0.47302512
   0.47571499  0.52464186  0.52799302
   0.48480855  0.49859710  0.50379676
   0.56989393  0.50140003  0.48689467
   0.53127420  0.50003899  0.49461281
Direct configuration=    16
   0.47569882  0.46575741  0.51755630
   0.46550501  0.50398236  0.47308403
   0.47584755  0.52462167  0.52801825
   0.48480790  0.49852391  0.50379883
   0.56995589  0.50165883  0.48694384
   0.53124412  0.49993014  0.49434877
Direct configuration=    17
   0.47573446  0.46574041  0.51781269
   0.46532260  0.50378463  0.47317033
   0.47602672  0.52459577  0.52804159
   0.48481176  0.49842539  0.50379994
   0.57002499  0.50199838  0.48700474
   0.53121437  0.49979244  0.49401459
Direct configuration=    18
   0.47578522  0.46571890  0.51813495
   0.46508052  0.50352551  0.47329270
   0.47626558  0.52456142  0.52805777
   0.48482265  0.49829575  0.50379881
   0.57007273  0.50243084  0.48708116
   0.53120663  0.49962589  0.49360068
Direct configuration=    19
   0.47585990  0.46569420  0.51852840
   0.46477117  0.50319341  0.47346156
   0.47658016  0.52451433  0.52805727
   0.48484847  0.49812892  0.50379245
   0.57007919  0.50296577  0.48717162
   0.53121965  0.49943429  0.49311023
Direct configuration=    20
   0.47597491  0.46566938  0.51899073
   0.46439372  0.50277735  0.47368928
   0.47698990  0.52444808  0.52802368
   0.48490587  0.49792014  0.50377632
   0.57005233  0.50360726  0.48726308
   0.53119735  0.49922627  0.49257153
Direct configuration=    21
   0.47615483  0.46564688  0.51950827
   0.46395737  0.50226936  0.47398682
   0.47751089  0.52435739  0.52793538
   0.48500144  0.49766646  0.50375083
   0.56997757  0.50434642  0.48733784
   0.53110009  0.49902039  0.49202901
Direct configuration=    22
   0.47642690  0.46562136  0.52006135
   0.46347866  0.50166478  0.47435887
   0.47814362  0.52424546  0.52777661
   0.48510649  0.49736869  0.50373160
   0.56974449  0.50515249  0.48738258
   0.53102382  0.49885136  0.49151247
Direct configuration=    23
   0.47683006  0.46557498  0.52060289
   0.46301117  0.50098241  0.47479080
   0.47885221  0.52413459  0.52754197
   0.48519939  0.49704236  0.50373487
   0.56942418  0.50597068  0.48734137
   0.53085591  0.49874709  0.49112062
Direct configuration=    24
   0.47684357  0.46556859  0.52059847
   0.46301702  0.50097870  0.47479164
   0.47884981  0.52413978  0.52753872
   0.48519438  0.49704262  0.50374006
   0.56941926  0.50596438  0.48732885
   0.53085036  0.49875538  0.49113660
Direct configuration=    25
   0.47687245  0.46555416  0.52059690
   0.46302213  0.50096381  0.47479641
   0.47885037  0.52414978  0.52753203
   0.48518524  0.49703983  0.50375113
   0.56941049  0.50596170  0.48730321
   0.53083926  0.49877011  0.49116156
Direct configuration=    26
   0.47691932  0.46552995  0.52060771
   0.46301879  0.50092813  0.47480889
   0.47885963  0.52416361  0.52752198
   0.48517379  0.49703005  0.50376882
   0.56939764  0.50597422  0.48726295
   0.53082366  0.49879000  0.49118689
Direct configuration=    27
   0.47698379  0.46549598  0.52063325
   0.46300511  0.50087006  0.47482980
   0.47887775  0.52418097  0.52750914
   0.48516084  0.49701275  0.50379323
   0.56937874  0.50600433  0.48720889
   0.53080744  0.49881405  0.49120880
Direct configuration=    28
   0.47706582  0.46545213  0.52067712
   0.46297822  0.50078658  0.47486055
   0.47890601  0.52420118  0.52749398
   0.48514795  0.49698671  0.50382419
   0.56935278  0.50605599  0.48714140
   0.53079272  0.49884136  0.49122291
Direct configuration=    29
   0.47716560  0.46539848  0.52074343
   0.46293509  0.50067416  0.47490310
   0.47894576  0.52422338  0.52747695
   0.48513707  0.49695044  0.50386142
   0.56932044  0.50613411  0.48706049
   0.53077964  0.49887058  0.49122454
Direct configuration=    30
   0.47729784  0.46532783  0.52084854
   0.46286457  0.50051068  0.47496713
   0.47900521  0.52424909  0.52745619
   0.48512957  0.49689615  0.50390979
   0.56927916  0.50625851  0.48695469
   0.53076545  0.49890318  0.49120584
Direct configuration=    31
   0.47747230  0.46523685  0.52100887
   0.46275576  0.50027680  0.47506271
   0.47909118  0.52427721  0.52743085
   0.48512898  0.49681647  0.50397189
   0.56922887  0.50644957  0.48681712
   0.53074794  0.49893742  0.49115406
Direct configuration=    32
   0.47770202  0.46512294  0.52124470
   0.46259651  0.49994805  0.47520413
   0.47921096  0.52430522  0.52739937
   0.48513956  0.49670252  0.50405093
   0.56916579  0.50673171  0.48663914
   0.53072720  0.49897142  0.49105249
Direct configuration=    33
   0.47800109  0.46498866  0.52156578
   0.46238798  0.49950845  0.47540579
   0.47936044  0.52432827  0.52735931
   0.48516580  0.49654999  0.50414993
   0.56907381  0.50711328  0.48641019
   0.53070970  0.49900851  0.49089438
Direct configuration=    34
   0.47838752  0.46484309  0.52197513
   0.46214299  0.49894558  0.47568550
   0.47952636  0.52433669  0.52730608
   0.48521500  0.49635761  0.50427255
   0.56893559  0.50759444  0.48611571
   0.53069298  0.49905366  0.49068070
Direct configuration=    35
   0.47888354  0.46470491  0.52246148
   0.46189496  0.49825771  0.47606129
   0.47967842  0.52431404  0.52723331
   0.48529959  0.49612999  0.50442376
   0.56875062  0.50816014  0.48573253
   0.53064176  0.49911313  0.49043174
Direct configuration=    36
   0.47950758  0.46459976  0.52298950
   0.46170418  0.49746947  0.47653596
   0.47976064  0.52424141  0.52713961
   0.48542651  0.49588348  0.50460959
   0.56849488  0.50875162  0.48523642
   0.53054403  0.49920948  0.49019174
Direct configuration=    37
   0.48024027  0.46453858  0.52349222
   0.46164158  0.49666442  0.47705397
   0.47969295  0.52412124  0.52704701
   0.48558137  0.49565526  0.50483338
   0.56815359  0.50924968  0.48462096
   0.53043051  0.49937682  0.49003074
Direct configuration=    38
   0.48024544  0.46454144  0.52348016
   0.46166263  0.49667729  0.47704523
   0.47966589  0.52411989  0.52705286
   0.48558314  0.49566373  0.50483672
   0.56816051  0.50922491  0.48460711
   0.53041912  0.49938520  0.49005179
Direct configuration=    39
   0.48025582  0.46454680  0.52345680
   0.46170391  0.49670231  0.47702791
   0.47961214  0.52411730  0.52706469
   0.48558577  0.49568030  0.50484374
   0.56817018  0.50917509  0.48457988
   0.53040202  0.49940317  0.49009230
Direct configuration=    40
   0.48027131  0.46455392  0.52342350
   0.46176396  0.49673832  0.47700212
   0.47953236  0.52411372  0.52708273
   0.48558767  0.49570441  0.50485496
   0.56817687  0.50909999  0.48453997
   0.53038781  0.49943250  0.49014982
Direct configuration=    41
   0.48029164  0.46456176  0.52338199
   0.46184087  0.49678397  0.47696789
   0.47942761  0.52410955  0.52710731
   0.48558750  0.49573549  0.50487066
   0.56817742  0.50900034  0.48448775
   0.53038253  0.49947430  0.49022209
Direct configuration=    42
   0.48031633  0.46456909  0.52333401
   0.46193265  0.49683793  0.47692497
   0.47929892  0.52410526  0.52713886
   0.48558488  0.49577311  0.50489078
   0.56817528  0.50887836  0.48442261
   0.53038491  0.49952818  0.49030832
Direct configuration=    43
   0.48034486  0.46457460  0.52328153
   0.46203706  0.49689869  0.47687308
   0.47914747  0.52410129  0.52717783
   0.48558040  0.49581680  0.50491491
   0.56817931  0.50873772  0.48434294
   0.53038747  0.49959258  0.49040892
Direct configuration=    44
   0.48038049  0.46457704  0.52322156
   0.46216357  0.49697077  0.47680559
   0.47895567  0.52409770  0.52722992
   0.48557399  0.49587098  0.50494589
   0.56819994  0.50856544  0.48423606
   0.53038364  0.49967476  0.49053626
Direct configuration=    45
   0.48042523  0.46457349  0.52315856
   0.46231126  0.49705043  0.47672052
   0.47871747  0.52409454  0.52729853
   0.48556428  0.49593534  0.50498602
   0.56823873  0.50835959  0.48409426
   0.53037953  0.49978109  0.49069155
Direct configuration=    46
   0.48048298  0.46456038  0.52310234
   0.46247509  0.49712724  0.47661917
   0.47842905  0.52409061  0.52738685
   0.48554838  0.49600698  0.50503884
   0.56827965  0.50812005  0.48391002
   0.53040252  0.49992339  0.49086887
Direct configuration=    47
   0.48056039  0.46453558  0.52306745
   0.46264685  0.49718281  0.47650872
   0.47809120  0.52408150  0.52749568
   0.48553031  0.49607974  0.50510704
   0.56832129  0.50785765  0.48367054
   0.53045695  0.50011077  0.49106339
Direct configuration=    48
   0.48066808  0.46450216  0.52307112
   0.46281698  0.49719113  0.47640717
   0.47771555  0.52405839  0.52761964
   0.48552337  0.49614440  0.50518941
   0.56839184  0.50759970  0.48335771
   0.53049731  0.50034113  0.49127538
Direct configuration=    49
   0.48081973  0.46446645  0.52313157
   0.46297355  0.49712016  0.47634241
   0.47732412  0.52400891  0.52774651
   0.48553097  0.49618831  0.50528840
   0.56843021  0.50737008  0.48297681
   0.53056813  0.50062199  0.49147644
Direct configuration=    50
   0.48103056  0.46443778  0.52325966
   0.46311274  0.49694445  0.47634167
   0.47693775  0.52392141  0.52786311
   0.48556505  0.49620393  0.50540243
   0.56842982  0.50719728  0.48252438
   0.53064046  0.50094456  0.49165737
Direct configuration=    51
   0.48132028  0.46442317  0.52346414
   0.46323334  0.49664058  0.47642787
   0.47657566  0.52378833  0.52795787
   0.48563745  0.49618444  0.50553270
   0.56839959  0.50711177  0.48199353
   0.53066412  0.50129399  0.49181412
Direct configuration=    52
   0.48171302  0.46442119  0.52375741
   0.46333011  0.49618456  0.47661535
   0.47625266  0.52361257  0.52802572
   0.48573630  0.49612072  0.50569140
   0.56823630  0.50712823  0.48140619
   0.53072960  0.50167078  0.49190215
Direct configuration=    53
   0.48223107  0.46442145  0.52413765
   0.46340945  0.49557638  0.47689468
   0.47597538  0.52341622  0.52807184
   0.48588972  0.49601527  0.50587500
   0.56814167  0.50728596  0.48070986
   0.53057324  0.50201866  0.49198547
Direct configuration=    54
   0.48287494  0.46439483  0.52461379
   0.46345698  0.49482524  0.47724179
   0.47573282  0.52323263  0.52811585
   0.48596988  0.49585511  0.50612217
   0.56751524  0.50750421  0.48009333
   0.53094641  0.50242122  0.49182986
Direct configuration=    55
   0.48289319  0.46438940  0.52461414
   0.46346501  0.49482116  0.47723919
   0.47573863  0.52324351  0.52811692
   0.48601871  0.49586121  0.50610928
   0.56785163  0.50755882  0.47998270
   0.53053133  0.50235507  0.49195734
Direct configuration=    56
   0.48289816  0.46438743  0.52461740
   0.46346408  0.49481673  0.47724053
   0.47573960  0.52324543  0.52811741
   0.48601469  0.49585932  0.50611205
   0.56782828  0.50756036  0.47998789
   0.53055543  0.50235677  0.49194645
Direct configuration=    57
   0.48290831  0.46438350  0.52462390
   0.46346237  0.49480782  0.47724318
   0.47574163  0.52324930  0.52811832
   0.48600778  0.49585568  0.50611725
   0.56778793  0.50756439  0.47999621
   0.53059570  0.50235902  0.49192719
Direct configuration=    58
   0.48292487  0.46437730  0.52463392
   0.46346015  0.49479383  0.47724725
   0.47574507  0.52325561  0.52811963
   0.48599993  0.49585043  0.50612456
   0.56774184  0.50757323  0.48000369
   0.53063734  0.50235934  0.49190381
Direct configuration=    59
   0.48292603  0.46437692  0.52463448
   0.46346012  0.49479297  0.47724749
   0.47574536  0.52325605  0.52811968
   0.48600015  0.49585021  0.50612482
   0.56774316  0.50757438  0.48000280
   0.53063473  0.50235859  0.49190402
Direct configuration=    60
   0.48292838  0.46437615  0.52463565
   0.46346005  0.49479121  0.47724798
   0.47574593  0.52325692  0.52811978
   0.48600057  0.49584974  0.50612536
   0.56774564  0.50757669  0.48000104
   0.53062969  0.50235711  0.49190436
Direct configuration=    61
   0.48293196  0.46437497  0.52463748
   0.46345991  0.49478849  0.47724875
   0.47574680  0.52325823  0.52811992
   0.48600113  0.49584902  0.50612621
   0.56774897  0.50758019  0.47999847
   0.53062258  0.50235496  0.49190469
Direct configuration=    62
   0.48293684  0.46437338  0.52464003
   0.46345967  0.49478471  0.47724985
   0.47574798  0.52325996  0.52812011
   0.48600178  0.49584798  0.50612742
   0.56775267  0.50758487  0.47999518
   0.53061392  0.50235222  0.49190480
Direct configuration=    63
   0.48294310  0.46437134  0.52464340
   0.46345929  0.49477975  0.47725133
   0.47574948  0.52326211  0.52812034
   0.48600241  0.49584658  0.50612905
   0.56775611  0.50759075  0.47999129
   0.53060443  0.50234901  0.49190440
Direct configuration=    64
   0.48295081  0.46436885  0.52464767
   0.46345873  0.49477351  0.47725325
   0.47575132  0.52326466  0.52812061
   0.48600292  0.49584478  0.50613118
   0.56775854  0.50759779  0.47998698
   0.53059497  0.50234547  0.49190320
Direct configuration=    65
   0.48296096  0.46436559  0.52465347
   0.46345786  0.49476511  0.47725592
   0.47575372  0.52326787  0.52812092
   0.48600322  0.49584229  0.50613412
   0.56775927  0.50760680  0.47998192
   0.53058556  0.50234139  0.49190065
Direct configuration=    66
   0.48297403  0.46436145  0.52466115
   0.46345660  0.49475406  0.47725954
   0.47575676  0.52327179  0.52812127
   0.48600316  0.49583894  0.50613811
   0.56775713  0.50761805  0.47997614
   0.53057725  0.50233691  0.49189617
Direct configuration=    67
   0.48299057  0.46435630  0.52467112
   0.46345484  0.49473977  0.47726438
   0.47576051  0.52327648  0.52812164
   0.48600258  0.49583453  0.50614337
   0.56775088  0.50763185  0.47996961
   0.53057110  0.50233216  0.49188917
Direct configuration=    68
   0.48301136  0.46434996  0.52468392
   0.46345249  0.49472149  0.47727078
   0.47576508  0.52328200  0.52812201
   0.48600138  0.49582881  0.50615019
   0.56773943  0.50764869  0.47996214
   0.53056786  0.50232723  0.49187906
Direct configuration=    69
   0.48303740  0.46434226  0.52470023
   0.46344946  0.49469825  0.47727922
   0.47577054  0.52328843  0.52812231
   0.48599958  0.49582149  0.50615896
   0.56772220  0.50766931  0.47995314
   0.53056743  0.50232209  0.49186544
Direct configuration=    70
   0.48306993  0.46433303  0.52472074
   0.46344572  0.49466893  0.47729026
   0.47577715  0.52329588  0.52812243
   0.48599740  0.49581220  0.50616995
   0.56769974  0.50769482  0.47994168
   0.53056800  0.50231638  0.49184830
Direct configuration=    71
   0.48311022  0.46432222  0.52474610
   0.46344132  0.49463242  0.47730460
   0.47578519  0.52330440  0.52812217
   0.48599547  0.49580063  0.50618332
   0.56767474  0.50772660  0.47992614
   0.53056512  0.50230933  0.49182856
Direct configuration=    72
   0.48315898  0.46431003  0.52477647
   0.46343652  0.49458818  0.47732279
   0.47579488  0.52331385  0.52812127
   0.48599450  0.49578661  0.50619908
   0.56765113  0.50776573  0.47990477
   0.53055318  0.50230010  0.49180778
Direct configuration=    73
   0.48321682  0.46429683  0.52481189
   0.46343158  0.49453572  0.47734549
   0.47580638  0.52332394  0.52811936
   0.48599508  0.49576990  0.50621723
   0.56763064  0.50781292  0.47987659
   0.53052903  0.50228827  0.49178685
Direct configuration=    74
   0.48321682  0.46429683  0.52481189
   0.46343158  0.49453572  0.47734549
   0.47580638  0.52332394  0.52811936
   0.48599508  0.49576990  0.50621723
   0.56763064  0.50781292  0.47987659
   0.53052903  0.50228827  0.49178685
