   6   6   0   0
  0.4500000E+04  0.3000000E-08  0.3000000E-08  0.3000000E-08  0.0000000E+00
  1.000000000000000E-004
  CAR 
 unknown system                          
      2.02122239    -24.52385631  301     -7.09224232      1.00000000
    -24.524  0.0000E+00  0.0000E+00
    -24.435  0.0000E+00  0.0000E+00
    -24.347  0.0000E+00  0.0000E+00
    -24.258  0.0000E+00  0.0000E+00
    -24.170  0.0000E+00  0.0000E+00
    -24.081  0.0000E+00  0.0000E+00
    -23.993  0.0000E+00  0.0000E+00
    -23.904  0.0000E+00  0.0000E+00
    -23.816  0.0000E+00  0.0000E+00
    -23.728  0.0000E+00  0.0000E+00
    -23.639  0.1171E-15  0.1036E-16
    -23.551  0.1449E-13  0.1293E-14
    -23.462  0.1216E-11  0.1089E-12
    -23.374  0.6936E-10  0.6246E-11
    -23.285  0.2693E-08  0.2446E-09
    -23.197  0.7124E-07  0.6548E-08
    -23.108  0.1284E-05  0.1202E-06
    -23.020  0.1580E-04  0.1518E-05
    -22.931  0.1326E-03  0.1326E-04
    -22.843  0.7609E-03  0.8058E-04
    -22.754  0.2984E-02  0.3446E-03
    -22.666  0.8004E-02  0.1053E-02
    -22.577  0.1469E-01  0.2353E-02
    -22.489  0.1847E-01  0.3987E-02
    -22.400  0.1589E-01  0.5393E-02
    -22.312  0.9358E-02  0.6221E-02
    -22.223  0.3772E-02  0.6555E-02
    -22.135  0.1040E-02  0.6647E-02
    -22.046  0.1962E-03  0.6664E-02
    -21.958  0.2527E-04  0.6666E-02
    -21.869  0.2223E-05  0.6667E-02
    -21.781  0.1334E-06  0.6667E-02
    -21.692  0.5460E-08  0.6667E-02
    -21.604  0.1522E-09  0.6667E-02
    -21.515  0.2888E-11  0.6667E-02
    -21.427  0.3727E-13  0.6667E-02
    -21.338  0.3346E-15  0.6667E-02
    -21.250  0.0000E+00  0.6667E-02
    -21.161  0.0000E+00  0.6667E-02
    -21.073  0.0000E+00  0.6667E-02
    -20.985  0.0000E+00  0.6667E-02
    -20.896  0.0000E+00  0.6667E-02
    -20.808  0.0000E+00  0.6667E-02
    -20.719  0.0000E+00  0.6667E-02
    -20.631  0.0000E+00  0.6667E-02
    -20.542  0.8365E-17  0.6667E-02
    -20.454  0.1046E-14  0.6667E-02
    -20.365  0.1089E-12  0.6667E-02
    -20.277  0.7696E-11  0.6667E-02
    -20.188  0.3700E-09  0.6667E-02
    -20.100  0.1211E-07  0.6667E-02
    -20.011  0.2702E-06  0.6667E-02
    -19.923  0.4109E-05  0.6667E-02
    -19.834  0.4265E-04  0.6671E-02
    -19.746  0.3023E-03  0.6698E-02
    -19.657  0.1464E-02  0.6827E-02
    -19.569  0.4849E-02  0.7256E-02
    -19.480  0.1099E-01  0.8229E-02
    -19.392  0.1704E-01  0.9737E-02
    -19.303  0.1810E-01  0.1134E-01
    -19.215  0.1316E-01  0.1250E-01
    -19.126  0.6548E-02  0.1308E-01
    -19.038  0.2230E-02  0.1328E-01
    -18.949  0.5193E-03  0.1333E-01
    -18.861  0.8268E-04  0.1333E-01
    -18.772  0.8991E-05  0.1333E-01
    -18.684  0.6673E-06  0.1333E-01
    -18.595  0.3378E-07  0.1333E-01
    -18.507  0.1166E-08  0.1333E-01
    -18.418  0.2738E-10  0.1333E-01
    -18.330  0.4378E-12  0.1333E-01
    -18.242  0.4768E-14  0.1333E-01
    -18.153  0.3346E-16  0.1333E-01
    -18.065  0.0000E+00  0.1333E-01
    -17.976  0.0000E+00  0.1333E-01
    -17.888  0.0000E+00  0.1333E-01
    -17.799  0.0000E+00  0.1333E-01
    -17.711  0.0000E+00  0.1333E-01
    -17.622  0.0000E+00  0.1333E-01
    -17.534  0.0000E+00  0.1333E-01
    -17.445  0.0000E+00  0.1333E-01
    -17.357  0.0000E+00  0.1333E-01
    -17.268  0.0000E+00  0.1333E-01
    -17.180  0.0000E+00  0.1333E-01
    -17.091  0.0000E+00  0.1333E-01
    -17.003  0.0000E+00  0.1333E-01
    -16.914  0.0000E+00  0.1333E-01
    -16.826  0.0000E+00  0.1333E-01
    -16.737  0.0000E+00  0.1333E-01
    -16.649  0.0000E+00  0.1333E-01
    -16.560  0.0000E+00  0.1333E-01
    -16.472  0.0000E+00  0.1333E-01
    -16.383  0.0000E+00  0.1333E-01
    -16.295  0.0000E+00  0.1333E-01
    -16.206  0.0000E+00  0.1333E-01
    -16.118  0.0000E+00  0.1333E-01
    -16.029  0.0000E+00  0.1333E-01
    -15.941  0.0000E+00  0.1333E-01
    -15.852  0.0000E+00  0.1333E-01
    -15.764  0.0000E+00  0.1333E-01
    -15.675  0.0000E+00  0.1333E-01
    -15.587  0.0000E+00  0.1333E-01
    -15.499  0.0000E+00  0.1333E-01
    -15.410  0.0000E+00  0.1333E-01
    -15.322  0.0000E+00  0.1333E-01
    -15.233  0.0000E+00  0.1333E-01
    -15.145  0.0000E+00  0.1333E-01
    -15.056  0.0000E+00  0.1333E-01
    -14.968  0.0000E+00  0.1333E-01
    -14.879  0.0000E+00  0.1333E-01
    -14.791  0.0000E+00  0.1333E-01
    -14.702  0.0000E+00  0.1333E-01
    -14.614  0.0000E+00  0.1333E-01
    -14.525  0.0000E+00  0.1333E-01
    -14.437  0.0000E+00  0.1333E-01
    -14.348  0.0000E+00  0.1333E-01
    -14.260  0.0000E+00  0.1333E-01
    -14.171  0.0000E+00  0.1333E-01
    -14.083  0.0000E+00  0.1333E-01
    -13.994  0.8365E-17  0.1333E-01
    -13.906  0.1142E-14  0.1333E-01
    -13.817  0.1178E-12  0.1333E-01
    -13.729  0.8267E-11  0.1333E-01
    -13.640  0.3948E-09  0.1333E-01
    -13.552  0.1284E-07  0.1333E-01
    -13.463  0.2844E-06  0.1333E-01
    -13.375  0.4296E-05  0.1333E-01
    -13.286  0.4429E-04  0.1334E-01
    -13.198  0.3118E-03  0.1337E-01
    -13.109  0.1500E-02  0.1350E-01
    -13.021  0.4936E-02  0.1393E-01
    -12.933  0.1111E-01  0.1492E-01
    -12.844  0.1712E-01  0.1643E-01
    -12.756  0.1806E-01  0.1803E-01
    -12.667  0.1304E-01  0.1918E-01
    -12.579  0.6446E-02  0.1975E-01
    -12.490  0.2180E-02  0.1995E-01
    -12.402  0.5045E-03  0.1999E-01
    -12.313  0.7977E-04  0.2000E-01
    -12.225  0.8624E-05  0.2000E-01
    -12.136  0.8106E-06  0.2000E-01
    -12.048  0.3112E-05  0.2000E-01
    -11.959  0.3692E-04  0.2000E-01
    -11.871  0.3021E-03  0.2003E-01
    -11.782  0.1689E-02  0.2018E-01
    -11.694  0.6455E-02  0.2075E-01
    -11.605  0.1688E-01  0.2224E-01
    -11.517  0.3020E-01  0.2492E-01
    -11.428  0.3700E-01  0.2819E-01
    -11.340  0.3103E-01  0.3094E-01
    -11.251  0.1781E-01  0.3251E-01
    -11.163  0.7000E-02  0.3313E-01
    -11.074  0.1881E-02  0.3330E-01
    -10.986  0.3458E-03  0.3333E-01
    -10.897  0.4342E-04  0.3333E-01
    -10.809  0.3722E-05  0.3333E-01
    -10.720  0.2177E-06  0.3333E-01
    -10.632  0.8680E-08  0.3333E-01
    -10.543  0.2358E-09  0.3333E-01
    -10.455  0.4359E-11  0.3333E-01
    -10.366  0.5482E-13  0.3333E-01
    -10.278  0.4684E-15  0.3333E-01
    -10.190  0.0000E+00  0.3333E-01
    -10.101  0.0000E+00  0.3333E-01
    -10.013  0.0000E+00  0.3333E-01
     -9.924  0.0000E+00  0.3333E-01
     -9.836  0.0000E+00  0.3333E-01
     -9.747  0.0000E+00  0.3333E-01
     -9.659  0.8365E-17  0.3333E-01
     -9.570  0.1054E-14  0.3333E-01
     -9.482  0.1096E-12  0.3333E-01
     -9.393  0.7739E-11  0.3333E-01
     -9.305  0.3719E-09  0.3333E-01
     -9.216  0.1217E-07  0.3333E-01
     -9.128  0.2713E-06  0.3333E-01
     -9.039  0.4124E-05  0.3333E-01
     -8.951  0.4277E-04  0.3334E-01
     -8.862  0.3030E-03  0.3336E-01
     -8.774  0.1467E-02  0.3349E-01
     -8.685  0.4857E-02  0.3392E-01
     -8.597  0.1101E-01  0.3490E-01
     -8.508  0.1716E-01  0.3642E-01
     -8.420  0.1886E-01  0.3809E-01
     -8.331  0.1666E-01  0.3956E-01
     -8.243  0.1760E-01  0.4112E-01
     -8.154  0.2605E-01  0.4342E-01
     -8.066  0.3565E-01  0.4658E-01
     -7.977  0.3554E-01  0.4972E-01
     -7.889  0.2451E-01  0.5189E-01
     -7.800  0.1159E-01  0.5292E-01
     -7.712  0.3751E-02  0.5325E-01
     -7.623  0.8301E-03  0.5332E-01
     -7.535  0.1256E-03  0.5333E-01
     -7.447  0.1298E-04  0.5333E-01
     -7.358  0.9151E-06  0.5333E-01
     -7.270  0.4401E-07  0.5333E-01
     -7.181  0.1442E-08  0.5333E-01
     -7.093  0.3218E-10  0.5333E-01
     -7.004  0.4887E-12  0.5333E-01
     -6.916  0.5052E-14  0.5333E-01
     -6.827  0.3346E-16  0.5333E-01
     -6.739  0.0000E+00  0.5333E-01
     -6.650  0.0000E+00  0.5333E-01
     -6.562  0.0000E+00  0.5333E-01
     -6.473  0.0000E+00  0.5333E-01
     -6.385  0.0000E+00  0.5333E-01
     -6.296  0.0000E+00  0.5333E-01
     -6.208  0.0000E+00  0.5333E-01
     -6.119  0.0000E+00  0.5333E-01
     -6.031  0.0000E+00  0.5333E-01
     -5.942  0.0000E+00  0.5333E-01
     -5.854  0.0000E+00  0.5333E-01
     -5.765  0.0000E+00  0.5333E-01
     -5.677  0.0000E+00  0.5333E-01
     -5.588  0.0000E+00  0.5333E-01
     -5.500  0.0000E+00  0.5333E-01
     -5.411  0.0000E+00  0.5333E-01
     -5.323  0.0000E+00  0.5333E-01
     -5.234  0.0000E+00  0.5333E-01
     -5.146  0.0000E+00  0.5333E-01
     -5.057  0.0000E+00  0.5333E-01
     -4.969  0.0000E+00  0.5333E-01
     -4.880  0.0000E+00  0.5333E-01
     -4.792  0.0000E+00  0.5333E-01
     -4.704  0.0000E+00  0.5333E-01
     -4.615  0.0000E+00  0.5333E-01
     -4.527  0.0000E+00  0.5333E-01
     -4.438  0.0000E+00  0.5333E-01
     -4.350  0.0000E+00  0.5333E-01
     -4.261  0.0000E+00  0.5333E-01
     -4.173  0.0000E+00  0.5333E-01
     -4.084  0.0000E+00  0.5333E-01
     -3.996  0.0000E+00  0.5333E-01
     -3.907  0.0000E+00  0.5333E-01
     -3.819  0.0000E+00  0.5333E-01
     -3.730  0.0000E+00  0.5333E-01
     -3.642  0.0000E+00  0.5333E-01
     -3.553  0.0000E+00  0.5333E-01
     -3.465  0.0000E+00  0.5333E-01
     -3.376  0.0000E+00  0.5333E-01
     -3.288  0.0000E+00  0.5333E-01
     -3.199  0.0000E+00  0.5333E-01
     -3.111  0.0000E+00  0.5333E-01
     -3.022  0.0000E+00  0.5333E-01
     -2.934  0.0000E+00  0.5333E-01
     -2.845  0.0000E+00  0.5333E-01
     -2.757  0.0000E+00  0.5333E-01
     -2.668  0.0000E+00  0.5333E-01
     -2.580  0.0000E+00  0.5333E-01
     -2.491  0.0000E+00  0.5333E-01
     -2.403  0.0000E+00  0.5333E-01
     -2.314  0.0000E+00  0.5333E-01
     -2.226  0.0000E+00  0.5333E-01
     -2.138  0.0000E+00  0.5333E-01
     -2.049  0.0000E+00  0.5333E-01
     -1.961  0.6692E-16  0.5333E-01
     -1.872  0.8750E-14  0.5333E-01
     -1.784  0.7651E-12  0.5333E-01
     -1.695  0.4552E-10  0.5333E-01
     -1.607  0.1843E-08  0.5333E-01
     -1.518  0.5083E-07  0.5333E-01
     -1.430  0.9554E-06  0.5333E-01
     -1.341  0.1225E-04  0.5333E-01
     -1.253  0.1072E-03  0.5334E-01
     -1.164  0.6410E-03  0.5340E-01
     -1.076  0.2621E-02  0.5363E-01
     -0.987  0.7342E-02  0.5428E-01
     -0.899  0.1418E-01  0.5554E-01
     -0.810  0.1939E-01  0.5725E-01
     -0.722  0.2092E-01  0.5910E-01
     -0.633  0.2322E-01  0.6116E-01
     -0.545  0.3059E-01  0.6386E-01
     -0.456  0.3745E-01  0.6718E-01
     -0.368  0.3451E-01  0.7023E-01
     -0.279  0.2302E-01  0.7227E-01
     -0.191  0.1346E-01  0.7346E-01
     -0.102  0.1228E-01  0.7455E-01
     -0.014  0.1650E-01  0.7601E-01
      0.075  0.1855E-01  0.7765E-01
      0.163  0.1470E-01  0.7895E-01
      0.252  0.8000E-02  0.7966E-01
      0.340  0.2981E-02  0.7992E-01
      0.429  0.7599E-03  0.7999E-01
      0.517  0.1324E-03  0.8000E-01
      0.605  0.1577E-04  0.8000E-01
      0.694  0.1282E-05  0.8000E-01
      0.782  0.7106E-07  0.8000E-01
      0.871  0.2686E-08  0.8000E-01
      0.959  0.6914E-10  0.8000E-01
      1.048  0.1211E-11  0.8000E-01
      1.136  0.1444E-13  0.8000E-01
      1.225  0.1171E-15  0.8000E-01
      1.313  0.0000E+00  0.8000E-01
      1.402  0.0000E+00  0.8000E-01
      1.490  0.0000E+00  0.8000E-01
      1.579  0.0000E+00  0.8000E-01
      1.667  0.0000E+00  0.8000E-01
      1.756  0.0000E+00  0.8000E-01
      1.844  0.0000E+00  0.8000E-01
      1.933  0.0000E+00  0.8000E-01
      2.021  0.0000E+00  0.8000E-01
