    6    6  300    1
  0.4500000E+04  0.3000000E-08  0.3000000E-08  0.3000000E-08  0.0000000E+00
  1.000000000000000E-004
  CAR 
 unknown system                          
     16      4     12
 
  0.2500000E+00  0.2500000E+00  0.2500000E+00  0.2500000E+00
    1      -22.523856   1.000000
    2      -19.377784   1.000000
    3      -12.831556   1.000000
    4      -11.469591   1.000000
    5      -11.469163   1.000000
    6       -8.494425   1.000000
    7       -8.064129   1.000000
    8       -8.063354   1.000000
    9       -0.835752   0.000000
   10       -0.470808   0.000000
   11       -0.470220   0.000000
   12        0.021222   0.000000
 
 -0.2500000E+00  0.2500000E+00  0.2500000E+00  0.2500000E+00
    1      -22.523855   1.000000
    2      -19.377786   1.000000
    3      -12.831556   1.000000
    4      -11.469593   1.000000
    5      -11.469163   1.000000
    6       -8.494421   1.000000
    7       -8.064127   1.000000
    8       -8.063352   1.000000
    9       -0.835753   0.000000
   10       -0.470809   0.000000
   11       -0.470220   0.000000
   12        0.021164   0.000000
 
  0.2500000E+00 -0.2500000E+00  0.2500000E+00  0.2500000E+00
    1      -22.523856   1.000000
    2      -19.377785   1.000000
    3      -12.831555   1.000000
    4      -11.469593   1.000000
    5      -11.469162   1.000000
    6       -8.494425   1.000000
    7       -8.064129   1.000000
    8       -8.063345   1.000000
    9       -0.835752   0.000000
   10       -0.470814   0.000000
   11       -0.470219   0.000000
   12        0.021134   0.000000
 
 -0.2500000E+00 -0.2500000E+00  0.2500000E+00  0.2500000E+00
    1      -22.523855   1.000000
    2      -19.377786   1.000000
    3      -12.831556   1.000000
    4      -11.469591   1.000000
    5      -11.469160   1.000000
    6       -8.494422   1.000000
    7       -8.064135   1.000000
    8       -8.063343   1.000000
    9       -0.835753   0.000000
   10       -0.470802   0.000000
   11       -0.470223   0.000000
   12        0.021077   0.000000
