 vasp.5.4.1 24Jun15 (build Jan 13 2020 12:58:22) complex                        
  
 executed on           IFC91_ompi date 2020.02.03  09:53:44
 running on   15 total cores
 each image running on    1 cores
 distrk:  each k-point on    1 cores,    1 groups
 distr:  one band on NCORES_PER_BAND=   1 cores,    1 groups


--------------------------------------------------------------------------------------------------------


 INCAR:
 POTCAR:    PAW_PBE H 15Jun2001                   
 POTCAR:    PAW_PBE C 08Apr2002                   
 POTCAR:    PAW_PBE N 08Apr2002                   
 POTCAR:    PAW_PBE H 15Jun2001                   
   VRHFIN =H: ultrasoft test                                                    
   LEXCH  = PE                                                                  
   EATOM  =    12.4884 eV,    0.9179 Ry                                         
                                                                                
   TITEL  = PAW_PBE H 15Jun2001                                                 
   LULTRA =        F    use ultrasoft PP ?                                      
   IUNSCR =        0    unscreen: 0-lin 1-nonlin 2-no                           
   RPACOR =    0.000    partial core radius                                     
   POMASS =    1.000; ZVAL   =    1.000    mass and valenz                      
   RCORE  =    1.100    outmost cutoff radius                                   
   RWIGS  =    0.700; RWIGS  =    0.370    wigner-seitz radius (au A)           
   ENMAX  =  250.000; ENMIN  =  200.000 eV                                      
   RCLOC  =    0.701    cutoff for local pot                                    
   LCOR   =        T    correct aug charges                                     
   LPAW   =        T    paw PP                                                  
   EAUG   =  400.000                                                            
   RMAX   =    1.123    core radius for proj-oper                               
   RAUG   =    1.200    factor for augmentation sphere                          
   RDEP   =    1.112    radius for radial grids                                 
   RDEPT  =    0.926    core radius for aug-charge                              
                                                                                
   Atomic configuration                                                         
    2 entries                                                                   
     n  l   j            E        occ.                                          
     1  0  0.50        -6.4927   1.0000                                         
     2  1  0.50        -3.4015   0.0000                                         
   Description                                                                  
     l       E           TYP  RCUT    TYP  RCUT                                 
     0     -6.4927494     23  1.100                                             
     0      6.8029130     23  1.100                                             
     1     -4.0817478     23  1.100                                             
  local pseudopotential read in
  atomic valenz-charges read in
  non local Contribution for L=           0  read in
    real space projection operators read in
  non local Contribution for L=           0  read in
    real space projection operators read in
  non local Contribution for L=           1  read in
    real space projection operators read in
    PAW grid and wavefunctions read in
 
   number of l-projection  operators is LMAX  =           3
   number of lm-projection operators is LMMAX =           5
 
 POTCAR:    PAW_PBE C 08Apr2002                   
   VRHFIN =C: s2p2                                                              
   LEXCH  = PE                                                                  
   EATOM  =   147.1560 eV,   10.8157 Ry                                         
                                                                                
   TITEL  = PAW_PBE C 08Apr2002                                                 
   LULTRA =        F    use ultrasoft PP ?                                      
   IUNSCR =        1    unscreen: 0-lin 1-nonlin 2-no                           
   RPACOR =    1.200    partial core radius                                     
   POMASS =   12.011; ZVAL   =    4.000    mass and valenz                      
   RCORE  =    1.500    outmost cutoff radius                                   
   RWIGS  =    1.630; RWIGS  =    0.863    wigner-seitz radius (au A)           
   ENMAX  =  400.000; ENMIN  =  300.000 eV                                      
   ICORE  =        2    local potential                                         
   LCOR   =        T    correct aug charges                                     
   LPAW   =        T    paw PP                                                  
   EAUG   =  644.873                                                            
   DEXC   =    0.000                                                            
   RMAX   =    1.529    core radius for proj-oper                               
   RAUG   =    1.300    factor for augmentation sphere                          
   RDEP   =    1.501    radius for radial grids                                 
   RDEPT  =    1.300    core radius for aug-charge                              
                                                                                
   Atomic configuration                                                         
    4 entries                                                                   
     n  l   j            E        occ.                                          
     1  0  0.50      -273.3789   2.0000                                         
     2  0  0.50       -13.7508   2.0000                                         
     2  1  0.50        -5.2854   2.0000                                         
     3  2  1.50        -5.4423   0.0000                                         
   Description                                                                  
     l       E           TYP  RCUT    TYP  RCUT                                 
     0    -13.7508458     23  1.200                                             
     0     -8.2022199     23  1.200                                             
     1     -5.2854383     23  1.500                                             
     1     34.0145650     23  1.500                                             
     2     -5.4423304      7  1.500                                             
  local pseudopotential read in
  partial core-charges read in
  partial kinetic energy density read in
  atomic valenz-charges read in
  non local Contribution for L=           0  read in
    real space projection operators read in
  non local Contribution for L=           0  read in
    real space projection operators read in
  non local Contribution for L=           1  read in
    real space projection operators read in
  non local Contribution for L=           1  read in
    real space projection operators read in
    PAW grid and wavefunctions read in
 
   number of l-projection  operators is LMAX  =           4
   number of lm-projection operators is LMMAX =           8
 
 POTCAR:    PAW_PBE N 08Apr2002                   
   VRHFIN =N: s2p3                                                              
   LEXCH  = PE                                                                  
   EATOM  =   264.5486 eV,   19.4438 Ry                                         
                                                                                
   TITEL  = PAW_PBE N 08Apr2002                                                 
   LULTRA =        F    use ultrasoft PP ?                                      
   IUNSCR =        1    unscreen: 0-lin 1-nonlin 2-no                           
   RPACOR =    1.200    partial core radius                                     
   POMASS =   14.001; ZVAL   =    5.000    mass and valenz                      
   RCORE  =    1.500    outmost cutoff radius                                   
   RWIGS  =    1.400; RWIGS  =    0.741    wigner-seitz radius (au A)           
   ENMAX  =  400.000; ENMIN  =  300.000 eV                                      
   ICORE  =        2    local potential                                         
   LCOR   =        T    correct aug charges                                     
   LPAW   =        T    paw PP                                                  
   EAUG   =  627.112                                                            
   DEXC   =    0.000                                                            
   RMAX   =    1.529    core radius for proj-oper                               
   RAUG   =    1.300    factor for augmentation sphere                          
   RDEP   =    1.514    radius for radial grids                                 
   RDEPT  =    1.338    core radius for aug-charge                              
                                                                                
   Atomic configuration                                                         
    4 entries                                                                   
     n  l   j            E        occ.                                          
     1  0  0.50      -384.7179   2.0000                                         
     2  0  0.50       -18.5828   2.0000                                         
     2  1  0.50        -7.0898   3.0000                                         
     3  2  1.50        -6.8029   0.0000                                         
   Description                                                                  
     l       E           TYP  RCUT    TYP  RCUT                                 
     0    -18.5828119     23  1.200                                             
     0    -13.5018863     23  1.200                                             
     1     -7.0897853     23  1.500                                             
     1      9.5240782     23  1.500                                             
     2     -6.8029130      7  1.500                                             
  local pseudopotential read in
  partial core-charges read in
  partial kinetic energy density read in
  atomic valenz-charges read in
  non local Contribution for L=           0  read in
    real space projection operators read in
  non local Contribution for L=           0  read in
    real space projection operators read in
  non local Contribution for L=           1  read in
    real space projection operators read in
  non local Contribution for L=           1  read in
    real space projection operators read in
    PAW grid and wavefunctions read in
 
   number of l-projection  operators is LMAX  =           4
   number of lm-projection operators is LMMAX =           8
 

 ----------------------------------------------------------------------------- 
|                                                                             |
|  ADVICE TO THIS USER RUNNING 'VASP/VAMP'   (HEAR YOUR MASTER'S VOICE ...):  |
|                                                                             |
|      You have a (more or less) 'small supercell' and for smaller cells      |
|      it is recommended  to use the reciprocal-space projection scheme!      |
|      The real space optimization is not  efficient for small cells and it   |
|      is also less accurate ...                                              |
|      Therefore set LREAL=.FALSE. in the  INCAR file                         |
|                                                                             |
 ----------------------------------------------------------------------------- 

 Optimization of the real space projectors (new method)

 maximal supplied QI-value         = 34.20
 optimisation between [QCUT,QGAM] = [  9.92, 20.18] = [ 27.55,114.04] Ry 
 Optimized for a Real-space Cutoff    1.26 Angstroem

   l    n(q)    QCUT    max X(q) W(low)/X(q) W(high)/X(q)  e(spline) 
   0      8     9.919    19.460    0.50E-03    0.23E-03    0.29E-06
   0      8     9.919    12.209    0.48E-03    0.23E-03    0.28E-06
   1      7     9.919     4.655    0.17E-03    0.75E-03    0.30E-06
 Optimization of the real space projectors (new method)

 maximal supplied QI-value         = 25.13
 optimisation between [QCUT,QGAM] = [ 10.05, 20.36] = [ 28.30,116.06] Ry 
 Optimized for a Real-space Cutoff    1.30 Angstroem

   l    n(q)    QCUT    max X(q) W(low)/X(q) W(high)/X(q)  e(spline) 
   0      8    10.053   115.676    0.49E-03    0.72E-03    0.18E-06
   0      8    10.053    87.132    0.49E-03    0.71E-03    0.18E-06
   1      7    10.053     4.429    0.32E-03    0.31E-03    0.18E-06
   1      7    10.053     2.733    0.23E-03    0.19E-03    0.20E-06
 Optimization of the real space projectors (new method)

 maximal supplied QI-value         = 25.13
 optimisation between [QCUT,QGAM] = [ 10.05, 20.36] = [ 28.30,116.06] Ry 
 Optimized for a Real-space Cutoff    1.65 Angstroem

   l    n(q)    QCUT    max X(q) W(low)/X(q) W(high)/X(q)  e(spline) 
   0     10    10.053    79.467    0.76E-04    0.72E-04    0.56E-06
   0     10    10.053    66.151    0.76E-04    0.72E-04    0.55E-06
   1     10    10.053     8.350    0.25E-03    0.92E-03    0.41E-05
   1     10    10.053     5.531    0.27E-03    0.10E-02    0.45E-05
  PAW_PBE H 15Jun2001                   :
 energy of atom  1       EATOM=  -12.4884
 kinetic energy error for atom=    0.0098 (will be added to EATOM!!)
  PAW_PBE C 08Apr2002                   :
 energy of atom  2       EATOM= -147.1560
 kinetic energy error for atom=    0.0288 (will be added to EATOM!!)
  PAW_PBE N 08Apr2002                   :
 energy of atom  3       EATOM= -264.5486
 kinetic energy error for atom=    0.0736 (will be added to EATOM!!)
 
 
 POSCAR: H3 C2 N1                                
  positions in direct lattice
  velocities in cartesian coordinates
 exchange correlation table for  LEXCH =        8
   RHO(1)=    0.500       N(1)  =     2000
   RHO(2)=  100.500       N(2)  =     4000

 VTST: version 3.2, (02/03/18)

 CHAIN: initializing optimizer
 
 OPT: Using FIRE optimizer
 OPT: FIRE, Init
 OPT: FIRE, MAXMOVE       0.20000
 OPT: FIRE, TIMESTEP      0.10000
 OPT: FIRE, FTIMEMAX      1.00000
 OPT: FIRE, FTIMEINC      1.10000
 OPT: FIRE, FTIMEDEC      0.50000
 OPT: FIRE, FALPHADEC     0.99000
 OPT: FIRE, FALPHA        0.10000
 OPT: FIRE, FNMIN         5
 
 CHAIN: Read ICHAIN            0
 CHAIN: Running the NEB
 NEB:          SPRING     -5.000000
 NEB:          LCLIMB      T
 NEB:     LTANGENTOLD      F
 NEB:           LDNEB      F
 NEB:        LDNEBORG      F
 NEB:        LNEBCELL      F
 NEB:          EFIRST      0.000000
 NEB:           ELAST      0.000000
 
 POSCAR: H3 C2 N1                                
  positions in direct lattice
  No initial velocities read in
 
 POSCAR: H3 C2 N1                                
  positions in direct lattice
  No initial velocities read in
 


--------------------------------------------------------------------------------------------------------


 ion  position               nearest neighbor table
   1  0.470  0.467  0.494-   4 1.10
   2  0.473  0.521  0.471-   4 1.10
   3  0.470  0.514  0.530-   4 1.10
   4  0.484  0.500  0.499-   1 1.10   2 1.10   3 1.10   5 1.45
   5  0.532  0.499  0.502-   6 1.17   4 1.45
   6  0.571  0.498  0.504-   5 1.17
 
  LATTYP: Found a simple cubic cell.
 ALAT       =    30.0000000000
  
  Lattice vectors:
  
 A1 = (  30.0000000000,   0.0000000000,   0.0000000000)
 A2 = (   0.0000000000,  30.0000000000,   0.0000000000)
 A3 = (   0.0000000000,   0.0000000000,  30.0000000000)


Analysis of symmetry for initial positions (statically):
=====================================================================
 Subroutine PRICEL returns:
 Original cell was already a primitive cell.
 

 Routine SETGRP: Setting up the symmetry group for a 
 simple cubic supercell.


 Subroutine GETGRP returns: Found  1 space group operations
 (whereof  1 operations were pure point group operations)
 out of a pool of 48 trial point group operations.


The static configuration has the point symmetry C_1 .


Analysis of symmetry for dynamics (positions and initial velocities):
=====================================================================
 Subroutine PRICEL returns:
 Original cell was already a primitive cell.
 

 Routine SETGRP: Setting up the symmetry group for a 
 simple cubic supercell.


 Subroutine GETGRP returns: Found  1 space group operations
 (whereof  1 operations were pure point group operations)
 out of a pool of 48 trial point group operations.


The dynamic configuration has the point symmetry C_1 .
 
 
 KPOINTS: Mo2C                                    

Automatic generation of k-mesh.
Space group operators:
 irot       det(A)        alpha          n_x          n_y          n_z        tau_x        tau_y        tau_z
    1     1.000000     0.000000     1.000000     0.000000     0.000000     0.000000     0.000000     0.000000
 
 Subroutine IBZKPT returns following result:
 ===========================================
 
 Found      4 irreducible k-points:
 
 Following reciprocal coordinates:
            Coordinates               Weight
  0.250000  0.250000  0.250000      2.000000
 -0.250000  0.250000  0.250000      2.000000
  0.250000 -0.250000  0.250000      2.000000
 -0.250000 -0.250000  0.250000      2.000000
 
 Following cartesian coordinates:
            Coordinates               Weight
  0.008333  0.008333  0.008333      2.000000
 -0.008333  0.008333  0.008333      2.000000
  0.008333 -0.008333  0.008333      2.000000
 -0.008333 -0.008333  0.008333      2.000000
 


--------------------------------------------------------------------------------------------------------




 Dimension of arrays:
   k-points           NKPTS =      4   k-points in BZ     NKDIM =      4   number of bands    NBANDS=     12
   number of dos      NEDOS =    301   number of ions     NIONS =      6
   non local maximal  LDIM  =      4   non local SUM 2l+1 LMDIM =      8
   total plane-waves  NPLWV = ******
   max r-space proj   IRMAX =   2395   max aug-charges    IRDMAX=   1738
   dimension x,y,z NGX =   150 NGY =  150 NGZ =  150
   dimension x,y,z NGXF=   300 NGYF=  300 NGZF=  300
   support grid    NGXF=   300 NGYF=  300 NGZF=  300
   ions per type =               3   2   1
 NGX,Y,Z   is equivalent  to a cutoff of   8.31,  8.31,  8.31 a.u.
 NGXF,Y,Z  is equivalent  to a cutoff of  16.62, 16.62, 16.62 a.u.


 I would recommend the setting:
   dimension x,y,z NGX =   147 NGY =  147 NGZ =  147
 SYSTEM =  unknown system                          
 POSCAR =  H3 C2 N1                                

 Startparameter for this run:
   NWRITE =      2    write-flag & timer
   PREC   = normal    normal or accurate (medium, high low for compatibility)
   ISTART =      0    job   : 0-new  1-cont  2-samecut
   ICHARG =      2    charge: 1-file 2-atom 10-const
   ISPIN  =      1    spin polarized calculation?
   LNONCOLLINEAR =      F non collinear calculations
   LSORBIT =      F    spin-orbit coupling
   INIWAV =      1    electr: 0-lowe 1-rand  2-diag
   LASPH  =      F    aspherical Exc in radial PAW
   METAGGA=      F    non-selfconsistent MetaGGA calc.

 Electronic Relaxation 1
   ENCUT  =  400.0 eV  29.40 Ry    5.42 a.u.  48.92 48.92 48.92*2*pi/ulx,y,z
   ENINI  =  400.0     initial cutoff
   ENAUG  =  644.9 eV  augmentation charge cutoff
   NELM   =    500;   NELMIN=  6; NELMDL= -5     # of ELM steps 
   EDIFF  = 0.1E-03   stopping-criterion for ELM
   LREAL  =      T    real-space projection
   NLSPLINE    = F    spline interpolate recip. space projectors
   LCOMPAT=      F    compatible to vasp.4.4
   GGA_COMPAT  = T    GGA compatible to vasp.4.4-vasp.4.6
   LMAXPAW     = -100 max onsite density
   LMAXMIX     =    2 max onsite mixed and CHGCAR
   VOSKOWN=      0    Vosko Wilk Nusair interpolation
   ROPT   =   -0.00050  -0.00050  -0.00050
 Ionic relaxation
   EDIFFG = -.1E+00   stopping-criterion for IOM
   NSW    =    300    number of steps for IOM
   NBLOCK =      1;   KBLOCK =    300    inner block; outer block 
   IBRION =      3    ionic relax: 0-MD 1-quasi-New 2-CG
   NFREE  =      0    steps in history (QN), initial steepest desc. (CG)
   ISIF   =      2    stress and relaxation
   IWAVPR =     11    prediction:  0-non 1-charg 2-wave 3-comb
   ISYM   =      2    0-nonsym 1-usesym 2-fastsym
   LCORR  =      T    Harris-Foulkes like correction to forces

   POTIM  = 0.0000    time-step for ionic-motion
   TEIN   =    0.0    initial temperature
   TEBEG  =    0.0;   TEEND  =   0.0 temperature during run
   SMASS  =   2.00    Nose mass-parameter (am)
   estimated Nose-frequenzy (Omega)   =  0.12E+10 period in steps =  0.00 mass=   0.137E-25a.u.
   SCALEE = 1.0000    scale energy and forces
   NPACO  =    256;   APACO  = 16.0  distance and # of slots for P.C.
   PSTRESS=    0.0 pullay stress

  Mass of Ions in am
   POMASS =   1.00 12.01 14.00
  Ionic Valenz
   ZVAL   =   1.00  4.00  5.00
  Atomic Wigner-Seitz radii
   RWIGS  =  -1.00 -1.00 -1.00
  virtual crystal weights 
   VCA    =   1.00  1.00  1.00
   NELECT =      16.0000    total number of electrons
   NUPDOWN=      -1.0000    fix difference up-down

 DOS related values:
   EMIN   =  10.00;   EMAX   =-10.00  energy-range for DOS
   EFERMI =   0.00
   ISMEAR =     0;   SIGMA  =   0.20  broadening in eV -4-tet -1-fermi 0-gaus

 Electronic relaxation 2 (details)
   IALGO  =     38    algorithm
   LDIAG  =      T    sub-space diagonalisation (order eigenvalues)
   LSUBROT=      F    optimize rotation matrix (better conditioning)
   TURBO    =      0    0=normal 1=particle mesh
   IRESTART =      0    0=no restart 2=restart with 2 vectors
   NREBOOT  =      0    no. of reboots
   NMIN     =      0    reboot dimension
   EREF     =   0.00    reference energy to select bands
   IMIX   =      4    mixing-type and parameters
     AMIX     =   0.40;   BMIX     =  1.00
     AMIX_MAG =   1.60;   BMIX_MAG =  1.00
     AMIN     =   0.10
     WC   =   100.;   INIMIX=   1;  MIXPRE=   1;  MAXMIX= -45

 Intra band minimization:
   WEIMIN = 0.0010     energy-eigenvalue tresh-hold
   EBREAK =  0.21E-05  absolut break condition
   DEPER  =   0.30     relativ break condition  

   TIME   =   0.40     timestep for ELM

  volume/ion in A,a.u.               =    4500.00     30367.50
  Fermi-wavevector in a.u.,A,eV,Ry     =   0.137508  0.259852  0.257264  0.018908
  Thomas-Fermi vector in A             =   0.790710
 
 Write flags
   LWAVE  =      F    write WAVECAR
   LCHARG =      F    write CHGCAR
   LVTOT  =      F    write LOCPOT, total local potential
   LVHAR  =      F    write LOCPOT, Hartree potential only
   LELF   =      F    write electronic localiz. function (ELF)
   LORBIT =      0    0 simple, 1 ext, 2 COOP (PROOUT)


 Dipole corrections
   LMONO  =      F    monopole corrections only (constant potential shift)
   LDIPOL =      F    correct potential (dipole corrections)
   IDIPOL =      0    1-x, 2-y, 3-z, 4-all directions 
   EPSILON=  1.0000000 bulk dielectric constant

 Exchange correlation treatment:
   GGA     =    PE    GGA type
   LEXCH   =     8    internal setting for exchange type
   VOSKOWN=      0    Vosko Wilk Nusair interpolation
   LHFCALC =     F    Hartree Fock is set to
   LHFONE  =     F    Hartree Fock one center treatment
   AEXX    =    0.0000 exact exchange contribution

 Linear response parameters
   LEPSILON=     F    determine dielectric tensor
   LRPA    =     F    only Hartree local field effects (RPA)
   LNABLA  =     F    use nabla operator in PAW spheres
   LVEL    =     F    velocity operator in full k-point grid
   LINTERFAST=   F  fast interpolation
   KINTER  =     0    interpolate to denser k-point grid
   CSHIFT  =0.1000    complex shift for real part using Kramers Kronig
   OMEGAMAX=  -1.0    maximum frequency
   DEG_THRESHOLD= 0.2000000E-02 threshold for treating states as degnerate
   RTIME   =    0.100 relaxation time in fs

 Orbital magnetization related:
   ORBITALMAG=     F  switch on orbital magnetization
   LCHIMAG   =     F  perturbation theory with respect to B field
   DQ        =  0.001000  dq finite difference perturbation B field



--------------------------------------------------------------------------------------------------------


 quickmin algorithm: (dynamic with friction)
 charge density and potential will be updated during run
 non-spin polarized calculation
 Variant of blocked Davidson
 Davidson routine will perform the subspace rotation
 perform sub-space diagonalisation
    after iterative eigenvector-optimisation
 modified Broyden-mixing scheme, WC =      100.0
 initial mixing is a Kerker type mixing with AMIX =  0.4000 and BMIX =      1.0000
 Hartree-type preconditioning will be used
 using additional bands            4
 real space projection scheme for non local part
 use partial core corrections
 calculate Harris-corrections to forces 
   (improved forces if not selfconsistent)
 use gradient corrections 
 use of overlap-Matrix (Vanderbilt PP)
 Gauss-broadening in eV      SIGMA  =   0.20


--------------------------------------------------------------------------------------------------------


  energy-cutoff  :      400.00
  volume of cell :    27000.00
      direct lattice vectors                 reciprocal lattice vectors
    30.000000000  0.000000000  0.000000000     0.033333333  0.000000000  0.000000000
     0.000000000 30.000000000  0.000000000     0.000000000  0.033333333  0.000000000
     0.000000000  0.000000000 30.000000000     0.000000000  0.000000000  0.033333333

  length of vectors
    30.000000000 30.000000000 30.000000000     0.033333333  0.033333333  0.033333333


 
 k-points in units of 2pi/SCALE and weight: Mo2C                                    
   0.00833333  0.00833333  0.00833333       0.250
  -0.00833333  0.00833333  0.00833333       0.250
   0.00833333 -0.00833333  0.00833333       0.250
  -0.00833333 -0.00833333  0.00833333       0.250
 
 k-points in reciprocal lattice and weights: Mo2C                                    
   0.25000000  0.25000000  0.25000000       0.250
  -0.25000000  0.25000000  0.25000000       0.250
   0.25000000 -0.25000000  0.25000000       0.250
  -0.25000000 -0.25000000  0.25000000       0.250
 
 position of ions in fractional coordinates (direct lattice) 
   0.47040040  0.46659796  0.49448144
   0.47303530  0.52120342  0.47093351
   0.46976591  0.51437442  0.52997527
   0.48375560  0.50039962  0.49912614
   0.53212722  0.49919295  0.50169129
   0.57093270  0.49826246  0.50378711
 
 position of ions in cartesian coordinates  (Angst):
  14.11201205 13.99793880 14.83444323
  14.19105904 15.63610255 14.12800529
  14.09297743 15.43123267 15.89925800
  14.51266808 15.01198866 14.97378431
  15.96381668 14.97578852 15.05073856
  17.12798114 14.94787392 15.11361334
 


--------------------------------------------------------------------------------------------------------


 k-point  1 :   0.2500 0.2500 0.2500  plane waves:  490454
 k-point  2 :  -0.2500 0.2500 0.2500  plane waves:  490454
 k-point  3 :   0.2500-0.2500 0.2500  plane waves:  490454
 k-point  4 :  -0.2500-0.2500 0.2500  plane waves:  490454

 maximum and minimum number of plane-waves per node :    490454   490454

 maximum number of plane-waves:    490454
 maximum index in each direction: 
   IXMAX=   49   IYMAX=   49   IZMAX=   48
   IXMIN=  -49   IYMIN=  -49   IZMIN=  -49

 WARNING: aliasing errors must be expected set NGX to 198 to avoid them
 WARNING: aliasing errors must be expected set NGY to 198 to avoid them
 WARNING: aliasing errors must be expected set NGZ to 196 to avoid them
 aliasing errors are usually negligible using standard VASP settings
 and one can safely disregard these warnings

 serial   3D FFT for wavefunctions
 parallel 3D FFT for charge:
    minimum data exchange during FFTs selected (reduces bandwidth)


 total amount of memory used by VASP on root node  3203891. kBytes
========================================================================

   base      :      30000. kBytes
   nonlr-proj:        695. kBytes
   fftplans  :     924480. kBytes
   grid      :    1872000. kBytes
   one-center:         18. kBytes
   wavefun   :     376698. kBytes
 
     INWAV:  cpu time    0.0010: real time    0.0003
 Broyden mixing: mesh for mixing (old mesh)
   NGX = 97   NGY = 97   NGZ = 97
  (NGX  =300   NGY  =300   NGZ  =300)
  gives a total of 912673 points

 initial charge density was supplied:
 charge density of overlapping atoms calculated
 number of electron      16.0000000 magnetization 
 keeping initial charge density in first step


--------------------------------------------------------------------------------------------------------


 Maximum index for non-local projection operator         2287
 Maximum index for augmentation-charges         1501 (set IRDMAX)


--------------------------------------------------------------------------------------------------------


 First call to EWALD:  gamma=   0.059
 Maximum number of real-space cells 3x 3x 3
 Maximum number of reciprocal cells 3x 3x 3

 FEWALD executed in parallel
    FEWALD:  cpu time    0.0020: real time    0.0021


----------------------------------------- Iteration    1(   1)  ---------------------------------------


    POTLOK:  cpu time   19.3211: real time   19.3063
    SETDIJ:  cpu time    0.0090: real time    0.0081
     EDDAV:  cpu time   87.6827: real time   87.6099
       DOS:  cpu time    0.0000: real time    0.0003
    --------------------------------------------
      LOOP:  cpu time  107.0157: real time  106.9293

 eigenvalue-minimisations  :   160
 total energy-change (2. order) : 0.1161949E+03  (-0.2116002E+03)
 number of electron      16.0000000 magnetization 
 augmentation part       16.0000000 magnetization 

 Free energy of the ion-electron system (eV)
  ---------------------------------------------------
  alpha Z        PSCENC =         0.04144063
  Ewald energy   TEWEN  =       673.09429610
  -Hartree energ DENC   =     -1087.13733742
  -exchange      EXHF   =         0.00000000
  -V(xc)+E(xc)   XCENC  =        51.36478669
  PAW double counting   =       428.37890668     -430.73533574
  entropy T*S    EENTRO =        -0.17602923
  eigenvalues    EBANDS =      -114.80120687
  atomic energy  EATOM  =       596.16534815
  Solvation  Ediel_sol  =         0.00000000
  ---------------------------------------------------
  free energy    TOTEN  =       116.19486898 eV

  energy without entropy =      116.37089821  energy(sigma->0) =      116.28288359


--------------------------------------------------------------------------------------------------------




----------------------------------------- Iteration    1(   2)  ---------------------------------------


     EDDAV:  cpu time  112.0420: real time  111.9599
       DOS:  cpu time    0.0000: real time    0.0002
    --------------------------------------------
      LOOP:  cpu time  112.0430: real time  111.9631

 eigenvalue-minimisations  :   192
 total energy-change (2. order) :-0.1163228E+03  (-0.1134167E+03)
 number of electron      16.0000000 magnetization 
 augmentation part       16.0000000 magnetization 

 Free energy of the ion-electron system (eV)
  ---------------------------------------------------
  alpha Z        PSCENC =         0.04144063
  Ewald energy   TEWEN  =       673.09429610
  -Hartree energ DENC   =     -1087.13733742
  -exchange      EXHF   =         0.00000000
  -V(xc)+E(xc)   XCENC  =        51.36478669
  PAW double counting   =       428.37890668     -430.73533574
  entropy T*S    EENTRO =         0.00000000
  eigenvalues    EBANDS =      -231.30003399
  atomic energy  EATOM  =       596.16534815
  Solvation  Ediel_sol  =         0.00000000
  ---------------------------------------------------
  free energy    TOTEN  =        -0.12792891 eV

  energy without entropy =       -0.12792891  energy(sigma->0) =       -0.12792891


--------------------------------------------------------------------------------------------------------




----------------------------------------- Iteration    1(   3)  ---------------------------------------


     EDDAV:  cpu time   86.7138: real time   86.6428
       DOS:  cpu time    0.0000: real time    0.0002
    --------------------------------------------
      LOOP:  cpu time   86.7148: real time   86.6463

 eigenvalue-minimisations  :   128
 total energy-change (2. order) :-0.3708496E+02  (-0.3696656E+02)
 number of electron      16.0000000 magnetization 
 augmentation part       16.0000000 magnetization 

 Free energy of the ion-electron system (eV)
  ---------------------------------------------------
  alpha Z        PSCENC =         0.04144063
  Ewald energy   TEWEN  =       673.09429610
  -Hartree energ DENC   =     -1087.13733742
  -exchange      EXHF   =         0.00000000
  -V(xc)+E(xc)   XCENC  =        51.36478669
  PAW double counting   =       428.37890668     -430.73533574
  entropy T*S    EENTRO =         0.00000000
  eigenvalues    EBANDS =      -268.38499663
  atomic energy  EATOM  =       596.16534815
  Solvation  Ediel_sol  =         0.00000000
  ---------------------------------------------------
  free energy    TOTEN  =       -37.21289154 eV

  energy without entropy =      -37.21289154  energy(sigma->0) =      -37.21289154


--------------------------------------------------------------------------------------------------------




----------------------------------------- Iteration    1(   4)  ---------------------------------------


     EDDAV:  cpu time   87.8566: real time   87.7856
       DOS:  cpu time    0.0000: real time    0.0002
    --------------------------------------------
      LOOP:  cpu time   87.8586: real time   87.7892

 eigenvalue-minimisations  :   128
 total energy-change (2. order) :-0.3538913E+01  (-0.3523021E+01)
 number of electron      16.0000000 magnetization 
 augmentation part       16.0000000 magnetization 

 Free energy of the ion-electron system (eV)
  ---------------------------------------------------
  alpha Z        PSCENC =         0.04144063
  Ewald energy   TEWEN  =       673.09429610
  -Hartree energ DENC   =     -1087.13733742
  -exchange      EXHF   =         0.00000000
  -V(xc)+E(xc)   XCENC  =        51.36478669
  PAW double counting   =       428.37890668     -430.73533574
  entropy T*S    EENTRO =         0.00000000
  eigenvalues    EBANDS =      -271.92390997
  atomic energy  EATOM  =       596.16534815
  Solvation  Ediel_sol  =         0.00000000
  ---------------------------------------------------
  free energy    TOTEN  =       -40.75180488 eV

  energy without entropy =      -40.75180488  energy(sigma->0) =      -40.75180488


--------------------------------------------------------------------------------------------------------




----------------------------------------- Iteration    1(   5)  ---------------------------------------


     EDDAV:  cpu time   95.1275: real time   95.0509
       DOS:  cpu time    0.0000: real time    0.0002
    CHARGE:  cpu time    6.6650: real time    6.6598
    MIXING:  cpu time    0.6809: real time    0.6813
    --------------------------------------------
      LOOP:  cpu time  102.4764: real time  102.3956

 eigenvalue-minimisations  :   136
 total energy-change (2. order) :-0.8161323E-01  (-0.7920787E-01)
 number of electron      16.0000007 magnetization 
 augmentation part        0.5269126 magnetization 

 Broyden mixing:
  rms(total) = 0.10926E+01    rms(broyden)= 0.10918E+01
  rms(prec ) = 0.11358E+01
  weight for this iteration     100.00

 Free energy of the ion-electron system (eV)
  ---------------------------------------------------
  alpha Z        PSCENC =         0.04144063
  Ewald energy   TEWEN  =       673.09429610
  -Hartree energ DENC   =     -1087.13733742
  -exchange      EXHF   =         0.00000000
  -V(xc)+E(xc)   XCENC  =        51.36478669
  PAW double counting   =       428.37890668     -430.73533574
  entropy T*S    EENTRO =         0.00000000
  eigenvalues    EBANDS =      -272.00552320
  atomic energy  EATOM  =       596.16534815
  Solvation  Ediel_sol  =         0.00000000
  ---------------------------------------------------
  free energy    TOTEN  =       -40.83341812 eV

  energy without entropy =      -40.83341812  energy(sigma->0) =      -40.83341812


--------------------------------------------------------------------------------------------------------




----------------------------------------- Iteration    1(   6)  ---------------------------------------


    POTLOK:  cpu time   21.7077: real time   21.6906
    SETDIJ:  cpu time    0.0090: real time    0.0084
     EDDAV:  cpu time   81.9205: real time   81.8544
       DOS:  cpu time    0.0000: real time    0.0002
    CHARGE:  cpu time    6.5690: real time    6.5639
    MIXING:  cpu time    0.6949: real time    0.6939
    --------------------------------------------
      LOOP:  cpu time  110.9031: real time  110.8152

 eigenvalue-minimisations  :   112
 total energy-change (2. order) : 0.3287214E+01  (-0.6720702E+00)
 number of electron      16.0000009 magnetization 
 augmentation part        0.4535140 magnetization 

 Broyden mixing:
  rms(total) = 0.59430E+00    rms(broyden)= 0.59404E+00
  rms(prec ) = 0.61029E+00
  weight for this iteration     100.00

 eigenvalues of (default mixing * dielectric matrix)
  average eigenvalue GAMMA=   1.2584
  1.2584

 Free energy of the ion-electron system (eV)
  ---------------------------------------------------
  alpha Z        PSCENC =         0.04144063
  Ewald energy   TEWEN  =       673.09429610
  -Hartree energ DENC   =     -1119.11251801
  -exchange      EXHF   =         0.00000000
  -V(xc)+E(xc)   XCENC  =        53.15763287
  PAW double counting   =       731.70861325     -734.39299670
  entropy T*S    EENTRO =         0.00000000
  eigenvalues    EBANDS =      -238.20802070
  atomic energy  EATOM  =       596.16534815
  Solvation  Ediel_sol  =         0.00000000
  ---------------------------------------------------
  free energy    TOTEN  =       -37.54620441 eV

  energy without entropy =      -37.54620441  energy(sigma->0) =      -37.54620441


--------------------------------------------------------------------------------------------------------




----------------------------------------- Iteration    1(   7)  ---------------------------------------


    POTLOK:  cpu time   21.3248: real time   21.3089
    SETDIJ:  cpu time    0.0090: real time    0.0085
     EDDAV:  cpu time   85.5230: real time   85.4532
       DOS:  cpu time    0.0000: real time    0.0002
    CHARGE:  cpu time    7.0819: real time    7.0772
    MIXING:  cpu time    0.7709: real time    0.7699
    --------------------------------------------
      LOOP:  cpu time  114.7116: real time  114.6223

 eigenvalue-minimisations  :   120
 total energy-change (2. order) : 0.6606951E+00  (-0.1398355E+00)
 number of electron      16.0000008 magnetization 
 augmentation part        0.4558368 magnetization 

 Broyden mixing:
  rms(total) = 0.30121E+00    rms(broyden)= 0.30116E+00
  rms(prec ) = 0.30932E+00
  weight for this iteration     100.00

 eigenvalues of (default mixing * dielectric matrix)
  average eigenvalue GAMMA=   1.4467
  0.9058  1.9875

 Free energy of the ion-electron system (eV)
  ---------------------------------------------------
  alpha Z        PSCENC =         0.04144063
  Ewald energy   TEWEN  =       673.09429610
  -Hartree energ DENC   =     -1136.02608292
  -exchange      EXHF   =         0.00000000
  -V(xc)+E(xc)   XCENC  =        54.08316468
  PAW double counting   =      1037.39033227    -1040.18583765
  entropy T*S    EENTRO =         0.00000000
  eigenvalues    EBANDS =      -221.44817057
  atomic energy  EATOM  =       596.16534815
  Solvation  Ediel_sol  =         0.00000000
  ---------------------------------------------------
  free energy    TOTEN  =       -36.88550931 eV

  energy without entropy =      -36.88550931  energy(sigma->0) =      -36.88550931


--------------------------------------------------------------------------------------------------------




----------------------------------------- Iteration    1(   8)  ---------------------------------------


    POTLOK:  cpu time   21.0248: real time   21.0081
    SETDIJ:  cpu time    0.0090: real time    0.0087
     EDDAV:  cpu time   90.0693: real time   89.9958
       DOS:  cpu time    0.0000: real time    0.0002
    CHARGE:  cpu time    6.4050: real time    6.4004
    MIXING:  cpu time    0.7589: real time    0.7577
    --------------------------------------------
      LOOP:  cpu time  118.2690: real time  118.1749

 eigenvalue-minimisations  :   128
 total energy-change (2. order) : 0.1749026E+00  (-0.4221979E-01)
 number of electron      16.0000009 magnetization 
 augmentation part        0.4362883 magnetization 

 Broyden mixing:
  rms(total) = 0.10866E+00    rms(broyden)= 0.10862E+00
  rms(prec ) = 0.11317E+00
  weight for this iteration     100.00

 eigenvalues of (default mixing * dielectric matrix)
  average eigenvalue GAMMA=   1.4561
  2.1618  1.4545  0.7519

 Free energy of the ion-electron system (eV)
  ---------------------------------------------------
  alpha Z        PSCENC =         0.04144063
  Ewald energy   TEWEN  =       673.09429610
  -Hartree energ DENC   =     -1146.90607301
  -exchange      EXHF   =         0.00000000
  -V(xc)+E(xc)   XCENC  =        54.77936860
  PAW double counting   =      1295.12789383    -1297.97812595
  entropy T*S    EENTRO =         0.00000000
  eigenvalues    EBANDS =      -211.03475506
  atomic energy  EATOM  =       596.16534815
  Solvation  Ediel_sol  =         0.00000000
  ---------------------------------------------------
  free energy    TOTEN  =       -36.71060672 eV

  energy without entropy =      -36.71060672  energy(sigma->0) =      -36.71060672


--------------------------------------------------------------------------------------------------------




----------------------------------------- Iteration    1(   9)  ---------------------------------------


    POTLOK:  cpu time   21.0518: real time   21.0357
    SETDIJ:  cpu time    0.0090: real time    0.0083
     EDDAV:  cpu time   90.3853: real time   90.3114
       DOS:  cpu time    0.0000: real time    0.0002
    CHARGE:  cpu time    6.4660: real time    6.4609
    MIXING:  cpu time    0.8569: real time    0.8559
    --------------------------------------------
      LOOP:  cpu time  118.7709: real time  118.6767

 eigenvalue-minimisations  :   128
 total energy-change (2. order) : 0.2529959E-01  (-0.3400255E-02)
 number of electron      16.0000009 magnetization 
 augmentation part        0.4374810 magnetization 

 Broyden mixing:
  rms(total) = 0.33120E-01    rms(broyden)= 0.33108E-01
  rms(prec ) = 0.38870E-01
  weight for this iteration     100.00

 eigenvalues of (default mixing * dielectric matrix)
  average eigenvalue GAMMA=   1.4500
  2.2858  1.6752  0.8023  1.0366

 Free energy of the ion-electron system (eV)
  ---------------------------------------------------
  alpha Z        PSCENC =         0.04144063
  Ewald energy   TEWEN  =       673.09429610
  -Hartree energ DENC   =     -1148.67596661
  -exchange      EXHF   =         0.00000000
  -V(xc)+E(xc)   XCENC  =        54.88308635
  PAW double counting   =      1369.27039322    -1372.09187301
  entropy T*S    EENTRO =         0.00000000
  eigenvalues    EBANDS =      -209.37203195
  atomic energy  EATOM  =       596.16534815
  Solvation  Ediel_sol  =         0.00000000
  ---------------------------------------------------
  free energy    TOTEN  =       -36.68530712 eV

  energy without entropy =      -36.68530712  energy(sigma->0) =      -36.68530712


--------------------------------------------------------------------------------------------------------




----------------------------------------- Iteration    1(  10)  ---------------------------------------


    POTLOK:  cpu time   21.0428: real time   21.0264
    SETDIJ:  cpu time    0.0080: real time    0.0086
     EDDAV:  cpu time   91.2581: real time   91.1830
       DOS:  cpu time    0.0000: real time    0.0002
    CHARGE:  cpu time    6.5910: real time    6.5864
    MIXING:  cpu time    0.9529: real time    0.9518
    --------------------------------------------
      LOOP:  cpu time  119.8538: real time  119.7606

 eigenvalue-minimisations  :   128
 total energy-change (2. order) : 0.4405173E-02  (-0.4785432E-03)
 number of electron      16.0000008 magnetization 
 augmentation part        0.4384489 magnetization 

 Broyden mixing:
  rms(total) = 0.14561E-01    rms(broyden)= 0.14557E-01
  rms(prec ) = 0.21050E-01
  weight for this iteration     100.00

 eigenvalues of (default mixing * dielectric matrix)
  average eigenvalue GAMMA=   1.4608
  2.1771  2.1771  1.3340  0.8080  0.8080

 Free energy of the ion-electron system (eV)
  ---------------------------------------------------
  alpha Z        PSCENC =         0.04144063
  Ewald energy   TEWEN  =       673.09429610
  -Hartree energ DENC   =     -1149.90449556
  -exchange      EXHF   =         0.00000000
  -V(xc)+E(xc)   XCENC  =        54.92205666
  PAW double counting   =      1384.43361738    -1387.24319737
  entropy T*S    EENTRO =         0.00000000
  eigenvalues    EBANDS =      -208.18996795
  atomic energy  EATOM  =       596.16534815
  Solvation  Ediel_sol  =         0.00000000
  ---------------------------------------------------
  free energy    TOTEN  =       -36.68090195 eV

  energy without entropy =      -36.68090195  energy(sigma->0) =      -36.68090195


--------------------------------------------------------------------------------------------------------




----------------------------------------- Iteration    1(  11)  ---------------------------------------


    POTLOK:  cpu time   21.7897: real time   21.7720
    SETDIJ:  cpu time    0.0080: real time    0.0081
     EDDAV:  cpu time   89.8203: real time   89.7468
       DOS:  cpu time    0.0000: real time    0.0002
    CHARGE:  cpu time    6.8370: real time    6.8315
    MIXING:  cpu time    0.9019: real time    0.9011
    --------------------------------------------
      LOOP:  cpu time  119.3589: real time  119.2638

 eigenvalue-minimisations  :   128
 total energy-change (2. order) :-0.1214599E-02  (-0.1836258E-03)
 number of electron      16.0000008 magnetization 
 augmentation part        0.4380521 magnetization 

 Broyden mixing:
  rms(total) = 0.95075E-02    rms(broyden)= 0.95063E-02
  rms(prec ) = 0.14664E-01
  weight for this iteration     100.00

 eigenvalues of (default mixing * dielectric matrix)
  average eigenvalue GAMMA=   1.7332
  3.2518  2.4701  1.4929  1.4929  0.8459  0.8459

 Free energy of the ion-electron system (eV)
  ---------------------------------------------------
  alpha Z        PSCENC =         0.04144063
  Ewald energy   TEWEN  =       673.09429610
  -Hartree energ DENC   =     -1151.04209506
  -exchange      EXHF   =         0.00000000
  -V(xc)+E(xc)   XCENC  =        54.94817840
  PAW double counting   =      1381.39766796    -1384.20223466
  entropy T*S    EENTRO =         0.00000000
  eigenvalues    EBANDS =      -207.08471807
  atomic energy  EATOM  =       596.16534815
  Solvation  Ediel_sol  =         0.00000000
  ---------------------------------------------------
  free energy    TOTEN  =       -36.68211655 eV

  energy without entropy =      -36.68211655  energy(sigma->0) =      -36.68211655


--------------------------------------------------------------------------------------------------------




----------------------------------------- Iteration    1(  12)  ---------------------------------------


    POTLOK:  cpu time   21.8177: real time   21.7999
    SETDIJ:  cpu time    0.0080: real time    0.0082
     EDDAV:  cpu time   80.0078: real time   79.9432
       DOS:  cpu time    0.0000: real time    0.0002
    CHARGE:  cpu time    6.5320: real time    6.5272
    MIXING:  cpu time    0.9988: real time    0.9979
    --------------------------------------------
      LOOP:  cpu time  109.3664: real time  109.2812

 eigenvalue-minimisations  :   112
 total energy-change (2. order) :-0.6824188E-02  (-0.4986880E-03)
 number of electron      16.0000009 magnetization 
 augmentation part        0.4373806 magnetization 

 Broyden mixing:
  rms(total) = 0.49528E-02    rms(broyden)= 0.49454E-02
  rms(prec ) = 0.71816E-02
  weight for this iteration     100.00

 eigenvalues of (default mixing * dielectric matrix)
  average eigenvalue GAMMA=   1.7291
  3.7850  2.2592  1.8492  1.4172  0.8124  0.9086  1.0725

 Free energy of the ion-electron system (eV)
  ---------------------------------------------------
  alpha Z        PSCENC =         0.04144063
  Ewald energy   TEWEN  =       673.09429610
  -Hartree energ DENC   =     -1152.85657812
  -exchange      EXHF   =         0.00000000
  -V(xc)+E(xc)   XCENC  =        54.98572035
  PAW double counting   =      1374.64381855    -1377.44374895
  entropy T*S    EENTRO =         0.00000000
  eigenvalues    EBANDS =      -205.31923744
  atomic energy  EATOM  =       596.16534815
  Solvation  Ediel_sol  =         0.00000000
  ---------------------------------------------------
  free energy    TOTEN  =       -36.68894073 eV

  energy without entropy =      -36.68894073  energy(sigma->0) =      -36.68894073


--------------------------------------------------------------------------------------------------------




----------------------------------------- Iteration    1(  13)  ---------------------------------------


    POTLOK:  cpu time   21.2998: real time   21.2829
    SETDIJ:  cpu time    0.0080: real time    0.0082
     EDDAV:  cpu time  107.4187: real time  107.3312
       DOS:  cpu time    0.0000: real time    0.0002
    CHARGE:  cpu time    6.6930: real time    6.6879
    MIXING:  cpu time    1.0818: real time    1.0815
    --------------------------------------------
      LOOP:  cpu time  136.5042: real time  136.3961

 eigenvalue-minimisations  :   160
 total energy-change (2. order) :-0.4382380E-02  (-0.1202343E-03)
 number of electron      16.0000009 magnetization 
 augmentation part        0.4372208 magnetization 

 Broyden mixing:
  rms(total) = 0.35390E-02    rms(broyden)= 0.35363E-02
  rms(prec ) = 0.51828E-02
  weight for this iteration     100.00

 eigenvalues of (default mixing * dielectric matrix)
  average eigenvalue GAMMA=   1.7517
  4.3499  2.3743  1.5899  1.5899  1.5501  0.8714  0.8714  0.8164

 Free energy of the ion-electron system (eV)
  ---------------------------------------------------
  alpha Z        PSCENC =         0.04144063
  Ewald energy   TEWEN  =       673.09429610
  -Hartree energ DENC   =     -1153.25077392
  -exchange      EXHF   =         0.00000000
  -V(xc)+E(xc)   XCENC  =        54.98988032
  PAW double counting   =      1375.70515234    -1378.50589758
  entropy T*S    EENTRO =         0.00000000
  eigenvalues    EBANDS =      -204.93276915
  atomic energy  EATOM  =       596.16534815
  Solvation  Ediel_sol  =         0.00000000
  ---------------------------------------------------
  free energy    TOTEN  =       -36.69332311 eV

  energy without entropy =      -36.69332311  energy(sigma->0) =      -36.69332311


--------------------------------------------------------------------------------------------------------




----------------------------------------- Iteration    1(  14)  ---------------------------------------


    POTLOK:  cpu time   22.7045: real time   22.6866
    SETDIJ:  cpu time    0.0080: real time    0.0087
     EDDAV:  cpu time   88.6555: real time   88.5823
       DOS:  cpu time    0.0000: real time    0.0002
    CHARGE:  cpu time    7.0489: real time    7.0431
    MIXING:  cpu time    1.1818: real time    1.1815
    --------------------------------------------
      LOOP:  cpu time  119.6008: real time  119.5066

 eigenvalue-minimisations  :   128
 total energy-change (2. order) :-0.4242741E-02  (-0.5501609E-04)
 number of electron      16.0000009 magnetization 
 augmentation part        0.4373472 magnetization 

 Broyden mixing:
  rms(total) = 0.23777E-02    rms(broyden)= 0.23773E-02
  rms(prec ) = 0.33891E-02
  weight for this iteration     100.00

 eigenvalues of (default mixing * dielectric matrix)
  average eigenvalue GAMMA=   1.8823
  5.2311  2.8545  2.3318  1.5171  1.4347  0.8413  0.8413  0.9446  0.9446

 Free energy of the ion-electron system (eV)
  ---------------------------------------------------
  alpha Z        PSCENC =         0.04144063
  Ewald energy   TEWEN  =       673.09429610
  -Hartree energ DENC   =     -1153.40820323
  -exchange      EXHF   =         0.00000000
  -V(xc)+E(xc)   XCENC  =        54.98147691
  PAW double counting   =      1373.83919043    -1376.63963178
  entropy T*S    EENTRO =         0.00000000
  eigenvalues    EBANDS =      -204.77148307
  atomic energy  EATOM  =       596.16534815
  Solvation  Ediel_sol  =         0.00000000
  ---------------------------------------------------
  free energy    TOTEN  =       -36.69756585 eV

  energy without entropy =      -36.69756585  energy(sigma->0) =      -36.69756585


--------------------------------------------------------------------------------------------------------




----------------------------------------- Iteration    1(  15)  ---------------------------------------


    POTLOK:  cpu time   21.9927: real time   21.9753
    SETDIJ:  cpu time    0.0090: real time    0.0084
     EDDAV:  cpu time   89.0135: real time   88.9408
       DOS:  cpu time    0.0000: real time    0.0002
    CHARGE:  cpu time    7.1489: real time    7.1423
    MIXING:  cpu time    1.3858: real time    1.3857
    --------------------------------------------
      LOOP:  cpu time  119.5508: real time  119.4564

 eigenvalue-minimisations  :   128
 total energy-change (2. order) :-0.3016150E-02  (-0.2908920E-04)
 number of electron      16.0000009 magnetization 
 augmentation part        0.4372827 magnetization 

 Broyden mixing:
  rms(total) = 0.14679E-02    rms(broyden)= 0.14677E-02
  rms(prec ) = 0.20552E-02
  weight for this iteration     100.00

 eigenvalues of (default mixing * dielectric matrix)
  average eigenvalue GAMMA=   2.0012
  6.1941  3.1822  2.2926  1.6309  1.5466  1.5466  0.8425  0.8520  0.9623  0.9623

 Free energy of the ion-electron system (eV)
  ---------------------------------------------------
  alpha Z        PSCENC =         0.04144063
  Ewald energy   TEWEN  =       673.09429610
  -Hartree energ DENC   =     -1153.51518524
  -exchange      EXHF   =         0.00000000
  -V(xc)+E(xc)   XCENC  =        54.97726014
  PAW double counting   =      1373.74073031    -1376.54185124
  entropy T*S    EENTRO =         0.00000000
  eigenvalues    EBANDS =      -204.66262085
  atomic energy  EATOM  =       596.16534815
  Solvation  Ediel_sol  =         0.00000000
  ---------------------------------------------------
  free energy    TOTEN  =       -36.70058200 eV

  energy without entropy =      -36.70058200  energy(sigma->0) =      -36.70058200


--------------------------------------------------------------------------------------------------------




----------------------------------------- Iteration    1(  16)  ---------------------------------------


    POTLOK:  cpu time   21.7547: real time   21.7379
    SETDIJ:  cpu time    0.0090: real time    0.0082
     EDDAV:  cpu time   89.5274: real time   89.4553
       DOS:  cpu time    0.0000: real time    0.0002
    CHARGE:  cpu time    6.3680: real time    6.3632
    MIXING:  cpu time    1.3778: real time    1.3777
    --------------------------------------------
      LOOP:  cpu time  119.0409: real time  119.2848

 eigenvalue-minimisations  :   128
 total energy-change (2. order) :-0.2248664E-02  (-0.2612672E-04)
 number of electron      16.0000009 magnetization 
 augmentation part        0.4371629 magnetization 

 Broyden mixing:
  rms(total) = 0.10610E-02    rms(broyden)= 0.10598E-02
  rms(prec ) = 0.13072E-02
  weight for this iteration     100.00

 eigenvalues of (default mixing * dielectric matrix)
  average eigenvalue GAMMA=   2.1209
  7.2221  3.7036  2.4440  2.2558  1.4726  1.3118  1.3118  0.8309  0.8620  0.9574
  0.9574

 Free energy of the ion-electron system (eV)
  ---------------------------------------------------
  alpha Z        PSCENC =         0.04144063
  Ewald energy   TEWEN  =       673.09429610
  -Hartree energ DENC   =     -1153.57585226
  -exchange      EXHF   =         0.00000000
  -V(xc)+E(xc)   XCENC  =        54.97439818
  PAW double counting   =      1373.98328713    -1376.78431424
  entropy T*S    EENTRO =         0.00000000
  eigenvalues    EBANDS =      -204.60143436
  atomic energy  EATOM  =       596.16534815
  Solvation  Ediel_sol  =         0.00000000
  ---------------------------------------------------
  free energy    TOTEN  =       -36.70283067 eV

  energy without entropy =      -36.70283067  energy(sigma->0) =      -36.70283067


--------------------------------------------------------------------------------------------------------




----------------------------------------- Iteration    1(  17)  ---------------------------------------


    POTLOK:  cpu time   21.9887: real time   21.9718
    SETDIJ:  cpu time    0.0090: real time    0.0082
     EDDAV:  cpu time   68.0187: real time   67.9632
       DOS:  cpu time    0.0000: real time    0.0002
    CHARGE:  cpu time    6.4730: real time    6.4681
    MIXING:  cpu time    1.4338: real time    1.4327
    --------------------------------------------
      LOOP:  cpu time   97.9261: real time   98.1303

 eigenvalue-minimisations  :    88
 total energy-change (2. order) :-0.9027456E-03  (-0.4408705E-05)
 number of electron      16.0000009 magnetization 
 augmentation part        0.4372137 magnetization 

 Broyden mixing:
  rms(total) = 0.39867E-03    rms(broyden)= 0.39858E-03
  rms(prec ) = 0.56691E-03
  weight for this iteration     100.00

 eigenvalues of (default mixing * dielectric matrix)
  average eigenvalue GAMMA=   2.1670
  7.8026  4.0681  2.5694  2.0063  2.0063  1.3674  1.3674  0.8268  0.8767  0.9890
  1.0620  1.0620

 Free energy of the ion-electron system (eV)
  ---------------------------------------------------
  alpha Z        PSCENC =         0.04144063
  Ewald energy   TEWEN  =       673.09429610
  -Hartree energ DENC   =     -1153.57417555
  -exchange      EXHF   =         0.00000000
  -V(xc)+E(xc)   XCENC  =        54.97187319
  PAW double counting   =      1374.43418164    -1377.23488336
  entropy T*S    EENTRO =         0.00000000
  eigenvalues    EBANDS =      -204.60181422
  atomic energy  EATOM  =       596.16534815
  Solvation  Ediel_sol  =         0.00000000
  ---------------------------------------------------
  free energy    TOTEN  =       -36.70373341 eV

  energy without entropy =      -36.70373341  energy(sigma->0) =      -36.70373341


--------------------------------------------------------------------------------------------------------




----------------------------------------- Iteration    1(  18)  ---------------------------------------


    POTLOK:  cpu time   21.7957: real time   21.7788
    SETDIJ:  cpu time    0.0090: real time    0.0084
     EDDAV:  cpu time   68.0956: real time   68.0404
       DOS:  cpu time    0.0000: real time    0.0002
    CHARGE:  cpu time    6.2760: real time    6.2711
    MIXING:  cpu time    1.4178: real time    1.4173
    --------------------------------------------
      LOOP:  cpu time   97.5962: real time   97.5209

 eigenvalue-minimisations  :    88
 total energy-change (2. order) :-0.4638413E-03  (-0.2669134E-05)
 number of electron      16.0000009 magnetization 
 augmentation part        0.4372017 magnetization 

 Broyden mixing:
  rms(total) = 0.29289E-03    rms(broyden)= 0.29282E-03
  rms(prec ) = 0.37793E-03
  weight for this iteration     100.00

 eigenvalues of (default mixing * dielectric matrix)
  average eigenvalue GAMMA=   2.2652
  8.3069  4.7946  2.9255  2.5646  2.0645  1.5452  1.3144  1.3144  0.8256  0.8903
  0.9270  0.9870  0.9870

 Free energy of the ion-electron system (eV)
  ---------------------------------------------------
  alpha Z        PSCENC =         0.04144063
  Ewald energy   TEWEN  =       673.09429610
  -Hartree energ DENC   =     -1153.57707393
  -exchange      EXHF   =         0.00000000
  -V(xc)+E(xc)   XCENC  =        54.97140350
  PAW double counting   =      1374.38324876    -1377.18405378
  entropy T*S    EENTRO =         0.00000000
  eigenvalues    EBANDS =      -204.59880668
  atomic energy  EATOM  =       596.16534815
  Solvation  Ediel_sol  =         0.00000000
  ---------------------------------------------------
  free energy    TOTEN  =       -36.70419726 eV

  energy without entropy =      -36.70419726  energy(sigma->0) =      -36.70419726


--------------------------------------------------------------------------------------------------------




----------------------------------------- Iteration    1(  19)  ---------------------------------------


    POTLOK:  cpu time   22.1716: real time   22.1546
    SETDIJ:  cpu time    0.0080: real time    0.0081
     EDDAV:  cpu time   60.0569: real time   60.0065
       DOS:  cpu time    0.0000: real time    0.0002
    CHARGE:  cpu time    6.2520: real time    6.2469
    MIXING:  cpu time    1.4608: real time    1.4603
    --------------------------------------------
      LOOP:  cpu time   89.9513: real time   89.9147

 eigenvalue-minimisations  :    76
 total energy-change (2. order) :-0.2568645E-03  (-0.1225683E-05)
 number of electron      16.0000009 magnetization 
 augmentation part        0.4371946 magnetization 

 Broyden mixing:
  rms(total) = 0.15979E-03    rms(broyden)= 0.15964E-03
  rms(prec ) = 0.20003E-03
  weight for this iteration     100.00

 eigenvalues of (default mixing * dielectric matrix)
  average eigenvalue GAMMA=   2.2988
  8.5673  5.1530  3.2357  2.3312  2.3312  1.9541  1.4297  1.2769  1.2769  0.9948
  0.9948  0.8272  0.8783  0.9326

 Free energy of the ion-electron system (eV)
  ---------------------------------------------------
  alpha Z        PSCENC =         0.04144063
  Ewald energy   TEWEN  =       673.09429610
  -Hartree energ DENC   =     -1153.57217353
  -exchange      EXHF   =         0.00000000
  -V(xc)+E(xc)   XCENC  =        54.97084904
  PAW double counting   =      1374.15763766    -1376.95839733
  entropy T*S    EENTRO =         0.00000000
  eigenvalues    EBANDS =      -204.60345484
  atomic energy  EATOM  =       596.16534815
  Solvation  Ediel_sol  =         0.00000000
  ---------------------------------------------------
  free energy    TOTEN  =       -36.70445412 eV

  energy without entropy =      -36.70445412  energy(sigma->0) =      -36.70445412


--------------------------------------------------------------------------------------------------------




----------------------------------------- Iteration    1(  20)  ---------------------------------------


    POTLOK:  cpu time   20.4579: real time   20.4417
    SETDIJ:  cpu time    0.0080: real time    0.0081
     EDDAV:  cpu time   67.5727: real time   67.5178
       DOS:  cpu time    0.0000: real time    0.0002
    CHARGE:  cpu time    6.1301: real time    6.1254
    MIXING:  cpu time    1.8847: real time    1.8824
    --------------------------------------------
      LOOP:  cpu time   96.0564: real time   95.9796

 eigenvalue-minimisations  :    96
 total energy-change (2. order) :-0.1103084E-03  (-0.3387493E-06)
 number of electron      16.0000009 magnetization 
 augmentation part        0.4371959 magnetization 

 Broyden mixing:
  rms(total) = 0.16113E-03    rms(broyden)= 0.16111E-03
  rms(prec ) = 0.17778E-03
  weight for this iteration     100.00

 eigenvalues of (default mixing * dielectric matrix)
  average eigenvalue GAMMA=   2.3280
  8.7351  5.6996  3.4671  2.5743  2.5743  2.0548  1.5883  1.3134  1.3134  1.0101
  1.0101  0.8277  0.8705  0.9405  0.9405

 Free energy of the ion-electron system (eV)
  ---------------------------------------------------
  alpha Z        PSCENC =         0.04144063
  Ewald energy   TEWEN  =       673.09429610
  -Hartree energ DENC   =     -1153.57606001
  -exchange      EXHF   =         0.00000000
  -V(xc)+E(xc)   XCENC  =        54.97082432
  PAW double counting   =      1374.20375486    -1377.00451656
  entropy T*S    EENTRO =         0.00000000
  eigenvalues    EBANDS =      -204.59965192
  atomic energy  EATOM  =       596.16534815
  Solvation  Ediel_sol  =         0.00000000
  ---------------------------------------------------
  free energy    TOTEN  =       -36.70456443 eV

  energy without entropy =      -36.70456443  energy(sigma->0) =      -36.70456443


--------------------------------------------------------------------------------------------------------




----------------------------------------- Iteration    1(  21)  ---------------------------------------


    POTLOK:  cpu time   20.8038: real time   20.7860
    SETDIJ:  cpu time    0.0080: real time    0.0081
     EDDAV:  cpu time   53.3559: real time   53.3133
       DOS:  cpu time    0.0000: real time    0.0002
    --------------------------------------------
      LOOP:  cpu time   74.1687: real time   74.1111

 eigenvalue-minimisations  :    72
 total energy-change (2. order) :-0.4275419E-04  (-0.1274075E-06)
 number of electron      16.0000009 magnetization 
 augmentation part        0.4371959 magnetization 

 Free energy of the ion-electron system (eV)
  ---------------------------------------------------
  alpha Z        PSCENC =         0.04144063
  Ewald energy   TEWEN  =       673.09429610
  -Hartree energ DENC   =     -1153.57650205
  -exchange      EXHF   =         0.00000000
  -V(xc)+E(xc)   XCENC  =        54.97071055
  PAW double counting   =      1374.20044878    -1377.00124225
  entropy T*S    EENTRO =         0.00000000
  eigenvalues    EBANDS =      -204.59910709
  atomic energy  EATOM  =       596.16534815
  Solvation  Ediel_sol  =         0.00000000
  ---------------------------------------------------
  free energy    TOTEN  =       -36.70460718 eV

  energy without entropy =      -36.70460718  energy(sigma->0) =      -36.70460718


--------------------------------------------------------------------------------------------------------




 average (electrostatic) potential at core
  the test charge radii are     0.5201  0.6991  0.7089
  (the norm of the test charge is              1.0000)
       1 -43.1701       2 -43.1690       3 -43.1693       4 -60.0780       5 -60.0718
       6 -73.2256
 
 
 
 E-fermi :  -7.1128     XC(G=0):  -0.0876     alpha+bet : -0.0137


 k-point     1 :       0.2500    0.2500    0.2500
  band No.  band energies     occupation 
      1     -22.5283      2.00000
      2     -19.3766      2.00000
      3     -12.8300      2.00000
      4     -11.4692      2.00000
      5     -11.4687      2.00000
      6      -8.4936      2.00000
      7      -8.0670      2.00000
      8      -8.0662      2.00000
      9      -0.8361      0.00000
     10      -0.4673      0.00000
     11      -0.4667      0.00000
     12      -0.0092      0.00000

 k-point     2 :      -0.2500    0.2500    0.2500
  band No.  band energies     occupation 
      1     -22.5283      2.00000
      2     -19.3766      2.00000
      3     -12.8300      2.00000
      4     -11.4692      2.00000
      5     -11.4687      2.00000
      6      -8.4936      2.00000
      7      -8.0670      2.00000
      8      -8.0662      2.00000
      9      -0.8361      0.00000
     10      -0.4673      0.00000
     11      -0.4667      0.00000
     12      -0.0092      0.00000

 k-point     3 :       0.2500   -0.2500    0.2500
  band No.  band energies     occupation 
      1     -22.5283      2.00000
      2     -19.3766      2.00000
      3     -12.8300      2.00000
      4     -11.4692      2.00000
      5     -11.4687      2.00000
      6      -8.4936      2.00000
      7      -8.0670      2.00000
      8      -8.0662      2.00000
      9      -0.8361      0.00000
     10      -0.4673      0.00000
     11      -0.4667      0.00000
     12      -0.0078      0.00000

 k-point     4 :      -0.2500   -0.2500    0.2500
  band No.  band energies     occupation 
      1     -22.5283      2.00000
      2     -19.3767      2.00000
      3     -12.8300      2.00000
      4     -11.4692      2.00000
      5     -11.4687      2.00000
      6      -8.4936      2.00000
      7      -8.0670      2.00000
      8      -8.0662      2.00000
      9      -0.8361      0.00000
     10      -0.4673      0.00000
     11      -0.4667      0.00000
     12      -0.0094      0.00000


--------------------------------------------------------------------------------------------------------


 soft charge-density along one line, spin component           1
         0         1         2         3         4         5         6         7         8         9
 total charge-density along one line
 
 pseudopotential strength for first ion, spin component:           1
 -2.364  -4.078  -0.002   0.000  -0.001
 -4.078  -6.948  -0.005  -0.001  -0.002
 -0.002  -0.005  -0.330   0.001   0.002
  0.000  -0.001   0.001  -0.334   0.000
 -0.001  -0.002   0.002   0.000  -0.333
 total augmentation occupancy for first ion, spin component:           1
  3.480  -0.627   0.402   0.055   0.162
 -0.627   0.129  -0.074  -0.010  -0.030
  0.402  -0.074   0.048   0.005   0.016
  0.055  -0.010   0.005   0.010   0.002
  0.162  -0.030   0.016   0.002   0.014


------------------------ aborting loop because EDIFF is reached ----------------------------------------


    CHARGE:  cpu time    5.8021: real time    5.7977
    FORLOC:  cpu time    2.8106: real time    2.8085
    FORNL :  cpu time   19.1101: real time   19.0937
    STRESS:  cpu time   58.3211: real time   58.2726
    FORCOR:  cpu time   22.4036: real time   22.3848
    FORHAR:  cpu time    7.4929: real time    7.4871
    MIXING:  cpu time    1.6348: real time    1.6333
    OFIELD:  cpu time    0.0000: real time    0.0000

  FORCE on cell =-STRESS in cart. coord.  units (eV):
  Direction    XX          YY          ZZ          XY          YZ          ZX
  --------------------------------------------------------------------------------------
  Alpha Z     0.04144     0.04144     0.04144
  Ewald     598.33598    36.73335    38.02470   -13.63754    -0.73684    30.00589
  Hartree   586.28184   283.30062   283.99510    -7.37194    -0.39482    16.09251
  E(xc)     -58.96932   -60.32607   -60.32296    -0.03270    -0.00179     0.07308
  Local   -1327.16159  -492.88196  -494.80098    20.28538     1.09045   -44.45831
  n-local   -28.22925   -24.80502   -24.81355     0.08103     0.00541    -0.18704
  augment     0.40989     0.39355     0.39374    -0.00036    -0.00010     0.00087
  Kinetic   228.40855   256.60682   256.53616     0.67196     0.03853    -1.52567
  Fock        0.00000     0.00000     0.00000     0.00000     0.00000     0.00000
  -------------------------------------------------------------------------------------
  Total      -0.88246    -0.93727    -0.94636    -0.00418     0.00084     0.00131
  in kB      -0.05237    -0.05562    -0.05616    -0.00025     0.00005     0.00008
  external pressure =       -0.05 kB  Pullay stress =        0.00 kB


 VOLUME and BASIS-vectors are now :
 -----------------------------------------------------------------------------
  energy-cutoff  :      400.00
  volume of cell :    27000.00
      direct lattice vectors                 reciprocal lattice vectors
    30.000000000  0.000000000  0.000000000     0.033333333  0.000000000  0.000000000
     0.000000000 30.000000000  0.000000000     0.000000000  0.033333333  0.000000000
     0.000000000  0.000000000 30.000000000     0.000000000  0.000000000  0.033333333

  length of vectors
    30.000000000 30.000000000 30.000000000     0.033333333  0.033333333  0.033333333


 FORCES acting on ions
    electron-ion (+dipol)            ewald-force                    non-local-force                 convergence-correction
 -----------------------------------------------------------------------------------------------
   0.336E+02 0.547E+02 0.820E+01   -.357E+02 -.599E+02 -.891E+01   0.208E+01 0.515E+01 0.709E+00   0.694E-04 0.136E-04 0.652E-05
   0.293E+02 -.342E+02 0.465E+02   -.310E+02 0.373E+02 -.508E+02   0.167E+01 -.317E+01 0.430E+01   0.660E-04 -.141E-04 0.154E-04
   0.347E+02 -.230E+02 -.496E+02   -.369E+02 0.252E+02 0.543E+02   0.217E+01 -.213E+01 -.470E+01   0.671E-04 -.115E-04 -.998E-05
   0.966E+02 -.236E+01 0.517E+01   -.101E+03 0.247E+01 -.541E+01   0.449E+01 -.112E+00 0.239E+00   0.535E-03 -.495E-04 0.279E-04
   0.665E+02 -.145E+01 0.374E+01   -.686E+02 0.150E+01 -.386E+01   0.211E+01 -.449E-01 0.119E+00   -.845E-03 0.796E-05 -.399E-04
   -.233E+03 0.562E+01 -.125E+02   0.273E+03 -.659E+01 0.147E+02   -.405E+02 0.973E+00 -.219E+01   -.464E-03 0.539E-05 -.194E-04
 -----------------------------------------------------------------------------------------------
   0.280E+02 -.660E+00 0.152E+01   0.000E+00 0.355E-14 0.178E-14   -.280E+02 0.663E+00 -.152E+01   -.572E-03 -.482E-04 -.194E-04
 
 
 POSITION                                       TOTAL-FORCE (eV/Angst)
 -----------------------------------------------------------------------------------
     14.11201     13.99794     14.83444         0.001846     -0.002437     -0.001342
     14.19106     15.63610     14.12801        -0.000095     -0.000478     -0.001502
     14.09298     15.43123     15.89926        -0.001642     -0.001241      0.000024
     14.51267     15.01199     14.97378         0.007585     -0.000979      0.000274
     15.96382     14.97579     15.05074        -0.063800      0.002228     -0.001269
     17.12798     14.94787     15.11361         0.056106      0.002906      0.003815
 -----------------------------------------------------------------------------------
    total drift:                                0.001645      0.002966     -0.001968


--------------------------------------------------------------------------------------------------------



  FREE ENERGIE OF THE ION-ELECTRON SYSTEM (eV)
  ---------------------------------------------------
  free  energy   TOTEN  =       -36.70460718 eV

  energy  without entropy=      -36.70460718  energy(sigma->0) =      -36.70460718
 


--------------------------------------------------------------------------------------------------------


    POTLOK:  cpu time   18.3042: real time   18.2900


--------------------------------------------------------------------------------------------------------


 NEB: the previous image is higher in energy: T
 NEB: the next image is higher in energy    : F
 NEB: only prev energy greater

 NEB: Tangent
 ----------------------------------------------
     -0.31612      0.25793     -0.28230
      0.20458      0.41673      0.04200
      0.09919      0.08307      0.00982
     -0.00121      0.13257     -0.06092
      0.00648     -0.29432      0.05775
      0.00776     -0.59477      0.23374

 NEB: forces: par spring, perp REAL, dneb     0.008632    0.085527    0.000000
 NEB: distance to prev, next image, angle between     0.365079    0.366805   73.134119
 NEB: projections on to tangent (spring, REAL)     0.008632   -0.003080

 stress matrix after NEB project (eV)
     -0.88246     -0.00418      0.00131
     -0.00418     -0.93727      0.00084
      0.00131      0.00084     -0.94636
  FORCES: max atom, RMS     0.063738    0.035094
  FORCE total and by dimension    0.085961    0.063724
  Stress total and by dimension    1.597767    0.946362
 
 OPT: Flag T
 OPT: FIRE Step
 OPT: FIRE, TIMESTEP      0.10000
 OPT: FIRE, alpha         0.10000


--------------------------------------------------------------------------------------------------------


    WAVPRE:  cpu time    8.5807: real time    8.5741
 FEWALD executed in parallel
    FEWALD:  cpu time    0.0010: real time    0.0004
    ORTHCH:  cpu time    7.0119: real time    7.0058
     LOOP+:  cpu time 2409.2287: real time 2408.0005


----------------------------------------- Iteration    2(   1)  ---------------------------------------


    POTLOK:  cpu time   25.0082: real time   24.9885
    SETDIJ:  cpu time    0.0080: real time    0.0085
     EDDAV:  cpu time   84.0892: real time   84.0206
       DOS:  cpu time    0.0000: real time    0.0002
    CHARGE:  cpu time    7.2519: real time    7.2463
    MIXING:  cpu time    0.7149: real time    0.7138
    --------------------------------------------
      LOOP:  cpu time  117.0752: real time  116.9805

 eigenvalue-minimisations  :   124
 total energy-change (2. order) :-0.6099326E-04  (-0.3253037E-03)
 number of electron      16.0000008 magnetization 
 augmentation part        0.4366766 magnetization 

 Broyden mixing:
  rms(total) = 0.27390E-02    rms(broyden)= 0.27348E-02
  rms(prec ) = 0.27990E-02
  weight for this iteration     100.00

 Free energy of the ion-electron system (eV)
  ---------------------------------------------------
  alpha Z        PSCENC =         0.04144063
  Ewald energy   TEWEN  =       672.90132267
  -Hartree energ DENC   =     -1153.46531031
  -exchange      EXHF   =         0.00000000
  -V(xc)+E(xc)   XCENC  =        54.96725149
  PAW double counting   =      1374.18073578    -1376.98152727
  entropy T*S    EENTRO =         0.00000000
  eigenvalues    EBANDS =      -204.51388656
  atomic energy  EATOM  =       596.16534815
  Solvation  Ediel_sol  =         0.00000000
  ---------------------------------------------------
  free energy    TOTEN  =       -36.70462542 eV

  energy without entropy =      -36.70462542  energy(sigma->0) =      -36.70462542


--------------------------------------------------------------------------------------------------------




----------------------------------------- Iteration    2(   2)  ---------------------------------------


    POTLOK:  cpu time   22.3216: real time   22.3042
    SETDIJ:  cpu time    0.0080: real time    0.0083
     EDDAV:  cpu time   64.8291: real time   64.7755
       DOS:  cpu time    0.0000: real time    0.0002
    CHARGE:  cpu time    6.4070: real time    6.4009
    MIXING:  cpu time    0.7309: real time    0.7316
    --------------------------------------------
      LOOP:  cpu time   94.2977: real time   94.2244

 eigenvalue-minimisations  :    88
 total energy-change (2. order) : 0.4680094E-05  (-0.5278991E-05)
 number of electron      16.0000008 magnetization 
 augmentation part        0.4367550 magnetization 

 Broyden mixing:
  rms(total) = 0.13131E-02    rms(broyden)= 0.13118E-02
  rms(prec ) = 0.13407E-02
  weight for this iteration     100.00

 eigenvalues of (default mixing * dielectric matrix)
  average eigenvalue GAMMA=   1.2956
  1.2956

 Free energy of the ion-electron system (eV)
  ---------------------------------------------------
  alpha Z        PSCENC =         0.04144063
  Ewald energy   TEWEN  =       672.90132267
  -Hartree energ DENC   =     -1153.42862575
  -exchange      EXHF   =         0.00000000
  -V(xc)+E(xc)   XCENC  =        54.96493515
  PAW double counting   =      1373.60120694    -1376.40130523
  entropy T*S    EENTRO =         0.00000000
  eigenvalues    EBANDS =      -204.54894330
  atomic energy  EATOM  =       596.16534815
  Solvation  Ediel_sol  =         0.00000000
  ---------------------------------------------------
  free energy    TOTEN  =       -36.70462074 eV

  energy without entropy =      -36.70462074  energy(sigma->0) =      -36.70462074


--------------------------------------------------------------------------------------------------------




----------------------------------------- Iteration    2(   3)  ---------------------------------------


    POTLOK:  cpu time   23.2025: real time   23.1846
[...]
  ---------------------------------------------------
  free energy    TOTEN  =       -36.70468832 eV

  energy without entropy =      -36.70468832  energy(sigma->0) =      -36.70468832


--------------------------------------------------------------------------------------------------------




----------------------------------------- Iteration  135(   2)  ---------------------------------------


    POTLOK:  cpu time   26.5030: real time   26.4818
    SETDIJ:  cpu time    0.0090: real time    0.0085
     EDDAV:  cpu time   46.0280: real time   45.9908
       DOS:  cpu time    0.0000: real time    0.0002
    CHARGE:  cpu time    6.4810: real time    6.4756
    MIXING:  cpu time    0.7569: real time    0.7563
    --------------------------------------------
      LOOP:  cpu time   79.7799: real time   79.7169

 eigenvalue-minimisations  :    48
 total energy-change (2. order) :-0.1325915E-06  (-0.3056279E-06)
 number of electron      16.0000008 magnetization 
 augmentation part        0.4370119 magnetization 

 Broyden mixing:
  rms(total) = 0.20437E-03    rms(broyden)= 0.20409E-03
  rms(prec ) = 0.20813E-03
  weight for this iteration     100.00

 eigenvalues of (default mixing * dielectric matrix)
  average eigenvalue GAMMA=   1.5505
  1.5505

 Free energy of the ion-electron system (eV)
  ---------------------------------------------------
  alpha Z        PSCENC =         0.04144063
  Ewald energy   TEWEN  =       673.00299021
  -Hartree energ DENC   =     -1153.49421841
  -exchange      EXHF   =         0.00000000
  -V(xc)+E(xc)   XCENC  =        54.96742971
  PAW double counting   =      1373.48070440    -1376.28088180
  entropy T*S    EENTRO =         0.00000000
  eigenvalues    EBANDS =      -204.58750134
  atomic energy  EATOM  =       596.16534815
  Solvation  Ediel_sol  =         0.00000000
  ---------------------------------------------------
  free energy    TOTEN  =       -36.70468845 eV

  energy without entropy =      -36.70468845  energy(sigma->0) =      -36.70468845


--------------------------------------------------------------------------------------------------------




----------------------------------------- Iteration  135(   3)  ---------------------------------------


    POTLOK:  cpu time   25.7261: real time   25.7064
    SETDIJ:  cpu time    0.0090: real time    0.0086
     EDDAV:  cpu time   45.3421: real time   45.3048
       DOS:  cpu time    0.0000: real time    0.0002
    CHARGE:  cpu time    6.2171: real time    6.2114
    MIXING:  cpu time    0.7929: real time    0.7919
    --------------------------------------------
      LOOP:  cpu time   78.0881: real time   78.0268

 eigenvalue-minimisations  :    48
 total energy-change (2. order) :-0.2283673E-07  (-0.3730494E-07)
 number of electron      16.0000008 magnetization 
 augmentation part        0.4370118 magnetization 

 Broyden mixing:
  rms(total) = 0.66894E-04    rms(broyden)= 0.66819E-04
  rms(prec ) = 0.67829E-04
  weight for this iteration     100.00

 eigenvalues of (default mixing * dielectric matrix)
  average eigenvalue GAMMA=   1.5791
  1.0252  2.1329

 Free energy of the ion-electron system (eV)
  ---------------------------------------------------
  alpha Z        PSCENC =         0.04144063
  Ewald energy   TEWEN  =       673.00299021
  -Hartree energ DENC   =     -1153.49405674
  -exchange      EXHF   =         0.00000000
  -V(xc)+E(xc)   XCENC  =        54.96742038
  PAW double counting   =      1373.47684263    -1376.27701627
  entropy T*S    EENTRO =         0.00000000
  eigenvalues    EBANDS =      -204.58765745
  atomic energy  EATOM  =       596.16534815
  Solvation  Ediel_sol  =         0.00000000
  ---------------------------------------------------
  free energy    TOTEN  =       -36.70468847 eV

  energy without entropy =      -36.70468847  energy(sigma->0) =      -36.70468847


--------------------------------------------------------------------------------------------------------




----------------------------------------- Iteration  135(   4)  ---------------------------------------


    POTLOK:  cpu time   27.1969: real time   27.1748
    SETDIJ:  cpu time    0.0080: real time    0.0087
     EDDAV:  cpu time   45.7051: real time   45.6660
       DOS:  cpu time    0.0000: real time    0.0002
    CHARGE:  cpu time    6.3730: real time    6.3691
    MIXING:  cpu time    0.9129: real time    0.9119
    --------------------------------------------
      LOOP:  cpu time   80.1958: real time   80.1343

 eigenvalue-minimisations  :    48
 total energy-change (2. order) :-0.2252182E-07  (-0.1099042E-07)
 number of electron      16.0000008 magnetization 
 augmentation part        0.4370119 magnetization 

 Broyden mixing:
  rms(total) = 0.20921E-04    rms(broyden)= 0.20885E-04
  rms(prec ) = 0.21515E-04
  weight for this iteration     100.00

 eigenvalues of (default mixing * dielectric matrix)
  average eigenvalue GAMMA=   1.6248
  2.3405  1.2670  1.2670

 Free energy of the ion-electron system (eV)
  ---------------------------------------------------
  alpha Z        PSCENC =         0.04144063
  Ewald energy   TEWEN  =       673.00299021
  -Hartree energ DENC   =     -1153.49398892
  -exchange      EXHF   =         0.00000000
  -V(xc)+E(xc)   XCENC  =        54.96741635
  PAW double counting   =      1373.47451522    -1376.27468727
  entropy T*S    EENTRO =         0.00000000
  eigenvalues    EBANDS =      -204.58772286
  atomic energy  EATOM  =       596.16534815
  Solvation  Ediel_sol  =         0.00000000
  ---------------------------------------------------
  free energy    TOTEN  =       -36.70468849 eV

  energy without entropy =      -36.70468849  energy(sigma->0) =      -36.70468849


--------------------------------------------------------------------------------------------------------




----------------------------------------- Iteration  135(   5)  ---------------------------------------


    POTLOK:  cpu time   27.6848: real time   27.6618
    SETDIJ:  cpu time    0.0090: real time    0.0090
     EDDAV:  cpu time   45.8320: real time   45.7950
       DOS:  cpu time    0.0000: real time    0.0002
    CHARGE:  cpu time    6.3690: real time    6.3648
    MIXING:  cpu time    0.9549: real time    0.9542
    --------------------------------------------
      LOOP:  cpu time   80.8527: real time   80.7884

 eigenvalue-minimisations  :    48
 total energy-change (2. order) :-0.7292101E-08  (-0.3568084E-08)
 number of electron      16.0000008 magnetization 
 augmentation part        0.4370118 magnetization 

 Broyden mixing:
  rms(total) = 0.84167E-05    rms(broyden)= 0.84136E-05
  rms(prec ) = 0.90328E-05
  weight for this iteration     100.00

 eigenvalues of (default mixing * dielectric matrix)
  average eigenvalue GAMMA=   1.6181
  2.5065  1.7625  0.9298  1.2734

 Free energy of the ion-electron system (eV)
  ---------------------------------------------------
  alpha Z        PSCENC =         0.04144063
  Ewald energy   TEWEN  =       673.00299021
  -Hartree energ DENC   =     -1153.49400618
  -exchange      EXHF   =         0.00000000
  -V(xc)+E(xc)   XCENC  =        54.96741774
  PAW double counting   =      1373.47313774    -1376.27330984
  entropy T*S    EENTRO =         0.00000000
  eigenvalues    EBANDS =      -204.58770695
  atomic energy  EATOM  =       596.16534815
  Solvation  Ediel_sol  =         0.00000000
  ---------------------------------------------------
  free energy    TOTEN  =       -36.70468850 eV

  energy without entropy =      -36.70468850  energy(sigma->0) =      -36.70468850


--------------------------------------------------------------------------------------------------------




----------------------------------------- Iteration  135(   6)  ---------------------------------------


    POTLOK:  cpu time   26.0890: real time   26.0687
    SETDIJ:  cpu time    0.0080: real time    0.0087
     EDDAV:  cpu time   44.2323: real time   44.1961
       DOS:  cpu time    0.0000: real time    0.0002
    --------------------------------------------
      LOOP:  cpu time   70.3313: real time   70.2778

 eigenvalue-minimisations  :    48
 total energy-change (2. order) :-0.9082896E-08  (-0.2064916E-08)
 number of electron      16.0000008 magnetization 
 augmentation part        0.4370118 magnetization 

 Free energy of the ion-electron system (eV)
  ---------------------------------------------------
  alpha Z        PSCENC =         0.04144063
  Ewald energy   TEWEN  =       673.00299021
  -Hartree energ DENC   =     -1153.49400871
  -exchange      EXHF   =         0.00000000
  -V(xc)+E(xc)   XCENC  =        54.96741786
  PAW double counting   =      1373.47275296    -1376.27292500
  entropy T*S    EENTRO =         0.00000000
  eigenvalues    EBANDS =      -204.58770461
  atomic energy  EATOM  =       596.16534815
  Solvation  Ediel_sol  =         0.00000000
  ---------------------------------------------------
  free energy    TOTEN  =       -36.70468851 eV

  energy without entropy =      -36.70468851  energy(sigma->0) =      -36.70468851


--------------------------------------------------------------------------------------------------------




 average (electrostatic) potential at core
  the test charge radii are     0.5201  0.6991  0.7089
  (the norm of the test charge is              1.0000)
       1 -43.1701       2 -43.1701       3 -43.1690       4 -60.0787       5 -60.0728
       6 -73.2259
 
 
 
 E-fermi :  -7.0922     XC(G=0):  -0.0597     alpha+bet : -0.0137


 k-point     1 :       0.2500    0.2500    0.2500
  band No.  band energies     occupation 
      1     -22.5239      2.00000
      2     -19.3778      2.00000
      3     -12.8316      2.00000
      4     -11.4696      2.00000
      5     -11.4692      2.00000
      6      -8.4944      2.00000
      7      -8.0641      2.00000
      8      -8.0634      2.00000
      9      -0.8358      0.00000
     10      -0.4708      0.00000
     11      -0.4702      0.00000
     12       0.0212      0.00000

 k-point     2 :      -0.2500    0.2500    0.2500
  band No.  band energies     occupation 
      1     -22.5239      2.00000
      2     -19.3778      2.00000
      3     -12.8316      2.00000
      4     -11.4696      2.00000
      5     -11.4692      2.00000
      6      -8.4944      2.00000
      7      -8.0641      2.00000
      8      -8.0634      2.00000
      9      -0.8358      0.00000
     10      -0.4708      0.00000
     11      -0.4702      0.00000
     12       0.0212      0.00000

 k-point     3 :       0.2500   -0.2500    0.2500
  band No.  band energies     occupation 
      1     -22.5239      2.00000
      2     -19.3778      2.00000
      3     -12.8316      2.00000
      4     -11.4696      2.00000
      5     -11.4692      2.00000
      6      -8.4944      2.00000
      7      -8.0641      2.00000
      8      -8.0633      2.00000
      9      -0.8358      0.00000
     10      -0.4708      0.00000
     11      -0.4702      0.00000
     12       0.0211      0.00000

 k-point     4 :      -0.2500   -0.2500    0.2500
  band No.  band energies     occupation 
      1     -22.5239      2.00000
      2     -19.3778      2.00000
      3     -12.8316      2.00000
      4     -11.4696      2.00000
      5     -11.4692      2.00000
      6      -8.4944      2.00000
      7      -8.0641      2.00000
      8      -8.0633      2.00000
      9      -0.8358      0.00000
     10      -0.4708      0.00000
     11      -0.4702      0.00000
     12       0.0211      0.00000


--------------------------------------------------------------------------------------------------------


 soft charge-density along one line, spin component           1
         0         1         2         3         4         5         6         7         8         9
 total charge-density along one line
 
 pseudopotential strength for first ion, spin component:           1
 -2.364  -4.078  -0.002   0.000  -0.001
 -4.078  -6.948  -0.005  -0.001  -0.002
 -0.002  -0.005  -0.330   0.001   0.002
  0.000  -0.001   0.001  -0.334   0.000
 -0.001  -0.002   0.002   0.000  -0.333
 total augmentation occupancy for first ion, spin component:           1
  3.480  -0.627   0.403   0.049   0.162
 -0.627   0.129  -0.074  -0.009  -0.030
  0.403  -0.074   0.048   0.005   0.016
  0.049  -0.009   0.005   0.009   0.002
  0.162  -0.030   0.016   0.002   0.014


------------------------ aborting loop because EDIFF is reached ----------------------------------------


    CHARGE:  cpu time    5.8991: real time    5.8944
    FORLOC:  cpu time    2.8496: real time    2.8468
    FORNL :  cpu time   19.0301: real time   19.0152
    STRESS:  cpu time   58.8191: real time   58.7698
    FORCOR:  cpu time   24.9652: real time   24.9448
    FORHAR:  cpu time    8.1318: real time    8.1250
    MIXING:  cpu time    0.8049: real time    0.8043
    OFIELD:  cpu time    0.0000: real time    0.0000

  FORCE on cell =-STRESS in cart. coord.  units (eV):
  Direction    XX          YY          ZZ          XY          YZ          ZX
  --------------------------------------------------------------------------------------
  Alpha Z     0.04144     0.04144     0.04144
  Ewald     598.20583    36.71073    38.08618   -13.21196    -0.72719    30.58699
  Hartree   586.22865   283.26233   284.00303    -7.15319    -0.39078    16.41695
  E(xc)     -58.96588   -60.32261   -60.31930    -0.03162    -0.00176     0.07443
  Local   -1327.02175  -492.81523  -494.86052    19.66869     1.07785   -45.33830
  n-local   -28.22010   -24.79824   -24.80775     0.07772     0.00528    -0.18954
  augment     0.41075     0.39330     0.39364    -0.00045    -0.00014     0.00096
  Kinetic   228.38545   256.59020   256.51517     0.64835     0.03740    -1.55236
  Fock        0.00000     0.00000     0.00000     0.00000     0.00000     0.00000
  -------------------------------------------------------------------------------------
  Total      -0.93561    -0.93808    -0.94811    -0.00247     0.00065    -0.00087
  in kB      -0.05552    -0.05567    -0.05626    -0.00015     0.00004    -0.00005
  external pressure =       -0.06 kB  Pullay stress =        0.00 kB


 VOLUME and BASIS-vectors are now :
 -----------------------------------------------------------------------------
  energy-cutoff  :      400.00
  volume of cell :    27000.00
      direct lattice vectors                 reciprocal lattice vectors
    30.000000000  0.000000000  0.000000000     0.033333333  0.000000000  0.000000000
     0.000000000 30.000000000  0.000000000     0.000000000  0.033333333  0.000000000
     0.000000000  0.000000000 30.000000000     0.000000000  0.000000000  0.033333333

  length of vectors
    30.000000000 30.000000000 30.000000000     0.033333333  0.033333333  0.033333333


 FORCES acting on ions
    electron-ion (+dipol)            ewald-force                    non-local-force                 convergence-correction
 -----------------------------------------------------------------------------------------------
   0.336E+02 0.548E+02 0.736E+01   -.357E+02 -.600E+02 -.799E+01   0.208E+01 0.516E+01 0.630E+00   0.558E-05 -.840E-05 -.946E-05
   0.293E+02 -.334E+02 0.471E+02   -.310E+02 0.365E+02 -.514E+02   0.167E+01 -.310E+01 0.435E+01   0.967E-06 -.112E-04 -.968E-05
   0.347E+02 -.238E+02 -.492E+02   -.369E+02 0.260E+02 0.538E+02   0.217E+01 -.220E+01 -.466E+01   -.607E-05 -.988E-05 -.628E-05
   0.966E+02 -.230E+01 0.528E+01   -.101E+03 0.241E+01 -.552E+01   0.449E+01 -.110E+00 0.243E+00   0.398E-05 -.629E-04 -.548E-04
   0.663E+02 -.134E+01 0.375E+01   -.684E+02 0.139E+01 -.387E+01   0.212E+01 -.418E-01 0.120E+00   -.421E-07 -.870E-04 -.773E-04
   -.233E+03 0.542E+01 -.127E+02   0.273E+03 -.636E+01 0.150E+02   -.405E+02 0.935E+00 -.222E+01   -.766E-05 -.146E-03 -.127E-03
 -----------------------------------------------------------------------------------------------
   0.280E+02 -.632E+00 0.154E+01   -.568E-13 0.000E+00 0.711E-14   -.279E+02 0.636E+00 -.154E+01   -.325E-05 -.326E-03 -.284E-03
 
 
 POSITION                                       TOTAL-FORCE (eV/Angst)
 -----------------------------------------------------------------------------------
     14.11187     13.99560     14.84958         0.001616     -0.001638     -0.000685
     14.19200     15.62240     14.11742        -0.000179     -0.001318     -0.001077
     14.09223     15.44558     15.89165        -0.001451     -0.001042     -0.000615
     14.51271     15.01163     14.97328         0.000101     -0.000739     -0.000507
     15.96354     14.97629     15.05197        -0.000459      0.001554      0.000712
     17.12815     14.94940     15.11596         0.000373      0.003182      0.002172
 -----------------------------------------------------------------------------------
    total drift:                                0.002493      0.003008     -0.000444


--------------------------------------------------------------------------------------------------------



  FREE ENERGIE OF THE ION-ELECTRON SYSTEM (eV)
  ---------------------------------------------------
  free  energy   TOTEN  =       -36.70468851 eV

  energy  without entropy=      -36.70468851  energy(sigma->0) =      -36.70468851
 
 d Force = 0.1844005E-05[ 0.183E-05, 0.185E-05]  d Energy = 0.1843959E-05 0.459E-10
 d Force = 0.1198307E-02[ 0.120E-02, 0.119E-02]  d Ewald  = 0.1198307E-02 0.481E-10


--------------------------------------------------------------------------------------------------------


    POTLOK:  cpu time   22.1126: real time   22.0954


--------------------------------------------------------------------------------------------------------


 NEB: the previous image is higher in energy: F
 NEB: the next image is higher in energy    : F
 NEB: image is at an extrema
 NEB: diff energy (min, max):     0.000246    0.000331

 NEB: Tangent
 ----------------------------------------------
     -0.25100      0.19833      0.42435
      0.09079     -0.15114     -0.17208
      0.14413      0.54865     -0.17915
     -0.00324      0.11142      0.01429
      0.00582     -0.22082     -0.02659
      0.01302     -0.48687     -0.06058

 NEB: forces: par spring, perp REAL, dneb     0.003655    0.004389    0.000000
 NEB: distance to prev, next image, angle between     0.346951    0.347682   69.970470
 NEB: projections on to tangent (spring, REAL)     0.003655   -0.003454

 stress matrix after NEB project (eV)
     -0.93561     -0.00247     -0.00087
     -0.00247     -0.93808      0.00065
     -0.00087      0.00065     -0.94811
  FORCES: max atom, RMS     0.003452    0.002332
  FORCE total and by dimension    0.005711    0.002858
  Stress total and by dimension    1.629201    0.948111
 OPT: skip step - force has converged


--------------------------------------------------------------------------------------------------------


  
 reached required accuracy - stopping structural energy minimisation
     LOOP+:  cpu time  681.0115: real time  680.4862
    4ORBIT:  cpu time    0.0000: real time    0.0000

 total amount of memory used by VASP on root node  3203891. kBytes
========================================================================

   base      :      30000. kBytes
   nonlr-proj:        695. kBytes
   fftplans  :     924480. kBytes
   grid      :    1872000. kBytes
   one-center:         18. kBytes
   wavefun   :     376698. kBytes
 
  
  
 General timing and accounting informations for this job:
 ========================================================
  
                  Total CPU time used (sec):    97156.719
                            User time (sec):    95651.503
                          System time (sec):     1505.217
                         Elapsed time (sec):    97128.475
  
                   Maximum memory used (kb):     4765104.
                   Average memory used (kb):           0.
  
                          Minor page faults:    112244427
                          Major page faults:            8
                 Voluntary context switches:        15873
