 vasp.5.4.1 24Jun15 (build Jan 13 2020 12:58:22) complex                        
  
 POSCAR found type information on POSCAR  H  C  N 
 14/POSCAR found :  3 types and       6 ions
 scaLAPACK will be used

 ----------------------------------------------------------------------------- 
|                                                                             |
|  ADVICE TO THIS USER RUNNING 'VASP/VAMP'   (HEAR YOUR MASTER'S VOICE ...):  |
|                                                                             |
|      You have a (more or less) 'small supercell' and for smaller cells      |
|      it is recommended  to use the reciprocal-space projection scheme!      |
|      The real space optimization is not  efficient for small cells and it   |
|      is also less accurate ...                                              |
|      Therefore set LREAL=.FALSE. in the  INCAR file                         |
|                                                                             |
 ----------------------------------------------------------------------------- 

 LDA part: xc-table for Pade appr. of Perdew
 POSCAR found type information on POSCAR  H  C  N 
 00/POSCAR found :  3 types and       6 ions
 POSCAR found type information on POSCAR  H  C  N 
 16/POSCAR found :  3 types and       6 ions
 Jacobian:    40.4401846379183     
 POSCAR, INCAR and KPOINTS ok, starting setup
 WARNING: small aliasing (wrap around) errors must be expected
 FFT: planning ...
 WAVECAR not read
 entering main loop
       N       E                     dE             d eps       ncg     rms          rms(c)
DAV:   1     0.116194868976E+03    0.11619E+03   -0.21160E+03   160   0.366E+02
DAV:   2    -0.127928905687E+00   -0.11632E+03   -0.11342E+03   192   0.108E+02
DAV:   3    -0.372128915422E+02   -0.37085E+02   -0.36967E+02   128   0.937E+01
DAV:   4    -0.407518048838E+02   -0.35389E+01   -0.35230E+01   128   0.269E+01
DAV:   5    -0.408334181185E+02   -0.81613E-01   -0.79208E-01   136   0.446E+00    0.109E+01
DAV:   6    -0.375462044092E+02    0.32872E+01   -0.67207E+00   112   0.176E+01    0.594E+00
DAV:   7    -0.368855093103E+02    0.66070E+00   -0.13984E+00   120   0.836E+00    0.301E+00
DAV:   8    -0.367106067152E+02    0.17490E+00   -0.42220E-01   128   0.482E+00    0.109E+00
DAV:   9    -0.366853071205E+02    0.25300E-01   -0.34003E-02   128   0.152E+00    0.331E-01
DAV:  10    -0.366809019471E+02    0.44052E-02   -0.47854E-03   128   0.598E-01    0.146E-01
DAV:  11    -0.366821165460E+02   -0.12146E-02   -0.18363E-03   128   0.329E-01    0.951E-02
DAV:  12    -0.366889407341E+02   -0.68242E-02   -0.49869E-03   112   0.528E-01    0.495E-02
DAV:  13    -0.366933231139E+02   -0.43824E-02   -0.12023E-03   160   0.237E-01    0.354E-02
DAV:  14    -0.366975658546E+02   -0.42427E-02   -0.55016E-04   128   0.145E-01    0.238E-02
DAV:  15    -0.367005820049E+02   -0.30162E-02   -0.29089E-04   128   0.893E-02    0.147E-02
DAV:  16    -0.367028306692E+02   -0.22487E-02   -0.26127E-04   128   0.932E-02    0.106E-02
DAV:  17    -0.367037334147E+02   -0.90275E-03   -0.44087E-05    88   0.494E-02    0.399E-03
DAV:  18    -0.367041972560E+02   -0.46384E-03   -0.26691E-05    88   0.303E-02    0.293E-03
DAV:  19    -0.367044541205E+02   -0.25686E-03   -0.12257E-05    76   0.198E-02    0.160E-03
DAV:  20    -0.367045644289E+02   -0.11031E-03   -0.33875E-06    96   0.129E-02    0.161E-03
DAV:  21    -0.367046071831E+02   -0.42754E-04   -0.12741E-06    72   0.769E-03
   1 F= -.36704607E+02 E0= -.36704607E+02  d E =-.367046E+02
damped:  g(F)=  0.000E+00 g(S)=  0.000E+00 dE (1.order)= 0.000E+00
 bond charge predicted
       N       E                     dE             d eps       ncg     rms          rms(c)
DAV:   1    -0.367046254221E+02   -0.60993E-04   -0.32530E-03   124   0.505E-01    0.274E-02
DAV:   2    -0.367046207420E+02    0.46801E-05   -0.52790E-05    88   0.696E-02    0.131E-02
DAV:   3    -0.367046238755E+02   -0.31335E-05   -0.14118E-05    88   0.348E-02    0.568E-03
DAV:   4    -0.367046291399E+02   -0.52643E-05   -0.58997E-06    80   0.208E-02    0.210E-03
DAV:   5    -0.367046320999E+02   -0.29601E-05   -0.88439E-07    72   0.889E-03    0.922E-04
DAV:   6    -0.367046351753E+02   -0.30754E-05   -0.29016E-07    80   0.483E-03
   2 F= -.36704635E+02 E0= -.36704635E+02  d E =-.279922E-04
damped:  g(F)=  0.000E+00 g(S)=  0.000E+00 dE (1.order)= 0.000E+00
 bond charge predicted
       N       E                     dE             d eps       ncg     rms          rms(c)
DAV:   1    -0.367046654040E+02   -0.33304E-04   -0.44522E-04    80   0.187E-01    0.104E-02
DAV:   2    -0.367046651404E+02    0.26362E-06   -0.72937E-06    64   0.262E-02    0.493E-03
DAV:   3    -0.367046659538E+02   -0.81344E-06   -0.20200E-06    64   0.131E-02    0.213E-03
DAV:   4    -0.367046670845E+02   -0.11307E-05   -0.85245E-07    88   0.794E-03    0.797E-04
DAV:   5    -0.367046677451E+02   -0.66055E-06   -0.13962E-07    60   0.341E-03    0.354E-04
DAV:   6    -0.367046684730E+02   -0.72790E-06   -0.48085E-08    72   0.180E-03
   3 F= -.36704668E+02 E0= -.36704668E+02  d E =-.332977E-04
damped:  g(F)=  0.000E+00 g(S)=  0.000E+00 dE (1.order)= 0.000E+00
 bond charge predicted
       N       E                     dE             d eps       ncg     rms          rms(c)
DAV:   1    -0.367046694633E+02   -0.17182E-05   -0.84767E-04   104   0.259E-01    0.142E-02
DAV:   2    -0.367046670629E+02    0.24004E-05   -0.14011E-05    64   0.364E-02    0.677E-03
DAV:   3    -0.367046667252E+02    0.33771E-06   -0.40632E-06    64   0.185E-02    0.289E-03
DAV:   4    -0.367046670583E+02   -0.33310E-06   -0.16034E-06    80   0.109E-02    0.109E-03
DAV:   5    -0.367046672065E+02   -0.14826E-06   -0.24780E-07    48   0.463E-03    0.467E-04
DAV:   6    -0.367046673775E+02   -0.17095E-06   -0.84521E-08    60   0.247E-03
   4 F= -.36704667E+02 E0= -.36704667E+02  d E =0.109552E-05
damped:  g(F)=  0.000E+00 g(S)=  0.000E+00 dE (1.order)= 0.000E+00
 bond charge predicted
       N       E                     dE             d eps       ncg     rms          rms(c)
DAV:   1    -0.367046694809E+02   -0.22743E-05   -0.61771E-06    48   0.225E-02    0.110E-03
DAV:   2    -0.367046695541E+02   -0.73291E-07   -0.31310E-07    48   0.544E-03    0.583E-04
DAV:   3    -0.367046696292E+02   -0.75019E-07   -0.39399E-08    48   0.165E-03    0.326E-04
DAV:   4    -0.367046697495E+02   -0.12034E-06   -0.25341E-08    64   0.117E-03    0.100E-04
DAV:   5    -0.367046697859E+02   -0.36427E-07   -0.12314E-08    48   0.510E-04    0.705E-05
DAV:   6    -0.367046698406E+02   -0.54700E-07   -0.97051E-09    48   0.233E-04
   5 F= -.36704670E+02 E0= -.36704670E+02  d E =-.246317E-05
damped:  g(F)=  0.000E+00 g(S)=  0.000E+00 dE (1.order)= 0.000E+00
 bond charge predicted
       N       E                     dE             d eps       ncg     rms          rms(c)
DAV:   1    -0.367046727600E+02   -0.29740E-05   -0.21014E-05    48   0.415E-02    0.197E-03
DAV:   2    -0.367046727834E+02   -0.23478E-07   -0.99811E-07    48   0.978E-03    0.105E-03
DAV:   3    -0.367046727925E+02   -0.90529E-08   -0.10726E-07    96   0.294E-03    0.590E-04
DAV:   4    -0.367046728275E+02   -0.35025E-07   -0.71023E-08    64   0.222E-03    0.201E-04
DAV:   5    -0.367046728402E+02   -0.12678E-07   -0.20188E-08    48   0.979E-04    0.134E-04
DAV:   6    -0.367046728581E+02   -0.17955E-07   -0.12630E-08    48   0.470E-04
   6 F= -.36704673E+02 E0= -.36704673E+02  d E =-.301751E-05
damped:  g(F)=  0.000E+00 g(S)=  0.000E+00 dE (1.order)= 0.000E+00
 bond charge predicted
       N       E                     dE             d eps       ncg     rms          rms(c)
DAV:   1    -0.367046747786E+02   -0.19384E-05   -0.35966E-05    48   0.543E-02    0.253E-03
DAV:   2    -0.367046748018E+02   -0.23170E-07   -0.17209E-06    48   0.129E-02    0.136E-03
DAV:   3    -0.367046747747E+02    0.27155E-07   -0.18173E-07    48   0.387E-03    0.767E-04
DAV:   4    -0.367046747718E+02    0.28111E-08   -0.11811E-07    64   0.291E-03    0.261E-04
DAV:   5    -0.367046747791E+02   -0.72749E-08   -0.31323E-08    48   0.128E-03    0.176E-04
DAV:   6    -0.367046747857E+02   -0.65631E-08   -0.17408E-08    48   0.616E-04
   7 F= -.36704675E+02 E0= -.36704675E+02  d E =-.192753E-05
damped:  g(F)=  0.000E+00 g(S)=  0.000E+00 dE (1.order)= 0.000E+00
 bond charge predicted
       N       E                     dE             d eps       ncg     rms          rms(c)
DAV:   1    -0.367046746039E+02    0.17520E-06   -0.40802E-05    48   0.580E-02    0.258E-03
DAV:   2    -0.367046746424E+02   -0.38473E-07   -0.19750E-06    48   0.138E-02    0.142E-03
DAV:   3    -0.367046746031E+02    0.39252E-07   -0.20878E-07    48   0.416E-03    0.802E-04
DAV:   4    -0.367046745868E+02    0.16306E-07   -0.12676E-07    48   0.306E-03    0.270E-04
DAV:   5    -0.367046745926E+02   -0.57955E-08   -0.32932E-08    48   0.135E-03    0.187E-04
DAV:   6    -0.367046745969E+02   -0.43049E-08   -0.17206E-08    48   0.652E-04
   8 F= -.36704675E+02 E0= -.36704675E+02  d E =0.188748E-06
damped:  g(F)=  0.000E+00 g(S)=  0.000E+00 dE (1.order)= 0.000E+00
 bond charge predicted
       N       E                     dE             d eps       ncg     rms          rms(c)
DAV:   1    -0.367046728821E+02    0.17105E-05   -0.31307E-05    48   0.510E-02    0.199E-03
DAV:   2    -0.367046729322E+02   -0.50077E-07   -0.15248E-06    48   0.121E-02    0.115E-03
DAV:   3    -0.367046729081E+02    0.24081E-07   -0.16776E-07    48   0.367E-03    0.662E-04
DAV:   4    -0.367046728968E+02    0.11267E-07   -0.86983E-08    48   0.251E-03    0.217E-04
DAV:   5    -0.367046729022E+02   -0.53828E-08   -0.26752E-08    48   0.111E-03    0.156E-04
DAV:   6    -0.367046729066E+02   -0.43572E-08   -0.15153E-08    48   0.547E-04
   9 F= -.36704673E+02 E0= -.36704673E+02  d E =0.169036E-05
damped:  g(F)=  0.000E+00 g(S)=  0.000E+00 dE (1.order)= 0.000E+00
 bond charge predicted
       N       E                     dE             d eps       ncg     rms          rms(c)
DAV:   1    -0.367046730239E+02   -0.12170E-06   -0.12002E-07    48   0.310E-03    0.120E-04
DAV:   2    -0.367046730278E+02   -0.38674E-08   -0.16475E-08    48   0.754E-04    0.686E-05
DAV:   3    -0.367046730311E+02   -0.33549E-08   -0.11460E-08    48   0.232E-04    0.415E-05
DAV:   4    -0.367046730368E+02   -0.56431E-08   -0.10974E-08    48   0.136E-04    0.950E-06
DAV:   5    -0.367046730383E+02   -0.15389E-08   -0.10834E-08    48   0.642E-05    0.721E-06
DAV:   6    -0.367046730400E+02   -0.17335E-08   -0.10797E-08    48   0.340E-05
  10 F= -.36704673E+02 E0= -.36704673E+02  d E =-.133480E-06
damped:  g(F)=  0.000E+00 g(S)=  0.000E+00 dE (1.order)= 0.000E+00
 bond charge predicted
       N       E                     dE             d eps       ncg     rms          rms(c)
DAV:   1    -0.367046732451E+02   -0.20674E-06   -0.48534E-07    48   0.632E-03    0.243E-04
DAV:   2    -0.367046732493E+02   -0.42016E-08   -0.33588E-08    48   0.150E-03    0.141E-04
DAV:   3    -0.367046732513E+02   -0.20027E-08   -0.13137E-08    48   0.450E-04    0.824E-05
DAV:   4    -0.367046732530E+02   -0.17308E-08   -0.11927E-08    48   0.311E-04    0.262E-05
DAV:   5    -0.367046732532E+02   -0.25034E-09   -0.11025E-08    48   0.138E-04    0.191E-05
DAV:   6    -0.367046732534E+02   -0.15780E-09   -0.10840E-08    48   0.687E-05
  11 F= -.36704673E+02 E0= -.36704673E+02  d E =-.213354E-06
damped:  g(F)=  0.000E+00 g(S)=  0.000E+00 dE (1.order)= 0.000E+00
 bond charge predicted
       N       E                     dE             d eps       ncg     rms          rms(c)
DAV:   1    -0.367046735175E+02   -0.26428E-06   -0.84869E-07    48   0.846E-03    0.352E-04
DAV:   2    -0.367046735226E+02   -0.51137E-08   -0.51815E-08    48   0.203E-03    0.199E-04
DAV:   3    -0.367046735241E+02   -0.15104E-08   -0.15167E-08    48   0.614E-04    0.114E-04
DAV:   4    -0.367046735253E+02   -0.11671E-08   -0.13160E-08    48   0.433E-04    0.362E-05
DAV:   5    -0.367046735248E+02    0.47271E-09   -0.11374E-08    48   0.190E-04    0.259E-05
DAV:   6    -0.367046735247E+02    0.95042E-10   -0.11096E-08    48   0.933E-05
  12 F= -.36704674E+02 E0= -.36704674E+02  d E =-.271343E-06
damped:  g(F)=  0.000E+00 g(S)=  0.000E+00 dE (1.order)= 0.000E+00
 bond charge predicted
       N       E                     dE             d eps       ncg     rms          rms(c)
DAV:   1    -0.367046738005E+02   -0.27561E-06   -0.12851E-06    48   0.105E-02    0.442E-04
DAV:   2    -0.367046738073E+02   -0.68703E-08   -0.74283E-08    48   0.254E-03    0.250E-04
DAV:   3    -0.367046738088E+02   -0.14463E-08   -0.17700E-08    48   0.776E-04    0.143E-04
DAV:   4    -0.367046738100E+02   -0.12426E-08   -0.14584E-08    48   0.543E-04    0.446E-05
DAV:   5    -0.367046738094E+02    0.64142E-09   -0.11723E-08    48   0.237E-04    0.319E-05
DAV:   6    -0.367046738091E+02    0.25193E-09   -0.11271E-08    48   0.116E-04
  13 F= -.36704674E+02 E0= -.36704674E+02  d E =-.284375E-06
damped:  g(F)=  0.000E+00 g(S)=  0.000E+00 dE (1.order)= 0.000E+00
 bond charge predicted
       N       E                     dE             d eps       ncg     rms          rms(c)
DAV:   1    -0.367046740471E+02   -0.23774E-06   -0.17230E-06    48   0.123E-02    0.512E-04
DAV:   2    -0.367046740557E+02   -0.85988E-08   -0.96997E-08    48   0.297E-03    0.290E-04
DAV:   3    -0.367046740576E+02   -0.19072E-08   -0.20347E-08    48   0.916E-04    0.166E-04
DAV:   4    -0.367046740586E+02   -0.93269E-09   -0.15884E-08    48   0.631E-04    0.509E-05
DAV:   5    -0.367046740580E+02    0.53774E-09   -0.12091E-08    48   0.275E-04    0.365E-05
DAV:   6    -0.367046740578E+02    0.19190E-09   -0.11439E-08    48   0.134E-04
  14 F= -.36704674E+02 E0= -.36704674E+02  d E =-.248703E-06
damped:  g(F)=  0.000E+00 g(S)=  0.000E+00 dE (1.order)= 0.000E+00
 bond charge predicted
       N       E                     dE             d eps       ncg     rms          rms(c)
DAV:   1    -0.367046742161E+02   -0.15807E-06   -0.20923E-06    48   0.137E-02    0.556E-04
DAV:   2    -0.367046742260E+02   -0.98930E-08   -0.11628E-07    48   0.330E-03    0.316E-04
DAV:   3    -0.367046742280E+02   -0.20148E-08   -0.22724E-08    48   0.103E-03    0.182E-04
DAV:   4    -0.367046742295E+02   -0.14644E-08   -0.16843E-08    48   0.692E-04    0.547E-05
DAV:   5    -0.367046742288E+02    0.68417E-09   -0.12377E-08    48   0.302E-04    0.394E-05
DAV:   6    -0.367046742285E+02    0.24943E-09   -0.11526E-08    48   0.148E-04
  15 F= -.36704674E+02 E0= -.36704674E+02  d E =-.170697E-06
damped:  g(F)=  0.000E+00 g(S)=  0.000E+00 dE (1.order)= 0.000E+00
 bond charge predicted
       N       E                     dE             d eps       ncg     rms          rms(c)
DAV:   1    -0.367046742789E+02   -0.50180E-07   -0.28825E-06    48   0.162E-02    0.634E-04
DAV:   2    -0.367046742918E+02   -0.12854E-07   -0.15700E-07    48   0.390E-03    0.365E-04
DAV:   3    -0.367046742945E+02   -0.26887E-08   -0.27595E-08    48   0.122E-03    0.210E-04
DAV:   4    -0.367046742959E+02   -0.14581E-08   -0.18705E-08    48   0.801E-04    0.618E-05
DAV:   5    -0.367046742951E+02    0.81923E-09   -0.12850E-08    48   0.350E-04    0.446E-05
DAV:   6    -0.367046742949E+02    0.22328E-09   -0.11708E-08    48   0.172E-04
  16 F= -.36704674E+02 E0= -.36704674E+02  d E =-.663870E-07
damped:  g(F)=  0.000E+00 g(S)=  0.000E+00 dE (1.order)= 0.000E+00
 bond charge predicted
       N       E                     dE             d eps       ncg     rms          rms(c)
DAV:   1    -0.367046741910E+02    0.10408E-06   -0.37211E-06    48   0.185E-02    0.685E-04
DAV:   2    -0.367046742081E+02   -0.17012E-07   -0.20080E-07    48   0.446E-03    0.401E-04
DAV:   3    -0.367046742113E+02   -0.32439E-08   -0.33169E-08    48   0.141E-03    0.232E-04
DAV:   4    -0.367046742131E+02   -0.18152E-08   -0.20367E-08    48   0.887E-04    0.663E-05
DAV:   5    -0.367046742121E+02    0.10104E-08   -0.13317E-08    48   0.388E-04    0.481E-05
DAV:   6    -0.367046742118E+02    0.30673E-09   -0.11883E-08    48   0.195E-04
  17 F= -.36704674E+02 E0= -.36704674E+02  d E =0.831053E-07
damped:  g(F)=  0.000E+00 g(S)=  0.000E+00 dE (1.order)= 0.000E+00
 bond charge predicted
       N       E                     dE             d eps       ncg     rms          rms(c)
DAV:   1    -0.367046739388E+02    0.27335E-06   -0.45506E-06    48   0.206E-02    0.693E-04
DAV:   2    -0.367046739602E+02   -0.21485E-07   -0.24546E-07    48   0.494E-03    0.419E-04
DAV:   3    -0.367046739646E+02   -0.43919E-08   -0.39236E-08    48   0.157E-03    0.243E-04
DAV:   4    -0.367046739669E+02   -0.22928E-08   -0.21348E-08    48   0.933E-04    0.670E-05
DAV:   5    -0.367046739660E+02    0.90677E-09   -0.13634E-08    48   0.413E-04    0.490E-05
DAV:   6    -0.367046739655E+02    0.48726E-09   -0.12039E-08    48   0.213E-04
  18 F= -.36704674E+02 E0= -.36704674E+02  d E =0.246264E-06
damped:  g(F)=  0.000E+00 g(S)=  0.000E+00 dE (1.order)= 0.000E+00
 bond charge predicted
       N       E                     dE             d eps       ncg     rms          rms(c)
DAV:   1    -0.367046735637E+02    0.40230E-06   -0.55039E-06    48   0.225E-02    0.665E-04
DAV:   2    -0.367046735911E+02   -0.27337E-07   -0.29817E-07    48   0.541E-03    0.424E-04
DAV:   3    -0.367046735974E+02   -0.62931E-08   -0.46186E-08    48   0.172E-03    0.240E-04
DAV:   4    -0.367046736000E+02   -0.26475E-08   -0.21692E-08    48   0.930E-04    0.636E-05
DAV:   5    -0.367046735990E+02    0.96793E-09   -0.13964E-08    48   0.423E-04    0.484E-05
DAV:   6    -0.367046735985E+02    0.49408E-09   -0.12172E-08    48   0.227E-04
  19 F= -.36704674E+02 E0= -.36704674E+02  d E =0.366995E-06
damped:  g(F)=  0.000E+00 g(S)=  0.000E+00 dE (1.order)= 0.000E+00
 bond charge predicted
       N       E                     dE             d eps       ncg     rms          rms(c)
DAV:   1    -0.367046731609E+02    0.43817E-06   -0.71591E-06    48   0.252E-02    0.669E-04
DAV:   2    -0.367046731967E+02   -0.35885E-07   -0.38458E-07    48   0.609E-03    0.441E-04
DAV:   3    -0.367046732062E+02   -0.94833E-08   -0.56612E-08    48   0.190E-03    0.213E-04
DAV:   4    -0.367046732082E+02   -0.20043E-08   -0.22317E-08    48   0.903E-04    0.545E-05
DAV:   5    -0.367046732077E+02    0.57707E-09   -0.14469E-08    48   0.430E-04    0.474E-05
DAV:   6    -0.367046732074E+02    0.27694E-09   -0.12348E-08    48   0.240E-04
  20 F= -.36704673E+02 E0= -.36704673E+02  d E =0.391159E-06
damped:  g(F)=  0.000E+00 g(S)=  0.000E+00 dE (1.order)= 0.000E+00
 bond charge predicted
       N       E                     dE             d eps       ncg     rms          rms(c)
DAV:   1    -0.367046728289E+02    0.37874E-06   -0.10706E-05    48   0.305E-02    0.785E-04
DAV:   2    -0.367046728790E+02   -0.50073E-07   -0.55856E-07    48   0.738E-03    0.521E-04
DAV:   3    -0.367046728909E+02   -0.11939E-07   -0.76042E-08    48   0.227E-03    0.189E-04
DAV:   4    -0.367046728923E+02   -0.14072E-08   -0.26266E-08    48   0.102E-03    0.548E-05
DAV:   5    -0.367046728927E+02   -0.38926E-09   -0.15767E-08    48   0.492E-04    0.483E-05
DAV:   6    -0.367046728924E+02    0.28831E-09   -0.12769E-08    48   0.285E-04
  21 F= -.36704673E+02 E0= -.36704673E+02  d E =0.314940E-06
damped:  g(F)=  0.000E+00 g(S)=  0.000E+00 dE (1.order)= 0.000E+00
 bond charge predicted
       N       E                     dE             d eps       ncg     rms          rms(c)
DAV:   1    -0.367046725677E+02    0.32507E-06   -0.17678E-05    48   0.396E-02    0.104E-03
DAV:   2    -0.367046726457E+02   -0.78029E-07   -0.92535E-07    48   0.956E-03    0.686E-04
DAV:   3    -0.367046726585E+02   -0.12816E-07   -0.11957E-07    48   0.296E-03    0.313E-04
DAV:   4    -0.367046726600E+02   -0.15353E-08   -0.37801E-08    48   0.140E-03    0.943E-05
DAV:   5    -0.367046726619E+02   -0.18109E-08   -0.18726E-08    48   0.660E-04    0.809E-05
DAV:   6    -0.367046726622E+02   -0.32833E-09   -0.13764E-08    48   0.384E-04
  22 F= -.36704673E+02 E0= -.36704673E+02  d E =0.230263E-06
damped:  g(F)=  0.000E+00 g(S)=  0.000E+00 dE (1.order)= 0.000E+00
 bond charge predicted
       N       E                     dE             d eps       ncg     rms          rms(c)
DAV:   1    -0.367046721946E+02    0.46726E-06   -0.29064E-05    48   0.513E-02    0.137E-03
DAV:   2    -0.367046723168E+02   -0.12219E-06   -0.15216E-06    48   0.123E-02    0.905E-04
DAV:   3    -0.367046723329E+02   -0.16157E-07   -0.18994E-07    48   0.384E-03    0.461E-04
DAV:   4    -0.367046723350E+02   -0.20264E-08   -0.58640E-08    48   0.192E-03    0.136E-04
DAV:   5    -0.367046723384E+02   -0.34490E-08   -0.23900E-08    48   0.894E-04    0.113E-04
DAV:   6    -0.367046723391E+02   -0.72123E-09   -0.15417E-08    48   0.510E-04
  23 F= -.36704672E+02 E0= -.36704672E+02  d E =0.323050E-06
damped:  g(F)=  0.000E+00 g(S)=  0.000E+00 dE (1.order)= 0.000E+00
 bond charge predicted
       N       E                     dE             d eps       ncg     rms          rms(c)
DAV:   1    -0.367046714605E+02    0.87787E-06   -0.43617E-05    48   0.628E-02    0.168E-03
DAV:   2    -0.367046716453E+02   -0.18475E-06   -0.22773E-06    48   0.151E-02    0.111E-03
DAV:   3    -0.367046716704E+02   -0.25075E-07   -0.27988E-07    48   0.470E-03    0.565E-04
DAV:   4    -0.367046716738E+02   -0.33871E-08   -0.81994E-08    48   0.235E-03    0.166E-04
DAV:   5    -0.367046716786E+02   -0.48786E-08   -0.30222E-08    48   0.109E-03    0.139E-04
DAV:   6    -0.367046716801E+02   -0.14543E-08   -0.17448E-08    48   0.622E-04
  24 F= -.36704672E+02 E0= -.36704672E+02  d E =0.659040E-06
damped:  g(F)=  0.000E+00 g(S)=  0.000E+00 dE (1.order)= 0.000E+00
 bond charge predicted
       N       E                     dE             d eps       ncg     rms          rms(c)
DAV:   1    -0.367046703844E+02    0.12942E-05   -0.59970E-05    48   0.730E-02    0.189E-03
DAV:   2    -0.367046706526E+02   -0.26824E-06   -0.31063E-06    48   0.176E-02    0.125E-03
DAV:   3    -0.367046706997E+02   -0.47114E-07   -0.37885E-07    48   0.544E-03    0.571E-04
DAV:   4    -0.367046707053E+02   -0.55904E-08   -0.99450E-08    48   0.254E-03    0.169E-04
DAV:   5    -0.367046707108E+02   -0.54781E-08   -0.36377E-08    48   0.121E-03    0.149E-04
DAV:   6    -0.367046707124E+02   -0.15589E-08   -0.19391E-08    48   0.698E-04
  25 F= -.36704671E+02 E0= -.36704671E+02  d E =0.967715E-06
damped:  g(F)=  0.000E+00 g(S)=  0.000E+00 dE (1.order)= 0.000E+00
 bond charge predicted
       N       E                     dE             d eps       ncg     rms          rms(c)
DAV:   1    -0.367046693364E+02    0.13744E-05   -0.82109E-05    48   0.846E-02    0.218E-03
DAV:   2    -0.367046697162E+02   -0.37981E-06   -0.42106E-06    48   0.205E-02    0.144E-03
DAV:   3    -0.367046697981E+02   -0.81887E-07   -0.50883E-07    48   0.629E-03    0.544E-04
DAV:   4    -0.367046698064E+02   -0.82489E-08   -0.12500E-07    48   0.281E-03    0.160E-04
DAV:   5    -0.367046698114E+02   -0.50236E-08   -0.45200E-08    48   0.136E-03    0.145E-04
DAV:   6    -0.367046698124E+02   -0.10605E-08   -0.22191E-08    48   0.786E-04
  26 F= -.36704670E+02 E0= -.36704670E+02  d E =0.899928E-06
damped:  g(F)=  0.000E+00 g(S)=  0.000E+00 dE (1.order)= 0.000E+00
 bond charge predicted
       N       E                     dE             d eps       ncg     rms          rms(c)
DAV:   1    -0.367046682890E+02    0.15224E-05   -0.11894E-04    48   0.102E-01    0.268E-03
DAV:   2    -0.367046688449E+02   -0.55584E-06   -0.61786E-06    48   0.247E-02    0.177E-03
DAV:   3    -0.367046689597E+02   -0.11479E-06   -0.75186E-07    48   0.767E-03    0.778E-04
DAV:   4    -0.367046689750E+02   -0.15324E-07   -0.18447E-07    48   0.354E-03    0.205E-04
DAV:   5    -0.367046689805E+02   -0.55122E-08   -0.61660E-08    48   0.170E-03    0.184E-04
DAV:   6    -0.367046689817E+02   -0.12528E-08   -0.27483E-08    48   0.961E-04
  27 F= -.36704669E+02 E0= -.36704669E+02  d E =0.830704E-06
damped:  g(F)=  0.000E+00 g(S)=  0.000E+00 dE (1.order)= 0.000E+00
 bond charge predicted
       N       E                     dE             d eps       ncg     rms          rms(c)
DAV:   1    -0.367046675868E+02    0.13937E-05   -0.17651E-04    80   0.122E-01    0.369E-03
DAV:   2    -0.367046675887E+02   -0.19446E-08   -0.13656E-06    48   0.104E-02    0.226E-03
DAV:   3    -0.367046676582E+02   -0.69492E-07   -0.26563E-07    48   0.464E-03    0.446E-04
DAV:   4    -0.367046676653E+02   -0.71400E-08   -0.73856E-08    48   0.210E-03    0.197E-04
DAV:   5    -0.367046676672E+02   -0.19008E-08   -0.27169E-08    48   0.102E-03    0.921E-05
DAV:   6    -0.367046676714E+02   -0.41598E-08   -0.18801E-08    48   0.619E-04
  28 F= -.36704668E+02 E0= -.36704668E+02  d E =0.131035E-05
damped:  g(F)=  0.000E+00 g(S)=  0.000E+00 dE (1.order)= 0.000E+00
 bond charge predicted
       N       E                     dE             d eps       ncg     rms          rms(c)
DAV:   1    -0.367046661371E+02    0.15302E-05   -0.23178E-04    80   0.138E-01    0.413E-03
DAV:   2    -0.367046661461E+02   -0.90860E-08   -0.15927E-06    48   0.111E-02    0.253E-03
DAV:   3    -0.367046662426E+02   -0.96449E-07   -0.28004E-07    48   0.471E-03    0.311E-04
DAV:   4    -0.367046662504E+02   -0.77792E-08   -0.72599E-08    48   0.198E-03    0.169E-04
DAV:   5    -0.367046662564E+02   -0.60613E-08   -0.29276E-08    48   0.101E-03    0.627E-05
DAV:   6    -0.367046662636E+02   -0.71584E-08   -0.18758E-08    48   0.570E-04
  29 F= -.36704666E+02 E0= -.36704666E+02  d E =0.140780E-05
damped:  g(F)=  0.000E+00 g(S)=  0.000E+00 dE (1.order)= 0.000E+00
 bond charge predicted
       N       E                     dE             d eps       ncg     rms          rms(c)
DAV:   1    -0.367046647744E+02    0.14820E-05   -0.32078E-04    96   0.163E-01    0.495E-03
DAV:   2    -0.367046647551E+02    0.19339E-07   -0.23100E-06    48   0.135E-02    0.303E-03
DAV:   3    -0.367046648575E+02   -0.10241E-06   -0.43308E-07    48   0.593E-03    0.529E-04
DAV:   4    -0.367046648721E+02   -0.14567E-07   -0.10940E-07    48   0.260E-03    0.249E-04
DAV:   5    -0.367046648808E+02   -0.87512E-08   -0.36432E-08    48   0.127E-03    0.122E-04
DAV:   6    -0.367046648920E+02   -0.11235E-07   -0.22494E-08    48   0.778E-04
  30 F= -.36704665E+02 E0= -.36704665E+02  d E =0.137155E-05
damped:  g(F)=  0.000E+00 g(S)=  0.000E+00 dE (1.order)= 0.000E+00
 bond charge predicted
       N       E                     dE             d eps       ncg     rms          rms(c)
DAV:   1    -0.367046628828E+02    0.19980E-05   -0.41345E-04    96   0.184E-01    0.562E-03
DAV:   2    -0.367046628783E+02    0.44598E-08   -0.27396E-06    48   0.146E-02    0.344E-03
DAV:   3    -0.367046630294E+02   -0.15105E-06   -0.49854E-07    48   0.631E-03    0.427E-04
DAV:   4    -0.367046630457E+02   -0.16365E-07   -0.12024E-07    48   0.267E-03    0.232E-04
DAV:   5    -0.367046630575E+02   -0.11761E-07   -0.41671E-08    48   0.134E-03    0.106E-04
DAV:   6    -0.367046630716E+02   -0.14134E-07   -0.23524E-08    48   0.781E-04
  31 F= -.36704663E+02 E0= -.36704663E+02  d E =0.182039E-05
damped:  g(F)=  0.000E+00 g(S)=  0.000E+00 dE (1.order)= 0.000E+00
 bond charge predicted
       N       E                     dE             d eps       ncg     rms          rms(c)
DAV:   1    -0.367046612478E+02    0.18097E-05   -0.52723E-04    96   0.207E-01    0.651E-03
DAV:   2    -0.367046612461E+02    0.17701E-08   -0.36118E-06    48   0.172E-02    0.398E-03
DAV:   3    -0.367046614532E+02   -0.20715E-06   -0.71063E-07    48   0.763E-03    0.663E-04
DAV:   4    -0.367046614760E+02   -0.22782E-07   -0.17575E-07    48   0.338E-03    0.336E-04
DAV:   5    -0.367046614860E+02   -0.10038E-07   -0.53296E-08    48   0.167E-03    0.170E-04
DAV:   6    -0.367046615019E+02   -0.15868E-07   -0.32574E-08    48   0.109E-03
  32 F= -.36704662E+02 E0= -.36704662E+02  d E =0.156975E-05
damped:  g(F)=  0.000E+00 g(S)=  0.000E+00 dE (1.order)= 0.000E+00
 bond charge predicted
       N       E                     dE             d eps       ncg     rms          rms(c)
DAV:   1    -0.367046595530E+02    0.19330E-05   -0.62290E-04    96   0.221E-01    0.711E-03
DAV:   2    -0.367046595421E+02    0.10937E-07   -0.36962E-06    48   0.171E-02    0.433E-03
DAV:   3    -0.367046597913E+02   -0.24919E-06   -0.69896E-07    48   0.734E-03    0.422E-04
DAV:   4    -0.367046598163E+02   -0.25060E-07   -0.16173E-07    48   0.307E-03    0.269E-04
DAV:   5    -0.367046598362E+02   -0.19861E-07   -0.55765E-08    48   0.158E-03    0.116E-04
DAV:   6    -0.367046598581E+02   -0.21933E-07   -0.28879E-08    48   0.918E-04
  33 F= -.36704660E+02 E0= -.36704660E+02  d E =0.164376E-05
damped:  g(F)=  0.000E+00 g(S)=  0.000E+00 dE (1.order)= 0.000E+00
 bond charge predicted
       N       E                     dE             d eps       ncg     rms          rms(c)
DAV:   1    -0.367046578713E+02    0.19649E-05   -0.73191E-04    96   0.235E-01    0.797E-03
DAV:   2    -0.367046578153E+02    0.55931E-07   -0.41491E-06    48   0.183E-02    0.483E-03
DAV:   3    -0.367046581014E+02   -0.28611E-06   -0.85059E-07    48   0.813E-03    0.524E-04
DAV:   4    -0.367046581329E+02   -0.31419E-07   -0.19356E-07    48   0.350E-03    0.284E-04
DAV:   5    -0.367046581576E+02   -0.24758E-07   -0.62479E-08    48   0.176E-03    0.129E-04
DAV:   6    -0.367046581837E+02   -0.26056E-07   -0.31135E-08    48   0.104E-03
  34 F= -.36704658E+02 E0= -.36704658E+02  d E =0.167445E-05
damped:  g(F)=  0.000E+00 g(S)=  0.000E+00 dE (1.order)= 0.000E+00
 bond charge predicted
       N       E                     dE             d eps       ncg     rms          rms(c)
DAV:   1    -0.367046562737E+02    0.18839E-05   -0.84901E-04    96   0.260E-01    0.909E-03
DAV:   2    -0.367046561324E+02    0.14128E-06   -0.56607E-06    48   0.225E-02    0.541E-03
DAV:   3    -0.367046564174E+02   -0.28499E-06   -0.14258E-06    64   0.109E-02    0.125E-03
DAV:   4    -0.367046564711E+02   -0.53735E-07   -0.35194E-07    48   0.498E-03    0.529E-04
DAV:   5    -0.367046564797E+02   -0.86072E-08   -0.85217E-08    48   0.244E-03    0.217E-04
DAV:   6    -0.367046565009E+02   -0.21132E-07   -0.53788E-08    48   0.157E-03
  35 F= -.36704657E+02 E0= -.36704657E+02  d E =0.168281E-05
damped:  g(F)=  0.000E+00 g(S)=  0.000E+00 dE (1.order)= 0.000E+00
 bond charge predicted
       N       E                     dE             d eps       ncg     rms          rms(c)
DAV:   1    -0.367046572897E+02   -0.80995E-06   -0.71228E-06    48   0.243E-02    0.114E-03
DAV:   2    -0.367046573007E+02   -0.11036E-07   -0.35085E-07    48   0.580E-03    0.607E-04
DAV:   3    -0.367046573053E+02   -0.46148E-08   -0.46073E-08    48   0.173E-03    0.349E-04
DAV:   4    -0.367046573215E+02   -0.16172E-07   -0.31804E-08    48   0.125E-03    0.108E-04
DAV:   5    -0.367046573297E+02   -0.81684E-08   -0.16266E-08    48   0.558E-04    0.736E-05
DAV:   6    -0.367046573391E+02   -0.94630E-08   -0.13249E-08    48   0.262E-04
  36 F= -.36704657E+02 E0= -.36704657E+02  d E =-.838273E-06
damped:  g(F)=  0.000E+00 g(S)=  0.000E+00 dE (1.order)= 0.000E+00
 bond charge predicted
       N       E                     dE             d eps       ncg     rms          rms(c)
DAV:   1    -0.367046577703E+02   -0.44064E-06   -0.17257E-05    48   0.380E-02    0.178E-03
DAV:   2    -0.367046577772E+02   -0.68437E-08   -0.82247E-07    48   0.903E-03    0.959E-04
DAV:   3    -0.367046577607E+02    0.16449E-07   -0.94063E-08    48   0.270E-03    0.541E-04
DAV:   4    -0.367046577581E+02    0.25882E-08   -0.63472E-08    48   0.204E-03    0.182E-04
DAV:   5    -0.367046577626E+02   -0.44420E-08   -0.21190E-08    48   0.901E-04    0.121E-04
DAV:   6    -0.367046577657E+02   -0.31096E-08   -0.14195E-08    48   0.437E-04
  37 F= -.36704658E+02 E0= -.36704658E+02  d E =-.426537E-06
damped:  g(F)=  0.000E+00 g(S)=  0.000E+00 dE (1.order)= 0.000E+00
 bond charge predicted
       N       E                     dE             d eps       ncg     rms          rms(c)
DAV:   1    -0.367046577783E+02   -0.15688E-07   -0.25043E-08    48   0.111E-03    0.404E-05
DAV:   2    -0.367046577797E+02   -0.14315E-08   -0.12258E-08    48   0.290E-04    0.232E-05
DAV:   3    -0.367046577811E+02   -0.14079E-08   -0.11504E-08    48   0.103E-04    0.130E-05
DAV:   4    -0.367046577828E+02   -0.17251E-08   -0.11344E-08    48   0.509E-05    0.447E-06
DAV:   5    -0.367046577838E+02   -0.92314E-09   -0.11297E-08    48   0.278E-05    0.257E-06
DAV:   6    -0.367046577844E+02   -0.62596E-09   -0.11254E-08    48   0.185E-05
  38 F= -.36704658E+02 E0= -.36704658E+02  d E =-.186925E-07
damped:  g(F)=  0.000E+00 g(S)=  0.000E+00 dE (1.order)= 0.000E+00
 bond charge predicted
       N       E                     dE             d eps       ncg     rms          rms(c)
DAV:   1    -0.367046577972E+02   -0.13403E-07   -0.57989E-08    48   0.208E-03    0.739E-05
DAV:   2    -0.367046577984E+02   -0.12508E-08   -0.13600E-08    48   0.498E-04    0.426E-05
DAV:   3    -0.367046577991E+02   -0.73692E-09   -0.11422E-08    48   0.157E-04    0.241E-05
DAV:   4    -0.367046577998E+02   -0.66461E-09   -0.11216E-08    48   0.910E-05    0.654E-06
DAV:   5    -0.367046577998E+02   -0.32969E-10   -0.11138E-08    48   0.403E-05    0.473E-06
DAV:   6    -0.367046577998E+02    0.45475E-12   -0.11117E-08    48   0.198E-05
  39 F= -.36704658E+02 E0= -.36704658E+02  d E =-.154623E-07
damped:  g(F)=  0.000E+00 g(S)=  0.000E+00 dE (1.order)= 0.000E+00
 bond charge predicted
       N       E                     dE             d eps       ncg     rms          rms(c)
DAV:   1    -0.367046578039E+02   -0.40744E-08   -0.11566E-07    48   0.311E-03    0.108E-04
DAV:   2    -0.367046578055E+02   -0.15912E-08   -0.16668E-08    48   0.752E-04    0.635E-05
DAV:   3    -0.367046578065E+02   -0.10066E-08   -0.11754E-08    48   0.241E-04    0.352E-05
DAV:   4    -0.367046578069E+02   -0.41291E-09   -0.11346E-08    48   0.133E-04    0.921E-06
DAV:   5    -0.367046578064E+02    0.52410E-09   -0.11149E-08    48   0.588E-05    0.678E-06
DAV:   6    -0.367046578064E+02   -0.48203E-10   -0.11137E-08    48   0.300E-05
  40 F= -.36704658E+02 E0= -.36704658E+02  d E =-.660964E-08
damped:  g(F)=  0.000E+00 g(S)=  0.000E+00 dE (1.order)= 0.000E+00
 bond charge predicted
       N       E                     dE             d eps       ncg     rms          rms(c)
DAV:   1    -0.367046577908E+02    0.15594E-07   -0.23240E-07    48   0.446E-03    0.141E-04
DAV:   2    -0.367046577933E+02   -0.24536E-08   -0.22922E-08    48   0.108E-03    0.874E-05
DAV:   3    -0.367046577945E+02   -0.12628E-08   -0.12562E-08    48   0.346E-04    0.458E-05
DAV:   4    -0.367046577951E+02   -0.54683E-09   -0.11540E-08    48   0.176E-04    0.126E-05
DAV:   5    -0.367046577947E+02    0.41496E-09   -0.11200E-08    48   0.806E-05    0.986E-06
DAV:   6    -0.367046577947E+02   -0.52296E-11   -0.11145E-08    48   0.426E-05
  41 F= -.36704658E+02 E0= -.36704658E+02  d E =0.117884E-07
damped:  g(F)=  0.000E+00 g(S)=  0.000E+00 dE (1.order)= 0.000E+00
 bond charge predicted
       N       E                     dE             d eps       ncg     rms          rms(c)
DAV:   1    -0.367046577586E+02    0.36098E-07   -0.40969E-07    48   0.591E-03    0.173E-04
DAV:   2    -0.367046577620E+02   -0.34458E-08   -0.32193E-08    48   0.143E-03    0.112E-04
DAV:   3    -0.367046577637E+02   -0.16605E-08   -0.13658E-08    48   0.455E-04    0.534E-05
DAV:   4    -0.367046577641E+02   -0.41678E-09   -0.11761E-08    48   0.217E-04    0.163E-05
DAV:   5    -0.367046577634E+02    0.70827E-09   -0.11286E-08    48   0.103E-04    0.134E-05
DAV:   6    -0.367046577634E+02   -0.74351E-10   -0.11186E-08    48   0.556E-05
  42 F= -.36704658E+02 E0= -.36704658E+02  d E =0.312140E-07
damped:  g(F)=  0.000E+00 g(S)=  0.000E+00 dE (1.order)= 0.000E+00
 bond charge predicted
       N       E                     dE             d eps       ncg     rms          rms(c)
DAV:   1    -0.367046577072E+02    0.56221E-07   -0.64846E-07    48   0.739E-03    0.208E-04
DAV:   2    -0.367046577116E+02   -0.44299E-08   -0.44464E-08    48   0.179E-03    0.137E-04
DAV:   3    -0.367046577136E+02   -0.20627E-08   -0.15172E-08    48   0.565E-04    0.585E-05
DAV:   4    -0.367046577141E+02   -0.45225E-09   -0.12129E-08    48   0.257E-04    0.198E-05
DAV:   5    -0.367046577136E+02    0.50341E-09   -0.11416E-08    48   0.124E-04    0.161E-05
DAV:   6    -0.367046577132E+02    0.37130E-09   -0.11234E-08    48   0.696E-05
  43 F= -.36704658E+02 E0= -.36704658E+02  d E =0.502256E-07
damped:  g(F)=  0.000E+00 g(S)=  0.000E+00 dE (1.order)= 0.000E+00
 bond charge predicted
       N       E                     dE             d eps       ncg     rms          rms(c)
DAV:   1    -0.367046576275E+02    0.86104E-07   -0.11954E-06    48   0.100E-02    0.277E-04
DAV:   2    -0.367046576347E+02   -0.72273E-08   -0.72693E-08    48   0.243E-03    0.182E-04
DAV:   3    -0.367046576375E+02   -0.27353E-08   -0.18567E-08    48   0.761E-04    0.713E-05
DAV:   4    -0.367046576378E+02   -0.29922E-09   -0.12889E-08    48   0.339E-04    0.263E-05
DAV:   5    -0.367046576372E+02    0.54638E-09   -0.11689E-08    48   0.163E-04    0.203E-05
DAV:   6    -0.367046576371E+02    0.10482E-09   -0.11350E-08    48   0.949E-05
  44 F= -.36704658E+02 E0= -.36704658E+02  d E =0.761219E-07
damped:  g(F)=  0.000E+00 g(S)=  0.000E+00 dE (1.order)= 0.000E+00
 bond charge predicted
       N       E                     dE             d eps       ncg     rms          rms(c)
DAV:   1    -0.367046575134E+02    0.12384E-06   -0.21500E-06    48   0.134E-02    0.368E-04
DAV:   2    -0.367046575250E+02   -0.11652E-07   -0.12243E-07    48   0.327E-03    0.242E-04
DAV:   3    -0.367046575286E+02   -0.36191E-08   -0.24501E-08    48   0.102E-03    0.929E-05
DAV:   4    -0.367046575292E+02   -0.52114E-09   -0.14207E-08    48   0.452E-04    0.343E-05
DAV:   5    -0.367046575286E+02    0.59981E-09   -0.12042E-08    48   0.218E-04    0.267E-05
DAV:   6    -0.367046575283E+02    0.22669E-09   -0.11451E-08    48   0.129E-04
  45 F= -.36704658E+02 E0= -.36704658E+02  d E =0.108766E-06
damped:  g(F)=  0.000E+00 g(S)=  0.000E+00 dE (1.order)= 0.000E+00
 bond charge predicted
       N       E                     dE             d eps       ncg     rms          rms(c)
DAV:   1    -0.367046573541E+02    0.17449E-06   -0.37822E-06    48   0.179E-02    0.486E-04
DAV:   2    -0.367046573734E+02   -0.19331E-07   -0.20777E-07    48   0.435E-03    0.320E-04
DAV:   3    -0.367046573786E+02   -0.51468E-08   -0.34770E-08    48   0.136E-03    0.125E-04
DAV:   4    -0.367046573787E+02   -0.18781E-09   -0.16555E-08    48   0.605E-04    0.440E-05
DAV:   5    -0.367046573783E+02    0.45111E-09   -0.12744E-08    48   0.289E-04    0.357E-05
DAV:   6    -0.367046573783E+02   -0.16371E-10   -0.11716E-08    48   0.173E-04
  46 F= -.36704657E+02 E0= -.36704657E+02  d E =0.150029E-06
damped:  g(F)=  0.000E+00 g(S)=  0.000E+00 dE (1.order)= 0.000E+00
 bond charge predicted
       N       E                     dE             d eps       ncg     rms          rms(c)
DAV:   1    -0.367046571328E+02    0.24553E-06   -0.64967E-06    48   0.235E-02    0.633E-04
DAV:   2    -0.367046571646E+02   -0.31864E-07   -0.34921E-07    48   0.572E-03    0.417E-04
DAV:   3    -0.367046571720E+02   -0.73594E-08   -0.51661E-08    48   0.178E-03    0.166E-04
DAV:   4    -0.367046571728E+02   -0.80240E-09   -0.20459E-08    48   0.797E-04    0.561E-05
DAV:   5    -0.367046571726E+02    0.20509E-09   -0.13860E-08    48   0.381E-04    0.468E-05
DAV:   6    -0.367046571724E+02    0.13688E-09   -0.12090E-08    48   0.228E-04
  47 F= -.36704657E+02 E0= -.36704657E+02  d E =0.205860E-06
damped:  g(F)=  0.000E+00 g(S)=  0.000E+00 dE (1.order)= 0.000E+00
 bond charge predicted
       N       E                     dE             d eps       ncg     rms          rms(c)
DAV:   1    -0.367046568273E+02    0.34531E-06   -0.10885E-05    48   0.305E-02    0.815E-04
DAV:   2    -0.367046568795E+02   -0.52278E-07   -0.57595E-07    48   0.741E-03    0.537E-04
DAV:   3    -0.367046568915E+02   -0.11911E-07   -0.78574E-08    48   0.231E-03    0.213E-04
DAV:   4    -0.367046568926E+02   -0.11287E-08   -0.26638E-08    48   0.103E-03    0.702E-05
DAV:   5    -0.367046568929E+02   -0.28422E-09   -0.15646E-08    48   0.493E-04    0.596E-05
DAV:   6    -0.367046568924E+02    0.45043E-09   -0.12718E-08    48   0.293E-04
  48 F= -.36704657E+02 E0= -.36704657E+02  d E =0.280021E-06
damped:  g(F)=  0.000E+00 g(S)=  0.000E+00 dE (1.order)= 0.000E+00
 bond charge predicted
       N       E                     dE             d eps       ncg     rms          rms(c)
DAV:   1    -0.367046564156E+02    0.47730E-06   -0.17865E-05    48   0.392E-02    0.104E-03
DAV:   2    -0.367046565006E+02   -0.85054E-07   -0.93321E-07    48   0.950E-03    0.683E-04
DAV:   3    -0.367046565200E+02   -0.19405E-07   -0.12081E-07    48   0.294E-03    0.264E-04
DAV:   4    -0.367046565218E+02   -0.18053E-08   -0.36198E-08    48   0.131E-03    0.856E-05
DAV:   5    -0.367046565222E+02   -0.36562E-09   -0.18469E-08    48   0.630E-04    0.735E-05
DAV:   6    -0.367046565221E+02    0.11096E-09   -0.13617E-08    48   0.370E-04
  49 F= -.36704657E+02 E0= -.36704657E+02  d E =0.370333E-06
damped:  g(F)=  0.000E+00 g(S)=  0.000E+00 dE (1.order)= 0.000E+00
 bond charge predicted
       N       E                     dE             d eps       ncg     rms          rms(c)
DAV:   1    -0.367046558757E+02    0.64655E-06   -0.28896E-05    48   0.499E-02    0.131E-03
DAV:   2    -0.367046560124E+02   -0.13674E-06   -0.14960E-06    48   0.121E-02    0.863E-04
DAV:   3    -0.367046560435E+02   -0.31079E-07   -0.18701E-07    48   0.373E-03    0.327E-04
DAV:   4    -0.367046560464E+02   -0.28897E-08   -0.51313E-08    48   0.166E-03    0.102E-04
DAV:   5    -0.367046560473E+02   -0.93837E-09   -0.23094E-08    48   0.802E-04    0.892E-05
DAV:   6    -0.367046560471E+02    0.23101E-09   -0.15084E-08    48   0.465E-04
  50 F= -.36704656E+02 E0= -.36704656E+02  d E =0.475016E-06
damped:  g(F)=  0.000E+00 g(S)=  0.000E+00 dE (1.order)= 0.000E+00
 bond charge predicted
       N       E                     dE             d eps       ncg     rms          rms(c)
DAV:   1    -0.367046551792E+02    0.86810E-06   -0.46005E-05    48   0.630E-02    0.164E-03
DAV:   2    -0.367046553955E+02   -0.21631E-06   -0.23708E-06    48   0.153E-02    0.109E-03
DAV:   3    -0.367046554433E+02   -0.47762E-07   -0.29017E-07    48   0.470E-03    0.410E-04
DAV:   4    -0.367046554478E+02   -0.45459E-08   -0.74803E-08    48   0.210E-03    0.121E-04
DAV:   5    -0.367046554494E+02   -0.15805E-08   -0.30139E-08    48   0.101E-03    0.108E-04
DAV:   6    -0.367046554495E+02   -0.83901E-10   -0.17375E-08    48   0.584E-04
  51 F= -.36704655E+02 E0= -.36704655E+02  d E =0.597591E-06
damped:  g(F)=  0.000E+00 g(S)=  0.000E+00 dE (1.order)= 0.000E+00
 bond charge predicted
       N       E                     dE             d eps       ncg     rms          rms(c)
DAV:   1    -0.367046542862E+02    0.11632E-05   -0.71609E-05    48   0.787E-02    0.204E-03
DAV:   2    -0.367046546207E+02   -0.33454E-06   -0.36800E-06    48   0.191E-02    0.135E-03
DAV:   3    -0.367046546926E+02   -0.71836E-07   -0.44438E-07    48   0.586E-03    0.506E-04
DAV:   4    -0.367046546993E+02   -0.67394E-08   -0.10985E-07    48   0.261E-03    0.144E-04
DAV:   5    -0.367046547030E+02   -0.36839E-08   -0.40662E-08    48   0.127E-03    0.131E-04
DAV:   6    -0.367046547034E+02   -0.47294E-09   -0.20780E-08    48   0.726E-04
  52 F= -.36704655E+02 E0= -.36704655E+02  d E =0.746035E-06
damped:  g(F)=  0.000E+00 g(S)=  0.000E+00 dE (1.order)= 0.000E+00
 bond charge predicted
       N       E                     dE             d eps       ncg     rms          rms(c)
DAV:   1    -0.367046531766E+02    0.15263E-05   -0.10869E-04    48   0.969E-02    0.251E-03
DAV:   2    -0.367046536817E+02   -0.50510E-06   -0.55761E-06    48   0.235E-02    0.166E-03
DAV:   3    -0.367046537857E+02   -0.10400E-06   -0.66736E-07    48   0.721E-03    0.614E-04
DAV:   4    -0.367046537955E+02   -0.98098E-08   -0.16050E-07    48   0.321E-03    0.170E-04
DAV:   5    -0.367046538027E+02   -0.71204E-08   -0.55856E-08    48   0.156E-03    0.156E-04
DAV:   6    -0.367046538040E+02   -0.13354E-08   -0.25616E-08    48   0.893E-04
  53 F= -.36704654E+02 E0= -.36704654E+02  d E =0.899450E-06
damped:  g(F)=  0.000E+00 g(S)=  0.000E+00 dE (1.order)= 0.000E+00
 bond charge predicted
       N       E                     dE             d eps       ncg     rms          rms(c)
DAV:   1    -0.367046526680E+02    0.11347E-05   -0.16881E-04    80   0.118E-01    0.352E-03
DAV:   2    -0.367046526704E+02   -0.24426E-08   -0.11886E-06    48   0.954E-03    0.216E-03
DAV:   3    -0.367046527338E+02   -0.63361E-07   -0.21252E-07    48   0.406E-03    0.267E-04
DAV:   4    -0.367046527387E+02   -0.49486E-08   -0.57624E-08    48   0.172E-03    0.145E-04
DAV:   5    -0.367046527422E+02   -0.35157E-08   -0.24780E-08    48   0.877E-04    0.523E-05
DAV:   6    -0.367046527462E+02   -0.39201E-08   -0.16682E-08    48   0.493E-04
  54 F= -.36704653E+02 E0= -.36704653E+02  d E =0.105785E-05
damped:  g(F)=  0.000E+00 g(S)=  0.000E+00 dE (1.order)= 0.000E+00
 bond charge predicted
       N       E                     dE             d eps       ncg     rms          rms(c)
DAV:   1    -0.367046514255E+02    0.13167E-05   -0.23975E-04    80   0.140E-01    0.420E-03
DAV:   2    -0.367046514338E+02   -0.82497E-08   -0.16327E-06    48   0.112E-02    0.258E-03
DAV:   3    -0.367046515266E+02   -0.92785E-07   -0.28745E-07    48   0.476E-03    0.306E-04
DAV:   4    -0.367046515345E+02   -0.79719E-08   -0.73308E-08    48   0.200E-03    0.171E-04
DAV:   5    -0.367046515404E+02   -0.58403E-08   -0.29063E-08    48   0.101E-03    0.603E-05
DAV:   6    -0.367046515464E+02   -0.60116E-08   -0.18310E-08    48   0.571E-04
  55 F= -.36704652E+02 E0= -.36704652E+02  d E =0.119977E-05
damped:  g(F)=  0.000E+00 g(S)=  0.000E+00 dE (1.order)= 0.000E+00
 bond charge predicted
       N       E                     dE             d eps       ncg     rms          rms(c)
DAV:   1    -0.367046500356E+02    0.15047E-05   -0.33211E-04    96   0.164E-01    0.499E-03
DAV:   2    -0.367046500456E+02   -0.99859E-08   -0.22177E-06    48   0.131E-02    0.306E-03
DAV:   3    -0.367046501738E+02   -0.12819E-06   -0.39546E-07    48   0.560E-03    0.358E-04
DAV:   4    -0.367046501850E+02   -0.11169E-07   -0.97114E-08    48   0.235E-03    0.208E-04
DAV:   5    -0.367046501933E+02   -0.82939E-08   -0.35809E-08    48   0.120E-03    0.783E-05
DAV:   6    -0.367046502019E+02   -0.86459E-08   -0.21086E-08    48   0.691E-04
  56 F= -.36704650E+02 E0= -.36704650E+02  d E =0.134446E-05
damped:  g(F)=  0.000E+00 g(S)=  0.000E+00 dE (1.order)= 0.000E+00
 bond charge predicted
       N       E                     dE             d eps       ncg     rms          rms(c)
DAV:   1    -0.367046484876E+02    0.17057E-05   -0.44899E-04    96   0.190E-01    0.586E-03
DAV:   2    -0.367046484948E+02   -0.71816E-08   -0.29055E-06    48   0.151E-02    0.358E-03
DAV:   3    -0.367046486606E+02   -0.16577E-06   -0.52435E-07    48   0.644E-03    0.398E-04
DAV:   4    -0.367046486768E+02   -0.16211E-07   -0.12422E-07    48   0.269E-03    0.240E-04
DAV:   5    -0.367046486894E+02   -0.12626E-07   -0.43806E-08    48   0.137E-03    0.904E-05
DAV:   6    -0.367046487024E+02   -0.12978E-07   -0.24106E-08    48   0.787E-04
  57 F= -.36704649E+02 E0= -.36704649E+02  d E =0.149954E-05
damped:  g(F)=  0.000E+00 g(S)=  0.000E+00 dE (1.order)= 0.000E+00
 bond charge predicted
       N       E                     dE             d eps       ncg     rms          rms(c)
DAV:   1    -0.367046468002E+02    0.18892E-05   -0.59485E-04    96   0.218E-01    0.682E-03
DAV:   2    -0.367046468196E+02   -0.19360E-07   -0.37158E-06    48   0.171E-02    0.416E-03
DAV:   3    -0.367046470526E+02   -0.23301E-06   -0.67637E-07    48   0.730E-03    0.432E-04
DAV:   4    -0.367046470729E+02   -0.20320E-07   -0.15812E-07    48   0.306E-03    0.262E-04
DAV:   5    -0.367046470880E+02   -0.15103E-07   -0.53679E-08    48   0.157E-03    0.105E-04
DAV:   6    -0.367046471043E+02   -0.16271E-07   -0.28062E-08    48   0.908E-04
  58 F= -.36704647E+02 E0= -.36704647E+02  d E =0.159808E-05
damped:  g(F)=  0.000E+00 g(S)=  0.000E+00 dE (1.order)= 0.000E+00
 bond charge predicted
       N       E                     dE             d eps       ncg     rms          rms(c)
DAV:   1    -0.367046450462E+02    0.20418E-05   -0.77818E-04    96   0.247E-01    0.791E-03
DAV:   2    -0.367046450648E+02   -0.18651E-07   -0.46975E-06    48   0.193E-02    0.482E-03
DAV:   3    -0.367046453659E+02   -0.30108E-06   -0.86320E-07    48   0.824E-03    0.468E-04
DAV:   4    -0.367046453935E+02   -0.27574E-07   -0.19874E-07    48   0.347E-03    0.266E-04
DAV:   5    -0.367046454144E+02   -0.20854E-07   -0.65854E-08    48   0.178E-03    0.106E-04
DAV:   6    -0.367046454357E+02   -0.21335E-07   -0.31905E-08    48   0.101E-03
  59 F= -.36704645E+02 E0= -.36704645E+02  d E =0.166861E-05
damped:  g(F)=  0.000E+00 g(S)=  0.000E+00 dE (1.order)= 0.000E+00
 bond charge predicted
       N       E                     dE             d eps       ncg     rms          rms(c)
DAV:   1    -0.367046429520E+02    0.24624E-05   -0.10144E-03    96   0.284E-01    0.927E-03
DAV:   2    -0.367046429455E+02    0.64695E-08   -0.63292E-06    48   0.227E-02    0.563E-03
DAV:   3    -0.367046433481E+02   -0.40256E-06   -0.13277E-06    56   0.104E-02    0.818E-04
DAV:   4    -0.367046433819E+02   -0.33811E-07   -0.30495E-07    48   0.452E-03    0.415E-04
DAV:   5    -0.367046433978E+02   -0.15887E-07   -0.85189E-08    48   0.220E-03    0.201E-04
DAV:   6    -0.367046434225E+02   -0.24748E-07   -0.46353E-08    48   0.143E-03
  60 F= -.36704643E+02 E0= -.36704643E+02  d E =0.201319E-05
damped:  g(F)=  0.000E+00 g(S)=  0.000E+00 dE (1.order)= 0.000E+00
 bond charge predicted
       N       E                     dE             d eps       ncg     rms          rms(c)
DAV:   1    -0.367046376044E+02    0.57934E-05   -0.13437E-03    96   0.339E-01    0.128E-02
DAV:   2    -0.367046366793E+02    0.92509E-06   -0.13227E-05    64   0.356E-02    0.724E-03
DAV:   3    -0.367046366316E+02    0.47686E-07   -0.31565E-06    64   0.166E-02    0.264E-03
DAV:   4    -0.367046367971E+02   -0.16553E-06   -0.10299E-06    80   0.874E-03    0.880E-04
DAV:   5    -0.367046368268E+02   -0.29697E-07   -0.20161E-07    48   0.408E-03    0.337E-04
DAV:   6    -0.367046368646E+02   -0.37816E-07   -0.90447E-08    48   0.221E-03
  61 F= -.36704637E+02 E0= -.36704637E+02  d E =0.655785E-05
damped:  g(F)=  0.000E+00 g(S)=  0.000E+00 dE (1.order)= 0.000E+00
 bond charge predicted
       N       E                     dE             d eps       ncg     rms          rms(c)
DAV:   1    -0.367046437689E+02   -0.69421E-05   -0.16171E-04    80   0.113E-01    0.619E-03
DAV:   2    -0.367046432971E+02    0.47185E-06   -0.26626E-06    64   0.158E-02    0.296E-03
DAV:   3    -0.367046432582E+02    0.38807E-07   -0.76376E-07    64   0.801E-03    0.129E-03
DAV:   4    -0.367046433078E+02   -0.49521E-07   -0.32460E-07    48   0.482E-03    0.483E-04
DAV:   5    -0.367046433186E+02   -0.10865E-07   -0.59917E-08    56   0.207E-03    0.209E-04
DAV:   6    -0.367046433318E+02   -0.13207E-07   -0.25972E-08    48   0.109E-03
  62 F= -.36704643E+02 E0= -.36704643E+02  d E =-.646719E-05
damped:  g(F)=  0.000E+00 g(S)=  0.000E+00 dE (1.order)= 0.000E+00
 bond charge predicted
       N       E                     dE             d eps       ncg     rms          rms(c)
DAV:   1    -0.367046406185E+02    0.27002E-05   -0.21172E-04    80   0.129E-01    0.688E-03
DAV:   2    -0.367046400022E+02    0.61624E-06   -0.35240E-06    64   0.182E-02    0.333E-03
DAV:   3    -0.367046398753E+02    0.12689E-06   -0.98852E-07    64   0.907E-03    0.143E-03
DAV:   4    -0.367046398923E+02   -0.17015E-07   -0.40241E-07    48   0.540E-03    0.536E-04
DAV:   5    -0.367046398885E+02    0.38162E-08   -0.69418E-08    48   0.228E-03    0.228E-04
DAV:   6    -0.367046398922E+02   -0.36455E-08   -0.30595E-08    48   0.122E-03
  63 F= -.36704640E+02 E0= -.36704640E+02  d E =0.343967E-05
damped:  g(F)=  0.000E+00 g(S)=  0.000E+00 dE (1.order)= 0.000E+00
 bond charge predicted
       N       E                     dE             d eps       ncg     rms          rms(c)
DAV:   1    -0.367046414574E+02   -0.15689E-05   -0.63076E-06    48   0.227E-02    0.110E-03
DAV:   2    -0.367046414614E+02   -0.39820E-08   -0.30901E-07    48   0.536E-03    0.580E-04
DAV:   3    -0.367046414655E+02   -0.40529E-08   -0.41364E-08    48   0.161E-03    0.325E-04
DAV:   4    -0.367046414788E+02   -0.13304E-07   -0.29444E-08    48   0.119E-03    0.107E-04
DAV:   5    -0.367046414850E+02   -0.62178E-08   -0.15245E-08    48   0.521E-04    0.727E-05
DAV:   6    -0.367046414923E+02   -0.73078E-08   -0.12845E-08    48   0.248E-04
  64 F= -.36704641E+02 E0= -.36704641E+02  d E =-.160012E-05
damped:  g(F)=  0.000E+00 g(S)=  0.000E+00 dE (1.order)= 0.000E+00
 bond charge predicted
       N       E                     dE             d eps       ncg     rms          rms(c)
DAV:   1    -0.367046433902E+02   -0.19052E-05   -0.20107E-05    48   0.406E-02    0.195E-03
DAV:   2    -0.367046433945E+02   -0.42543E-08   -0.94506E-07    48   0.950E-03    0.103E-03
DAV:   3    -0.367046433761E+02    0.18382E-07   -0.10491E-07    48   0.286E-03    0.579E-04
DAV:   4    -0.367046433729E+02    0.31248E-08   -0.70856E-08    48   0.217E-03    0.197E-04
DAV:   5    -0.367046433770E+02   -0.40852E-08   -0.21992E-08    48   0.954E-04    0.129E-04
DAV:   6    -0.367046433796E+02   -0.25364E-08   -0.14245E-08    48   0.459E-04
  65 F= -.36704643E+02 E0= -.36704643E+02  d E =-.188727E-05
damped:  g(F)=  0.000E+00 g(S)=  0.000E+00 dE (1.order)= 0.000E+00
 bond charge predicted
       N       E                     dE             d eps       ncg     rms          rms(c)
DAV:   1    -0.367046441446E+02   -0.76756E-06   -0.30426E-05    48   0.499E-02    0.238E-03
DAV:   2    -0.367046441547E+02   -0.10075E-07   -0.14320E-06    48   0.117E-02    0.127E-03
DAV:   3    -0.367046441197E+02    0.34934E-07   -0.15336E-07    48   0.353E-03    0.710E-04
DAV:   4    -0.367046441056E+02    0.14107E-07   -0.10142E-07    48   0.267E-03    0.242E-04
DAV:   5    -0.367046441104E+02   -0.47268E-08   -0.27227E-08    48   0.118E-03    0.160E-04
DAV:   6    -0.367046441126E+02   -0.22200E-08   -0.15536E-08    48   0.568E-04
  66 F= -.36704644E+02 E0= -.36704644E+02  d E =-.733008E-06
damped:  g(F)=  0.000E+00 g(S)=  0.000E+00 dE (1.order)= 0.000E+00
 bond charge predicted
       N       E                     dE             d eps       ncg     rms          rms(c)
DAV:   1    -0.367046441227E+02   -0.12389E-07   -0.17185E-08    48   0.719E-04    0.359E-05
DAV:   2    -0.367046441240E+02   -0.12644E-08   -0.11656E-08    48   0.228E-04    0.208E-05
DAV:   3    -0.367046441255E+02   -0.14934E-08   -0.11149E-08    48   0.103E-04    0.868E-06
DAV:   4    -0.367046441271E+02   -0.15923E-08   -0.11012E-08    48   0.546E-05    0.460E-06
DAV:   5    -0.367046441290E+02   -0.19460E-08   -0.10959E-08    48   0.326E-05    0.222E-06
DAV:   6    -0.367046441305E+02   -0.14622E-08   -0.10880E-08    48   0.247E-05
  67 F= -.36704644E+02 E0= -.36704644E+02  d E =-.179272E-07
damped:  g(F)=  0.000E+00 g(S)=  0.000E+00 dE (1.order)= 0.000E+00
 bond charge predicted
       N       E                     dE             d eps       ncg     rms          rms(c)
DAV:   1    -0.367046441494E+02   -0.20406E-07   -0.30925E-08    48   0.127E-03    0.321E-05
DAV:   2    -0.367046441500E+02   -0.55911E-09   -0.11808E-08    48   0.299E-04    0.212E-05
DAV:   3    -0.367046441503E+02   -0.31355E-09   -0.10949E-08    48   0.878E-05    0.132E-05
DAV:   4    -0.367046441509E+02   -0.60663E-09   -0.10941E-08    48   0.516E-05    0.367E-06
DAV:   5    -0.367046441508E+02    0.87084E-10   -0.10895E-08    48   0.243E-05    0.302E-06
DAV:   6    -0.367046441511E+02   -0.23692E-09   -0.10902E-08    48   0.128E-05
  68 F= -.36704644E+02 E0= -.36704644E+02  d E =-.205729E-07
damped:  g(F)=  0.000E+00 g(S)=  0.000E+00 dE (1.order)= 0.000E+00
 bond charge predicted
       N       E                     dE             d eps       ncg     rms          rms(c)
DAV:   1    -0.367046441765E+02   -0.25678E-07   -0.52591E-08    48   0.182E-03    0.466E-05
DAV:   2    -0.367046441769E+02   -0.38881E-09   -0.12899E-08    48   0.430E-04    0.307E-05
DAV:   3    -0.367046441774E+02   -0.53979E-09   -0.11181E-08    48   0.126E-04    0.189E-05
DAV:   4    -0.367046441773E+02    0.17599E-09   -0.11014E-08    48   0.732E-05    0.527E-06
DAV:   5    -0.367046441775E+02   -0.20600E-09   -0.10972E-08    48   0.339E-05    0.428E-06
DAV:   6    -0.367046441775E+02   -0.74351E-10   -0.11000E-08    48   0.174E-05
  69 F= -.36704644E+02 E0= -.36704644E+02  d E =-.264741E-07
damped:  g(F)=  0.000E+00 g(S)=  0.000E+00 dE (1.order)= 0.000E+00
 bond charge predicted
       N       E                     dE             d eps       ncg     rms          rms(c)
DAV:   1    -0.367046442090E+02   -0.31495E-07   -0.78021E-08    48   0.231E-03    0.583E-05
DAV:   2    -0.367046442097E+02   -0.69576E-09   -0.14182E-08    48   0.545E-04    0.385E-05
DAV:   3    -0.367046442098E+02   -0.92086E-10   -0.11359E-08    48   0.160E-04    0.238E-05
DAV:   4    -0.367046442102E+02   -0.45293E-09   -0.11175E-08    48   0.920E-05    0.654E-06
DAV:   5    -0.367046442101E+02    0.12164E-09   -0.11082E-08    48   0.426E-05    0.535E-06
DAV:   6    -0.367046442100E+02    0.85720E-10   -0.11087E-08    48   0.219E-05
  70 F= -.36704644E+02 E0= -.36704644E+02  d E =-.324537E-07
damped:  g(F)=  0.000E+00 g(S)=  0.000E+00 dE (1.order)= 0.000E+00
 bond charge predicted
       N       E                     dE             d eps       ncg     rms          rms(c)
DAV:   1    -0.367046442461E+02   -0.36023E-07   -0.10311E-07    48   0.271E-03    0.671E-05
DAV:   2    -0.367046442469E+02   -0.81923E-09   -0.15411E-08    48   0.639E-04    0.444E-05
DAV:   3    -0.367046442472E+02   -0.28103E-09   -0.11587E-08    48   0.188E-04    0.274E-05
DAV:   4    -0.367046442474E+02   -0.22646E-09   -0.11254E-08    48   0.107E-04    0.740E-06
DAV:   5    -0.367046442475E+02   -0.41609E-10   -0.11146E-08    48   0.494E-05    0.611E-06
DAV:   6    -0.367046442473E+02    0.13301E-09   -0.11125E-08    48   0.255E-05
  71 F= -.36704644E+02 E0= -.36704644E+02  d E =-.373443E-07
damped:  g(F)=  0.000E+00 g(S)=  0.000E+00 dE (1.order)= 0.000E+00
 bond charge predicted
       N       E                     dE             d eps       ncg     rms          rms(c)
DAV:   1    -0.367046442863E+02   -0.38862E-07   -0.12331E-07    48   0.300E-03    0.722E-05
DAV:   2    -0.367046442873E+02   -0.97930E-09   -0.16391E-08    48   0.707E-04    0.480E-05
DAV:   3    -0.367046442875E+02   -0.14006E-09   -0.11715E-08    48   0.208E-04    0.296E-05
DAV:   4    -0.367046442877E+02   -0.19531E-09   -0.11284E-08    48   0.115E-04    0.774E-06
DAV:   5    -0.367046442877E+02   -0.18417E-10   -0.11172E-08    48   0.535E-05    0.649E-06
DAV:   6    -0.367046442876E+02    0.45020E-10   -0.11131E-08    48   0.279E-05
  72 F= -.36704644E+02 E0= -.36704644E+02  d E =-.402828E-07
damped:  g(F)=  0.000E+00 g(S)=  0.000E+00 dE (1.order)= 0.000E+00
 bond charge predicted
       N       E                     dE             d eps       ncg     rms          rms(c)
DAV:   1    -0.367046443323E+02   -0.44578E-07   -0.16376E-07    48   0.351E-03    0.816E-05
DAV:   2    -0.367046443333E+02   -0.10398E-08   -0.18270E-08    48   0.828E-04    0.544E-05
DAV:   3    -0.367046443336E+02   -0.30263E-09   -0.11972E-08    48   0.243E-04    0.332E-05
DAV:   4    -0.367046443341E+02   -0.47544E-09   -0.11365E-08    48   0.131E-04    0.831E-06
DAV:   5    -0.367046443338E+02    0.23965E-09   -0.11202E-08    48   0.607E-05    0.712E-06
DAV:   6    -0.367046443337E+02    0.14893E-09   -0.11176E-08    48   0.320E-05
  73 F= -.36704644E+02 E0= -.36704644E+02  d E =-.460524E-07
damped:  g(F)=  0.000E+00 g(S)=  0.000E+00 dE (1.order)= 0.000E+00
 bond charge predicted
       N       E                     dE             d eps       ncg     rms          rms(c)
DAV:   1    -0.367046443827E+02   -0.48840E-07   -0.20556E-07    48   0.399E-03    0.891E-05
DAV:   2    -0.367046443840E+02   -0.13647E-08   -0.20286E-08    48   0.942E-04    0.594E-05
DAV:   3    -0.367046443842E+02   -0.19168E-09   -0.12171E-08    48   0.276E-04    0.355E-05
DAV:   4    -0.367046443846E+02   -0.35084E-09   -0.11412E-08    48   0.143E-04    0.835E-06
DAV:   5    -0.367046443846E+02   -0.20236E-10   -0.11222E-08    48   0.664E-05    0.737E-06
DAV:   6    -0.367046443845E+02    0.12869E-09   -0.11173E-08    48   0.357E-05
  74 F= -.36704644E+02 E0= -.36704644E+02  d E =-.507872E-07
damped:  g(F)=  0.000E+00 g(S)=  0.000E+00 dE (1.order)= 0.000E+00
 bond charge predicted
       N       E                     dE             d eps       ncg     rms          rms(c)
DAV:   1    -0.367046444377E+02   -0.53061E-07   -0.25102E-07    48   0.448E-03    0.967E-05
DAV:   2    -0.367046444390E+02   -0.13579E-08   -0.22464E-08    48   0.106E-03    0.642E-05
DAV:   3    -0.367046444393E+02   -0.28808E-09   -0.12414E-08    48   0.311E-04    0.365E-05
DAV:   4    -0.367046444395E+02   -0.23965E-09   -0.11443E-08    48   0.153E-04    0.812E-06
DAV:   5    -0.367046444394E+02    0.11028E-09   -0.11246E-08    48   0.715E-05    0.736E-06
DAV:   6    -0.367046444396E+02   -0.13097E-09   -0.11169E-08    48   0.393E-05
  75 F= -.36704644E+02 E0= -.36704644E+02  d E =-.550964E-07
damped:  g(F)=  0.000E+00 g(S)=  0.000E+00 dE (1.order)= 0.000E+00
 bond charge predicted
       N       E                     dE             d eps       ncg     rms          rms(c)
DAV:   1    -0.367046444972E+02   -0.57743E-07   -0.31215E-07    48   0.508E-03    0.109E-04
DAV:   2    -0.367046444985E+02   -0.13320E-08   -0.25413E-08    48   0.120E-03    0.719E-05
DAV:   3    -0.367046444988E+02   -0.31582E-09   -0.12757E-08    48   0.353E-04    0.376E-05
DAV:   4    -0.367046444992E+02   -0.38654E-09   -0.11503E-08    48   0.166E-04    0.846E-06
DAV:   5    -0.367046444990E+02    0.20873E-09   -0.11239E-08    48   0.789E-05    0.772E-06
DAV:   6    -0.367046444990E+02    0.88676E-11   -0.11191E-08    48   0.441E-05
  76 F= -.36704644E+02 E0= -.36704644E+02  d E =-.594285E-07
damped:  g(F)=  0.000E+00 g(S)=  0.000E+00 dE (1.order)= 0.000E+00
 bond charge predicted
       N       E                     dE             d eps       ncg     rms          rms(c)
DAV:   1    -0.367046445627E+02   -0.63722E-07   -0.41505E-07    48   0.595E-03    0.130E-04
DAV:   2    -0.367046445643E+02   -0.15425E-08   -0.30483E-08    48   0.141E-03    0.861E-05
DAV:   3    -0.367046445645E+02   -0.25216E-09   -0.13290E-08    48   0.416E-04    0.426E-05
DAV:   4    -0.367046445646E+02   -0.87766E-10   -0.11636E-08    48   0.194E-04    0.104E-05
DAV:   5    -0.367046445646E+02   -0.65938E-11   -0.11240E-08    48   0.926E-05    0.930E-06
DAV:   6    -0.367046445645E+02    0.11914E-09   -0.11140E-08    48   0.518E-05
  77 F= -.36704645E+02 E0= -.36704645E+02  d E =-.655008E-07
damped:  g(F)=  0.000E+00 g(S)=  0.000E+00 dE (1.order)= 0.000E+00
 bond charge predicted
       N       E                     dE             d eps       ncg     rms          rms(c)
DAV:   1    -0.367046446369E+02   -0.72287E-07   -0.60085E-07    48   0.724E-03    0.164E-04
DAV:   2    -0.367046446389E+02   -0.20084E-08   -0.39708E-08    48   0.172E-03    0.108E-04
DAV:   3    -0.367046446391E+02   -0.15734E-09   -0.14351E-08    48   0.510E-04    0.543E-05
DAV:   4    -0.367046446392E+02   -0.17587E-09   -0.11871E-08    48   0.242E-04    0.141E-05
DAV:   5    -0.367046446392E+02    0.20236E-10   -0.11340E-08    48   0.115E-04    0.123E-05
DAV:   6    -0.367046446393E+02   -0.38654E-10   -0.11161E-08    48   0.637E-05
  78 F= -.36704645E+02 E0= -.36704645E+02  d E =-.747666E-07
damped:  g(F)=  0.000E+00 g(S)=  0.000E+00 dE (1.order)= 0.000E+00
 bond charge predicted
       N       E                     dE             d eps       ncg     rms          rms(c)
DAV:   1    -0.367046447261E+02   -0.86910E-07   -0.93649E-07    48   0.908E-03    0.207E-04
DAV:   2    -0.367046447293E+02   -0.32032E-08   -0.56093E-08    48   0.216E-03    0.137E-04
DAV:   3    -0.367046447296E+02   -0.24215E-09   -0.16236E-08    48   0.641E-04    0.705E-05
DAV:   4    -0.367046447294E+02    0.14825E-09   -0.12306E-08    48   0.309E-04    0.184E-05
DAV:   5    -0.367046447298E+02   -0.33106E-09   -0.11438E-08    48   0.146E-04    0.159E-05
DAV:   6    -0.367046447298E+02   -0.20918E-10   -0.11204E-08    48   0.803E-05
  79 F= -.36704645E+02 E0= -.36704645E+02  d E =-.905205E-07
damped:  g(F)=  0.000E+00 g(S)=  0.000E+00 dE (1.order)= 0.000E+00
 bond charge predicted
       N       E                     dE             d eps       ncg     rms          rms(c)
DAV:   1    -0.367046448467E+02   -0.11697E-06   -0.15569E-06    48   0.116E-02    0.259E-04
DAV:   2    -0.367046448527E+02   -0.59265E-08   -0.85299E-08    48   0.276E-03    0.171E-04
DAV:   3    -0.367046448530E+02   -0.39654E-09   -0.19500E-08    48   0.815E-04    0.880E-05
DAV:   4    -0.367046448533E+02   -0.21100E-09   -0.13078E-08    48   0.389E-04    0.219E-05
DAV:   5    -0.367046448534E+02   -0.16257E-09   -0.11698E-08    48   0.184E-04    0.194E-05
DAV:   6    -0.367046448535E+02   -0.39563E-10   -0.11258E-08    48   0.102E-04
  80 F= -.36704645E+02 E0= -.36704645E+02  d E =-.123682E-06
damped:  g(F)=  0.000E+00 g(S)=  0.000E+00 dE (1.order)= 0.000E+00
 bond charge predicted
       N       E                     dE             d eps       ncg     rms          rms(c)
DAV:   1    -0.367046450081E+02   -0.15467E-06   -0.25279E-06    48   0.147E-02    0.318E-04
DAV:   2    -0.367046450183E+02   -0.10190E-07   -0.13061E-07    48   0.349E-03    0.210E-04
DAV:   3    -0.367046450202E+02   -0.18870E-08   -0.24552E-08    48   0.102E-03    0.106E-04
DAV:   4    -0.367046450204E+02   -0.17917E-09   -0.14318E-08    48   0.479E-04    0.248E-05
DAV:   5    -0.367046450204E+02   -0.67757E-10   -0.12104E-08    48   0.228E-04    0.223E-05
DAV:   6    -0.367046450204E+02    0.45702E-10   -0.11431E-08    48   0.127E-04
  81 F= -.36704645E+02 E0= -.36704645E+02  d E =-.166913E-06
damped:  g(F)=  0.000E+00 g(S)=  0.000E+00 dE (1.order)= 0.000E+00
 bond charge predicted
       N       E                     dE             d eps       ncg     rms          rms(c)
DAV:   1    -0.367046452240E+02   -0.20357E-06   -0.41320E-06    48   0.187E-02    0.398E-04
DAV:   2    -0.367046452413E+02   -0.17325E-07   -0.20552E-07    48   0.443E-03    0.263E-04
DAV:   3    -0.367046452446E+02   -0.33338E-08   -0.32976E-08    48   0.129E-03    0.134E-04
DAV:   4    -0.367046452455E+02   -0.90199E-09   -0.16275E-08    48   0.607E-04    0.302E-05
DAV:   5    -0.367046452456E+02   -0.93223E-11   -0.12744E-08    48   0.288E-04    0.276E-05
DAV:   6    -0.367046452454E+02    0.14484E-09   -0.11625E-08    48   0.161E-04
  82 F= -.36704645E+02 E0= -.36704645E+02  d E =-.225037E-06
damped:  g(F)=  0.000E+00 g(S)=  0.000E+00 dE (1.order)= 0.000E+00
 bond charge predicted
       N       E                     dE             d eps       ncg     rms          rms(c)
DAV:   1    -0.367046455034E+02   -0.25785E-06   -0.67247E-06    48   0.238E-02    0.504E-04
DAV:   2    -0.367046455319E+02   -0.28477E-07   -0.32683E-07    48   0.561E-03    0.333E-04
DAV:   3    -0.367046455373E+02   -0.54606E-08   -0.46611E-08    48   0.164E-03    0.174E-04
DAV:   4    -0.367046455388E+02   -0.14986E-08   -0.19555E-08    48   0.778E-04    0.391E-05
DAV:   5    -0.367046455389E+02   -0.78444E-10   -0.13792E-08    48   0.368E-04    0.359E-05
DAV:   6    -0.367046455387E+02    0.22919E-09   -0.11989E-08    48   0.204E-04
  83 F= -.36704646E+02 E0= -.36704646E+02  d E =-.293276E-06
damped:  g(F)=  0.000E+00 g(S)=  0.000E+00 dE (1.order)= 0.000E+00
 bond charge predicted
       N       E                     dE             d eps       ncg     rms          rms(c)
DAV:   1    -0.367046458559E+02   -0.31702E-06   -0.10701E-05    48   0.298E-02    0.626E-04
DAV:   2    -0.367046459008E+02   -0.44854E-07   -0.51188E-07    48   0.704E-03    0.413E-04
DAV:   3    -0.367046459092E+02   -0.84335E-08   -0.67208E-08    48   0.205E-03    0.216E-04
DAV:   4    -0.367046459109E+02   -0.17117E-08   -0.24457E-08    48   0.973E-04    0.481E-05
DAV:   5    -0.367046459111E+02   -0.15098E-09   -0.15349E-08    48   0.460E-04    0.444E-05
DAV:   6    -0.367046459111E+02   -0.28876E-10   -0.12461E-08    48   0.255E-04
  84 F= -.36704646E+02 E0= -.36704646E+02  d E =-.372432E-06
damped:  g(F)=  0.000E+00 g(S)=  0.000E+00 dE (1.order)= 0.000E+00
 bond charge predicted
       N       E                     dE             d eps       ncg     rms          rms(c)
DAV:   1    -0.367046462971E+02   -0.38600E-06   -0.16681E-05    48   0.371E-02    0.772E-04
DAV:   2    -0.367046463659E+02   -0.68789E-07   -0.78976E-07    48   0.875E-03    0.510E-04
DAV:   3    -0.367046463779E+02   -0.12001E-07   -0.98212E-08    48   0.254E-03    0.265E-04
DAV:   4    -0.367046463805E+02   -0.25957E-08   -0.31674E-08    48   0.120E-03    0.584E-05
DAV:   5    -0.367046463810E+02   -0.50932E-09   -0.17683E-08    48   0.570E-04    0.541E-05
DAV:   6    -0.367046463807E+02    0.24261E-09   -0.13159E-08    48   0.316E-04
  85 F= -.36704646E+02 E0= -.36704646E+02  d E =-.469627E-06
damped:  g(F)=  0.000E+00 g(S)=  0.000E+00 dE (1.order)= 0.000E+00
 bond charge predicted
       N       E                     dE             d eps       ncg     rms          rms(c)
DAV:   1    -0.367046468359E+02   -0.45493E-06   -0.25634E-05    48   0.459E-02    0.955E-04
DAV:   2    -0.367046469406E+02   -0.10465E-06   -0.12075E-06    48   0.108E-02    0.631E-04
DAV:   3    -0.367046469582E+02   -0.17621E-07   -0.14499E-07    48   0.314E-03    0.331E-04
DAV:   4    -0.367046469613E+02   -0.30802E-08   -0.42852E-08    48   0.150E-03    0.732E-05
DAV:   5    -0.367046469624E+02   -0.10814E-08   -0.21213E-08    48   0.708E-04    0.679E-05
DAV:   6    -0.367046469622E+02    0.12801E-09   -0.14278E-08    48   0.392E-04
  86 F= -.36704647E+02 E0= -.36704647E+02  d E =-.581480E-06
damped:  g(F)=  0.000E+00 g(S)=  0.000E+00 dE (1.order)= 0.000E+00
 bond charge predicted
       N       E                     dE             d eps       ncg     rms          rms(c)
DAV:   1    -0.367046474824E+02   -0.52008E-06   -0.38230E-05    48   0.560E-02    0.116E-03
DAV:   2    -0.367046476396E+02   -0.15713E-06   -0.17953E-06    48   0.132E-02    0.767E-04
DAV:   3    -0.367046476669E+02   -0.27387E-07   -0.21077E-07    48   0.384E-03    0.400E-04
DAV:   4    -0.367046476723E+02   -0.54006E-08   -0.58346E-08    48   0.182E-03    0.881E-05
DAV:   5    -0.367046476734E+02   -0.11009E-08   -0.26195E-08    48   0.863E-04    0.819E-05
DAV:   6    -0.367046476731E+02    0.34743E-09   -0.15844E-08    48   0.478E-04
  87 F= -.36704648E+02 E0= -.36704648E+02  d E =-.710875E-06
damped:  g(F)=  0.000E+00 g(S)=  0.000E+00 dE (1.order)= 0.000E+00
 bond charge predicted
       N       E                     dE             d eps       ncg     rms          rms(c)
DAV:   1    -0.367046482516E+02   -0.57814E-06   -0.55608E-05    48   0.677E-02    0.141E-03
DAV:   2    -0.367046484825E+02   -0.23090E-06   -0.26126E-06    48   0.160E-02    0.929E-04
DAV:   3    -0.367046485238E+02   -0.41313E-07   -0.30272E-07    48   0.464E-03    0.485E-04
DAV:   4    -0.367046485317E+02   -0.79242E-08   -0.80214E-08    48   0.221E-03    0.108E-04
DAV:   5    -0.367046485332E+02   -0.14791E-08   -0.33232E-08    48   0.105E-03    0.999E-05
DAV:   6    -0.367046485327E+02    0.51341E-09   -0.18171E-08    48   0.580E-04
  88 F= -.36704649E+02 E0= -.36704649E+02  d E =-.859591E-06
damped:  g(F)=  0.000E+00 g(S)=  0.000E+00 dE (1.order)= 0.000E+00
 bond charge predicted
       N       E                     dE             d eps       ncg     rms          rms(c)
DAV:   1    -0.367046491431E+02   -0.60987E-06   -0.78564E-05    48   0.808E-02    0.168E-03
DAV:   2    -0.367046494703E+02   -0.32718E-06   -0.36990E-06    48   0.191E-02    0.111E-03
DAV:   3    -0.367046495279E+02   -0.57678E-07   -0.42527E-07    48   0.555E-03    0.575E-04
DAV:   4    -0.367046495390E+02   -0.11092E-07   -0.10913E-07    48   0.263E-03    0.128E-04
DAV:   5    -0.367046495412E+02   -0.21851E-08   -0.42548E-08    48   0.125E-03    0.119E-04
DAV:   6    -0.367046495407E+02    0.53433E-09   -0.21171E-08    48   0.695E-04
  89 F= -.36704650E+02 E0= -.36704650E+02  d E =-.100799E-05
damped:  g(F)=  0.000E+00 g(S)=  0.000E+00 dE (1.order)= 0.000E+00
 bond charge predicted
       N       E                     dE             d eps       ncg     rms          rms(c)
DAV:   1    -0.367046501680E+02   -0.62676E-06   -0.11144E-04    48   0.966E-02    0.202E-03
DAV:   2    -0.367046506326E+02   -0.46462E-06   -0.52615E-06    48   0.228E-02    0.133E-03
DAV:   3    -0.367046507125E+02   -0.79923E-07   -0.60188E-07    48   0.666E-03    0.691E-04
DAV:   4    -0.367046507276E+02   -0.15045E-07   -0.15110E-07    48   0.315E-03    0.155E-04
DAV:   5    -0.367046507311E+02   -0.35271E-08   -0.55851E-08    48   0.150E-03    0.143E-04
DAV:   6    -0.367046507306E+02    0.46737E-09   -0.25389E-08    48   0.833E-04
  90 F= -.36704651E+02 E0= -.36704651E+02  d E =-.118995E-05
damped:  g(F)=  0.000E+00 g(S)=  0.000E+00 dE (1.order)= 0.000E+00
 bond charge predicted
       N       E                     dE             d eps       ncg     rms          rms(c)
DAV:   1    -0.367046520253E+02   -0.12942E-05   -0.16431E-04    80   0.115E-01    0.261E-03
DAV:   2    -0.367046520910E+02   -0.65642E-07   -0.17538E-06    48   0.107E-02    0.170E-03
DAV:   3    -0.367046521141E+02   -0.23130E-07   -0.23436E-07    48   0.419E-03    0.477E-04
DAV:   4    -0.367046521242E+02   -0.10098E-07   -0.70429E-08    48   0.191E-03    0.177E-04
DAV:   5    -0.367046521279E+02   -0.36791E-08   -0.26161E-08    48   0.897E-04    0.671E-05
DAV:   6    -0.367046521331E+02   -0.52644E-08   -0.17085E-08    48   0.466E-04
  91 F= -.36704652E+02 E0= -.36704652E+02  d E =-.140252E-05
damped:  g(F)=  0.000E+00 g(S)=  0.000E+00 dE (1.order)= 0.000E+00
 bond charge predicted
       N       E                     dE             d eps       ncg     rms          rms(c)
DAV:   1    -0.367046536518E+02   -0.15239E-05   -0.23490E-04    96   0.138E-01    0.314E-03
DAV:   2    -0.367046537449E+02   -0.93113E-07   -0.24545E-06    48   0.127E-02    0.205E-03
DAV:   3    -0.367046537798E+02   -0.34883E-07   -0.32053E-07    48   0.497E-03    0.563E-04
DAV:   4    -0.367046537956E+02   -0.15813E-07   -0.92022E-08    48   0.225E-03    0.210E-04
DAV:   5    -0.367046538016E+02   -0.59345E-08   -0.31105E-08    48   0.105E-03    0.809E-05
DAV:   6    -0.367046538085E+02   -0.69585E-08   -0.18969E-08    48   0.543E-04
  92 F= -.36704654E+02 E0= -.36704654E+02  d E =-.167536E-05
damped:  g(F)=  0.000E+00 g(S)=  0.000E+00 dE (1.order)= 0.000E+00
 bond charge predicted
       N       E                     dE             d eps       ncg     rms          rms(c)
DAV:   1    -0.367046555616E+02   -0.17600E-05   -0.33726E-04    96   0.166E-01    0.380E-03
DAV:   2    -0.367046557016E+02   -0.13998E-06   -0.34955E-06    48   0.152E-02    0.248E-03
DAV:   3    -0.367046557585E+02   -0.56928E-07   -0.45714E-07    48   0.598E-03    0.680E-04
DAV:   4    -0.367046557810E+02   -0.22497E-07   -0.12786E-07    48   0.272E-03    0.258E-04
DAV:   5    -0.367046557865E+02   -0.54813E-08   -0.39719E-08    48   0.127E-03    0.991E-05
DAV:   6    -0.367046557943E+02   -0.78271E-08   -0.22311E-08    48   0.660E-04
  93 F= -.36704656E+02 E0= -.36704656E+02  d E =-.198579E-05
damped:  g(F)=  0.000E+00 g(S)=  0.000E+00 dE (1.order)= 0.000E+00
 bond charge predicted
       N       E                     dE             d eps       ncg     rms          rms(c)
DAV:   1    -0.367046576985E+02   -0.19120E-05   -0.49112E-04    96   0.201E-01    0.472E-03
DAV:   2    -0.367046578685E+02   -0.16999E-06   -0.51604E-06    48   0.186E-02    0.305E-03
DAV:   3    -0.367046579159E+02   -0.47402E-07   -0.69139E-07    48   0.741E-03    0.908E-04
DAV:   4    -0.367046579496E+02   -0.33721E-07   -0.19634E-07    48   0.349E-03    0.343E-04
DAV:   5    -0.367046579588E+02   -0.91804E-08   -0.54527E-08    48   0.162E-03    0.144E-04
DAV:   6    -0.367046579704E+02   -0.11639E-07   -0.27874E-08    48   0.846E-04
  94 F= -.36704658E+02 E0= -.36704658E+02  d E =-.217613E-05
damped:  g(F)=  0.000E+00 g(S)=  0.000E+00 dE (1.order)= 0.000E+00
 bond charge predicted
       N       E                     dE             d eps       ncg     rms          rms(c)
DAV:   1    -0.367046588547E+02   -0.89590E-06   -0.76655E-04    96   0.253E-01    0.690E-03
DAV:   2    -0.367046589480E+02   -0.93310E-07   -0.90424E-06    48   0.256E-02    0.429E-03
DAV:   3    -0.367046589475E+02    0.48647E-09   -0.14071E-06    64   0.108E-02    0.171E-03
DAV:   4    -0.367046590398E+02   -0.92238E-07   -0.51333E-07    48   0.607E-03    0.605E-04
DAV:   5    -0.367046590439E+02   -0.41807E-08   -0.11202E-07    48   0.274E-03    0.261E-04
DAV:   6    -0.367046590607E+02   -0.16766E-07   -0.46137E-08    48   0.135E-03
  95 F= -.36704659E+02 E0= -.36704659E+02  d E =-.109027E-05
damped:  g(F)=  0.000E+00 g(S)=  0.000E+00 dE (1.order)= 0.000E+00
 bond charge predicted
       N       E                     dE             d eps       ncg     rms          rms(c)
DAV:   1    -0.367046609956E+02   -0.19516E-05   -0.73087E-05    48   0.775E-02    0.373E-03
DAV:   2    -0.367046610509E+02   -0.55384E-07   -0.34129E-06    48   0.182E-02    0.197E-03
DAV:   3    -0.367046610017E+02    0.49217E-07   -0.34780E-07    48   0.543E-03    0.111E-03
DAV:   4    -0.367046610097E+02   -0.79467E-08   -0.22512E-07    48   0.410E-03    0.372E-04
DAV:   5    -0.367046610279E+02   -0.18271E-07   -0.51021E-08    48   0.181E-03    0.246E-04
DAV:   6    -0.367046610493E+02   -0.21349E-07   -0.22972E-08    48   0.869E-04
  96 F= -.36704661E+02 E0= -.36704661E+02  d E =-.198858E-05
damped:  g(F)=  0.000E+00 g(S)=  0.000E+00 dE (1.order)= 0.000E+00
 bond charge predicted
       N       E                     dE             d eps       ncg     rms          rms(c)
DAV:   1    -0.367046610900E+02   -0.62100E-07   -0.60332E-08    48   0.208E-03    0.720E-05
DAV:   2    -0.367046611018E+02   -0.11721E-07   -0.15042E-08    48   0.546E-04    0.423E-05
DAV:   3    -0.367046611142E+02   -0.12455E-07   -0.12321E-08    48   0.203E-04    0.249E-05
DAV:   4    -0.367046611304E+02   -0.16167E-07   -0.11660E-08    48   0.108E-04    0.972E-06
DAV:   5    -0.367046611430E+02   -0.12593E-07   -0.11282E-08    48   0.681E-05    0.546E-06
DAV:   6    -0.367046611549E+02   -0.11966E-07   -0.10997E-08    48   0.521E-05
  97 F= -.36704661E+02 E0= -.36704661E+02  d E =-.105653E-06
damped:  g(F)=  0.000E+00 g(S)=  0.000E+00 dE (1.order)= 0.000E+00
 bond charge predicted
       N       E                     dE             d eps       ncg     rms          rms(c)
DAV:   1    -0.367046612061E+02   -0.63139E-07   -0.17624E-07    48   0.381E-03    0.107E-04
DAV:   2    -0.367046612096E+02   -0.35191E-08   -0.18768E-08    48   0.899E-04    0.680E-05
DAV:   3    -0.367046612123E+02   -0.27123E-08   -0.11620E-08    48   0.272E-04    0.416E-05
DAV:   4    -0.367046612154E+02   -0.30777E-08   -0.11049E-08    48   0.159E-04    0.117E-05
DAV:   5    -0.367046612158E+02   -0.38790E-09   -0.10790E-08    48   0.732E-05    0.921E-06
DAV:   6    -0.367046612165E+02   -0.70600E-09   -0.10763E-08    48   0.379E-05
[...]
DAV:   6    -0.367046642002E+02    0.57298E-10   -0.15346E-08    48   0.472E-04
 110 F= -.36704664E+02 E0= -.36704664E+02  d E =-.545278E-06
damped:  g(F)=  0.000E+00 g(S)=  0.000E+00 dE (1.order)= 0.000E+00
 bond charge predicted
       N       E                     dE             d eps       ncg     rms          rms(c)
DAV:   1    -0.367046645918E+02   -0.39151E-06   -0.50017E-05    48   0.664E-02    0.149E-03
DAV:   2    -0.367046648077E+02   -0.21590E-06   -0.24414E-06    48   0.158E-02    0.982E-04
DAV:   3    -0.367046648530E+02   -0.45360E-07   -0.28839E-07    48   0.468E-03    0.473E-04
DAV:   4    -0.367046648606E+02   -0.75413E-08   -0.75817E-08    48   0.216E-03    0.113E-04
DAV:   5    -0.367046648622E+02   -0.15968E-08   -0.31136E-08    48   0.103E-03    0.102E-04
DAV:   6    -0.367046648616E+02    0.56752E-09   -0.17475E-08    48   0.582E-04
 111 F= -.36704665E+02 E0= -.36704665E+02  d E =-.661398E-06
damped:  g(F)=  0.000E+00 g(S)=  0.000E+00 dE (1.order)= 0.000E+00
 bond charge predicted
       N       E                     dE             d eps       ncg     rms          rms(c)
DAV:   1    -0.367046652951E+02   -0.43292E-06   -0.78537E-05    48   0.830E-02    0.184E-03
DAV:   2    -0.367046656294E+02   -0.33426E-06   -0.38115E-06    48   0.198E-02    0.121E-03
DAV:   3    -0.367046656963E+02   -0.66930E-07   -0.44359E-07    48   0.584E-03    0.585E-04
DAV:   4    -0.367046657067E+02   -0.10431E-07   -0.11203E-07    48   0.270E-03    0.139E-04
DAV:   5    -0.367046657102E+02   -0.34995E-08   -0.42619E-08    48   0.129E-03    0.125E-04
DAV:   6    -0.367046657096E+02    0.59549E-09   -0.21114E-08    48   0.727E-04
 112 F= -.36704666E+02 E0= -.36704666E+02  d E =-.848008E-06
damped:  g(F)=  0.000E+00 g(S)=  0.000E+00 dE (1.order)= 0.000E+00
 bond charge predicted
       N       E                     dE             d eps       ncg     rms          rms(c)
DAV:   1    -0.367046661948E+02   -0.48462E-06   -0.13024E-04    48   0.106E-01    0.231E-03
DAV:   2    -0.367046667445E+02   -0.54971E-06   -0.62519E-06    48   0.253E-02    0.152E-03
DAV:   3    -0.367046668502E+02   -0.10566E-06   -0.71783E-07    48   0.743E-03    0.752E-04
DAV:   4    -0.367046668675E+02   -0.17302E-07   -0.17659E-07    48   0.345E-03    0.174E-04
DAV:   5    -0.367046668725E+02   -0.49788E-08   -0.63180E-08    48   0.165E-03    0.158E-04
DAV:   6    -0.367046668714E+02    0.10409E-08   -0.27792E-08    48   0.925E-04
 113 F= -.36704667E+02 E0= -.36704667E+02  d E =-.116182E-05
damped:  g(F)=  0.000E+00 g(S)=  0.000E+00 dE (1.order)= 0.000E+00
 bond charge predicted
       N       E                     dE             d eps       ncg     rms          rms(c)
DAV:   1    -0.367046682747E+02   -0.14022E-05   -0.22414E-04    96   0.135E-01    0.313E-03
DAV:   2    -0.367046683574E+02   -0.82717E-07   -0.23259E-06    48   0.124E-02    0.203E-03
DAV:   3    -0.367046683951E+02   -0.37670E-07   -0.31217E-07    48   0.490E-03    0.532E-04
DAV:   4    -0.367046684069E+02   -0.11841E-07   -0.89148E-08    48   0.220E-03    0.209E-04
DAV:   5    -0.367046684095E+02   -0.25650E-08   -0.30813E-08    48   0.104E-03    0.790E-05
DAV:   6    -0.367046684147E+02   -0.51982E-08   -0.18941E-08    48   0.548E-04
 114 F= -.36704668E+02 E0= -.36704668E+02  d E =-.154326E-05
damped:  g(F)=  0.000E+00 g(S)=  0.000E+00 dE (1.order)= 0.000E+00
 bond charge predicted
       N       E                     dE             d eps       ncg     rms          rms(c)
DAV:   1    -0.367046701827E+02   -0.17731E-05   -0.36728E-04    96   0.172E-01    0.392E-03
DAV:   2    -0.367046703255E+02   -0.14283E-06   -0.38910E-06    48   0.159E-02    0.257E-03
DAV:   3    -0.367046703698E+02   -0.44334E-07   -0.50293E-07    48   0.624E-03    0.737E-04
DAV:   4    -0.367046703939E+02   -0.24104E-07   -0.14129E-07    48   0.287E-03    0.273E-04
DAV:   5    -0.367046704004E+02   -0.65195E-08   -0.42374E-08    48   0.133E-03    0.107E-04
DAV:   6    -0.367046704087E+02   -0.82316E-08   -0.23144E-08    48   0.686E-04
 115 F= -.36704670E+02 E0= -.36704670E+02  d E =-.199397E-05
damped:  g(F)=  0.000E+00 g(S)=  0.000E+00 dE (1.order)= 0.000E+00
 bond charge predicted
       N       E                     dE             d eps       ncg     rms          rms(c)
DAV:   1    -0.367046721697E+02   -0.17692E-05   -0.59074E-04    96   0.218E-01    0.522E-03
DAV:   2    -0.367046723836E+02   -0.21396E-06   -0.66554E-06    48   0.211E-02    0.338E-03
DAV:   3    -0.367046724297E+02   -0.46046E-07   -0.90356E-07    48   0.844E-03    0.123E-03
DAV:   4    -0.367046724883E+02   -0.58615E-07   -0.28574E-07    48   0.436E-03    0.437E-04
DAV:   5    -0.367046724932E+02   -0.48794E-08   -0.71678E-08    48   0.199E-03    0.188E-04
DAV:   6    -0.367046725040E+02   -0.10858E-07   -0.32783E-08    48   0.993E-04
 116 F= -.36704673E+02 E0= -.36704673E+02  d E =-.209536E-05
damped:  g(F)=  0.000E+00 g(S)=  0.000E+00 dE (1.order)= 0.000E+00
 bond charge predicted
       N       E                     dE             d eps       ncg     rms          rms(c)
DAV:   1    -0.367046707526E+02    0.17406E-05   -0.11533E-03    96   0.308E-01    0.987E-03
DAV:   2    -0.367046702071E+02    0.54542E-06   -0.15664E-05    64   0.347E-02    0.581E-03
DAV:   3    -0.367046698891E+02    0.31809E-06   -0.27006E-06    64   0.151E-02    0.257E-03
DAV:   4    -0.367046699779E+02   -0.88872E-07   -0.11813E-06    64   0.930E-03    0.887E-04
DAV:   5    -0.367046700005E+02   -0.22545E-07   -0.21841E-07    48   0.414E-03    0.377E-04
DAV:   6    -0.367046700209E+02   -0.20412E-07   -0.73742E-08    48   0.192E-03
 117 F= -.36704670E+02 E0= -.36704670E+02  d E =0.248314E-05
damped:  g(F)=  0.000E+00 g(S)=  0.000E+00 dE (1.order)= 0.000E+00
 bond charge predicted
       N       E                     dE             d eps       ncg     rms          rms(c)
DAV:   1    -0.367046771176E+02   -0.71172E-05   -0.28702E-04    80   0.150E-01    0.826E-03
DAV:   2    -0.367046762334E+02    0.88427E-06   -0.47179E-06    80   0.210E-02    0.394E-03
DAV:   3    -0.367046761143E+02    0.11909E-06   -0.13533E-06    64   0.107E-02    0.170E-03
DAV:   4    -0.367046761869E+02   -0.72578E-07   -0.55379E-07    60   0.635E-03    0.643E-04
DAV:   5    -0.367046762072E+02   -0.20397E-07   -0.95679E-08    52   0.272E-03    0.278E-04
DAV:   6    -0.367046762344E+02   -0.27196E-07   -0.37708E-08    52   0.144E-03
 118 F= -.36704676E+02 E0= -.36704676E+02  d E =-.621356E-05
damped:  g(F)=  0.000E+00 g(S)=  0.000E+00 dE (1.order)= 0.000E+00
 bond charge predicted
       N       E                     dE             d eps       ncg     rms          rms(c)
DAV:   1    -0.367046763461E+02   -0.13881E-06   -0.49959E-07    48   0.638E-03    0.305E-04
DAV:   2    -0.367046763602E+02   -0.14118E-07   -0.39145E-08    48   0.162E-03    0.171E-04
DAV:   3    -0.367046763758E+02   -0.15664E-07   -0.15069E-08    48   0.509E-04    0.955E-05
DAV:   4    -0.367046764007E+02   -0.24847E-07   -0.13027E-08    48   0.324E-04    0.250E-05
DAV:   5    -0.367046764102E+02   -0.95507E-08   -0.11959E-08    48   0.151E-04    0.185E-05
DAV:   6    -0.367046764215E+02   -0.11309E-07   -0.11607E-08    48   0.742E-05
 119 F= -.36704676E+02 E0= -.36704676E+02  d E =-.187101E-06
damped:  g(F)=  0.000E+00 g(S)=  0.000E+00 dE (1.order)= 0.000E+00
 bond charge predicted
       N       E                     dE             d eps       ncg     rms          rms(c)
DAV:   1    -0.367046765634E+02   -0.15312E-06   -0.14882E-06    48   0.111E-02    0.469E-04
DAV:   2    -0.367046765662E+02   -0.27967E-08   -0.82196E-08    48   0.265E-03    0.263E-04
DAV:   3    -0.367046765684E+02   -0.22051E-08   -0.18335E-08    48   0.794E-04    0.151E-04
DAV:   4    -0.367046765739E+02   -0.55877E-08   -0.15018E-08    48   0.575E-04    0.498E-05
DAV:   5    -0.367046765763E+02   -0.23365E-08   -0.11803E-08    48   0.255E-04    0.351E-05
DAV:   6    -0.367046765791E+02   -0.28654E-08   -0.11223E-08    48   0.126E-04
 120 F= -.36704677E+02 E0= -.36704677E+02  d E =-.157598E-06
damped:  g(F)=  0.000E+00 g(S)=  0.000E+00 dE (1.order)= 0.000E+00
 bond charge predicted
       N       E                     dE             d eps       ncg     rms          rms(c)
DAV:   1    -0.367046766726E+02   -0.96328E-07   -0.21049E-06    48   0.132E-02    0.497E-04
DAV:   2    -0.367046766739E+02   -0.12431E-08   -0.11178E-07    48   0.314E-03    0.292E-04
DAV:   3    -0.367046766717E+02    0.21423E-08   -0.21531E-08    48   0.942E-04    0.171E-04
DAV:   4    -0.367046766710E+02    0.71122E-09   -0.15937E-08    48   0.646E-04    0.549E-05
DAV:   5    -0.367046766720E+02   -0.10364E-08   -0.12040E-08    48   0.287E-04    0.401E-05
DAV:   6    -0.367046766728E+02   -0.76784E-09   -0.11300E-08    48   0.143E-04
 121 F= -.36704677E+02 E0= -.36704677E+02  d E =-.936568E-07
damped:  g(F)=  0.000E+00 g(S)=  0.000E+00 dE (1.order)= 0.000E+00
 bond charge predicted
       N       E                     dE             d eps       ncg     rms          rms(c)
DAV:   1    -0.367046767608E+02   -0.88787E-07   -0.20732E-06    48   0.130E-02    0.363E-04
DAV:   2    -0.367046767648E+02   -0.39931E-08   -0.10873E-07    48   0.304E-03    0.233E-04
DAV:   3    -0.367046767635E+02    0.13140E-08   -0.21640E-08    48   0.903E-04    0.142E-04
DAV:   4    -0.367046767627E+02    0.81900E-09   -0.14657E-08    48   0.544E-04    0.420E-05
DAV:   5    -0.367046767635E+02   -0.80058E-09   -0.11963E-08    48   0.248E-04    0.325E-05
DAV:   6    -0.367046767638E+02   -0.32128E-09   -0.11264E-08    48   0.125E-04
 122 F= -.36704677E+02 E0= -.36704677E+02  d E =-.910012E-07
damped:  g(F)=  0.000E+00 g(S)=  0.000E+00 dE (1.order)= 0.000E+00
 bond charge predicted
       N       E                     dE             d eps       ncg     rms          rms(c)
DAV:   1    -0.367046769241E+02   -0.16059E-06   -0.24421E-06    48   0.136E-02    0.279E-04
DAV:   2    -0.367046769333E+02   -0.92436E-08   -0.12192E-07    48   0.318E-03    0.186E-04
DAV:   3    -0.367046769348E+02   -0.14413E-08   -0.23309E-08    48   0.912E-04    0.997E-05
DAV:   4    -0.367046769350E+02   -0.22169E-09   -0.13982E-08    48   0.446E-04    0.220E-05
DAV:   5    -0.367046769353E+02   -0.27944E-09   -0.11963E-08    48   0.208E-04    0.206E-05
DAV:   6    -0.367046769353E+02   -0.42519E-10   -0.11319E-08    48   0.113E-04
 123 F= -.36704677E+02 E0= -.36704677E+02  d E =-.171497E-06
damped:  g(F)=  0.000E+00 g(S)=  0.000E+00 dE (1.order)= 0.000E+00
 bond charge predicted
       N       E                     dE             d eps       ncg     rms          rms(c)
DAV:   1    -0.367046771865E+02   -0.25123E-06   -0.39103E-06    48   0.173E-02    0.373E-04
DAV:   2    -0.367046772034E+02   -0.16884E-07   -0.19003E-07    48   0.405E-03    0.249E-04
DAV:   3    -0.367046772068E+02   -0.34249E-08   -0.30862E-08    48   0.117E-03    0.141E-04
DAV:   4    -0.367046772084E+02   -0.15962E-08   -0.16159E-08    48   0.602E-04    0.342E-05
DAV:   5    -0.367046772083E+02    0.55934E-10   -0.12626E-08    48   0.281E-04    0.309E-05
DAV:   6    -0.367046772083E+02    0.49567E-10   -0.11514E-08    48   0.149E-04
 124 F= -.36704677E+02 E0= -.36704677E+02  d E =-.272988E-06
damped:  g(F)=  0.000E+00 g(S)=  0.000E+00 dE (1.order)= 0.000E+00
 bond charge predicted
       N       E                     dE             d eps       ncg     rms          rms(c)
DAV:   1    -0.367046775222E+02   -0.31385E-06   -0.76296E-06    48   0.244E-02    0.580E-04
DAV:   2    -0.367046775546E+02   -0.32411E-07   -0.36468E-07    48   0.572E-03    0.383E-04
DAV:   3    -0.367046775605E+02   -0.59182E-08   -0.49983E-08    48   0.167E-03    0.228E-04
DAV:   4    -0.367046775631E+02   -0.25909E-08   -0.22328E-08    48   0.924E-04    0.612E-05
DAV:   5    -0.367046775625E+02    0.59117E-09   -0.14400E-08    48   0.429E-04    0.515E-05
DAV:   6    -0.367046775623E+02    0.23988E-09   -0.12041E-08    48   0.221E-04
 125 F= -.36704678E+02 E0= -.36704678E+02  d E =-.353988E-06
damped:  g(F)=  0.000E+00 g(S)=  0.000E+00 dE (1.order)= 0.000E+00
 bond charge predicted
       N       E                     dE             d eps       ncg     rms          rms(c)
DAV:   1    -0.367046778843E+02   -0.32176E-06   -0.12753E-05    48   0.314E-02    0.714E-04
DAV:   2    -0.367046779370E+02   -0.52767E-07   -0.59961E-07    48   0.737E-03    0.474E-04
DAV:   3    -0.367046779462E+02   -0.92007E-08   -0.76143E-08    48   0.214E-03    0.278E-04
DAV:   4    -0.367046779495E+02   -0.32410E-08   -0.28990E-08    48   0.115E-03    0.716E-05
DAV:   5    -0.367046779492E+02    0.31378E-09   -0.16508E-08    48   0.535E-04    0.621E-05
DAV:   6    -0.367046779489E+02    0.27217E-09   -0.12729E-08    48   0.279E-04
 126 F= -.36704678E+02 E0= -.36704678E+02  d E =-.386619E-06
damped:  g(F)=  0.000E+00 g(S)=  0.000E+00 dE (1.order)= 0.000E+00
 bond charge predicted
       N       E                     dE             d eps       ncg     rms          rms(c)
DAV:   1    -0.367046783531E+02   -0.40391E-06   -0.19091E-05    48   0.380E-02    0.775E-04
DAV:   2    -0.367046784310E+02   -0.77876E-07   -0.88035E-07    48   0.890E-03    0.516E-04
DAV:   3    -0.367046784446E+02   -0.13637E-07   -0.10718E-07    48   0.255E-03    0.274E-04
DAV:   4    -0.367046784483E+02   -0.37026E-08   -0.34427E-08    48   0.124E-03    0.605E-05
DAV:   5    -0.367046784485E+02   -0.16416E-09   -0.18668E-08    48   0.581E-04    0.572E-05
DAV:   6    -0.367046784483E+02    0.13574E-09   -0.13504E-08    48   0.317E-04
 127 F= -.36704678E+02 E0= -.36704678E+02  d E =-.499427E-06
damped:  g(F)=  0.000E+00 g(S)=  0.000E+00 dE (1.order)= 0.000E+00
 bond charge predicted
       N       E                     dE             d eps       ncg     rms          rms(c)
DAV:   1    -0.367046789965E+02   -0.54807E-06   -0.30276E-05    48   0.480E-02    0.996E-04
DAV:   2    -0.367046791141E+02   -0.11752E-06   -0.13953E-06    48   0.113E-02    0.664E-04
DAV:   3    -0.367046791311E+02   -0.17091E-07   -0.16432E-07    48   0.322E-03    0.367E-04
DAV:   4    -0.367046791342E+02   -0.30561E-08   -0.48897E-08    48   0.160E-03    0.822E-05
DAV:   5    -0.367046791355E+02   -0.13135E-08   -0.23116E-08    48   0.744E-04    0.762E-05
DAV:   6    -0.367046791355E+02   -0.31150E-10   -0.14809E-08    48   0.401E-04
 128 F= -.36704679E+02 E0= -.36704679E+02  d E =-.687218E-06
damped:  g(F)=  0.000E+00 g(S)=  0.000E+00 dE (1.order)= 0.000E+00
 bond charge predicted
       N       E                     dE             d eps       ncg     rms          rms(c)
DAV:   1    -0.367046796954E+02   -0.55990E-06   -0.48197E-05    48   0.607E-02    0.129E-03
DAV:   2    -0.367046798806E+02   -0.18518E-06   -0.22229E-06    48   0.142E-02    0.860E-04
DAV:   3    -0.367046799058E+02   -0.25220E-07   -0.25589E-07    48   0.409E-03    0.485E-04
DAV:   4    -0.367046799099E+02   -0.40806E-08   -0.73099E-08    48   0.208E-03    0.113E-04
DAV:   5    -0.367046799118E+02   -0.19415E-08   -0.30405E-08    48   0.965E-04    0.103E-04
DAV:   6    -0.367046799116E+02    0.25898E-09   -0.16962E-08    48   0.514E-04
 129 F= -.36704680E+02 E0= -.36704680E+02  d E =-.776030E-06
damped:  g(F)=  0.000E+00 g(S)=  0.000E+00 dE (1.order)= 0.000E+00
 bond charge predicted
       N       E                     dE             d eps       ncg     rms          rms(c)
DAV:   1    -0.367046805610E+02   -0.64915E-06   -0.68167E-05    48   0.718E-02    0.145E-03
DAV:   2    -0.367046808351E+02   -0.27408E-06   -0.31165E-06    48   0.168E-02    0.964E-04
DAV:   3    -0.367046808801E+02   -0.45030E-07   -0.35446E-07    48   0.480E-03    0.507E-04
DAV:   4    -0.367046808899E+02   -0.98460E-08   -0.93330E-08    48   0.232E-03    0.108E-04
DAV:   5    -0.367046808914E+02   -0.14891E-08   -0.37912E-08    48   0.109E-03    0.103E-04
DAV:   6    -0.367046808908E+02    0.60800E-09   -0.19543E-08    48   0.596E-04
 130 F= -.36704681E+02 E0= -.36704681E+02  d E =-.979254E-06
damped:  g(F)=  0.000E+00 g(S)=  0.000E+00 dE (1.order)= 0.000E+00
 bond charge predicted
       N       E                     dE             d eps       ncg     rms          rms(c)
DAV:   1    -0.367046815839E+02   -0.69249E-06   -0.99731E-05    48   0.873E-02    0.182E-03
DAV:   2    -0.367046819876E+02   -0.40370E-06   -0.45830E-06    48   0.205E-02    0.121E-03
DAV:   3    -0.367046820511E+02   -0.63468E-07   -0.51931E-07    48   0.588E-03    0.678E-04
DAV:   4    -0.367046820668E+02   -0.15758E-07   -0.13770E-07    48   0.295E-03    0.155E-04
DAV:   5    -0.367046820682E+02   -0.13304E-08   -0.51211E-08    48   0.138E-03    0.143E-04
DAV:   6    -0.367046820675E+02    0.70122E-09   -0.23559E-08    48   0.742E-04
 131 F= -.36704682E+02 E0= -.36704682E+02  d E =-.117665E-05
damped:  g(F)=  0.000E+00 g(S)=  0.000E+00 dE (1.order)= 0.000E+00
 bond charge predicted
       N       E                     dE             d eps       ncg     rms          rms(c)
DAV:   1    -0.367046833228E+02   -0.12547E-05   -0.13779E-04    80   0.100E-01    0.209E-03
DAV:   2    -0.367046833881E+02   -0.65304E-07   -0.16052E-06    48   0.967E-03    0.143E-03
DAV:   3    -0.367046833952E+02   -0.70776E-08   -0.20133E-07    48   0.367E-03    0.496E-04
DAV:   4    -0.367046834058E+02   -0.10618E-07   -0.64432E-08    48   0.176E-03    0.143E-04
DAV:   5    -0.367046834095E+02   -0.36459E-08   -0.24971E-08    48   0.810E-04    0.596E-05
DAV:   6    -0.367046834148E+02   -0.53313E-08   -0.16455E-08    48   0.404E-04
 132 F= -.36704683E+02 E0= -.36704683E+02  d E =-.134735E-05
damped:  g(F)=  0.000E+00 g(S)=  0.000E+00 dE (1.order)= 0.000E+00
 bond charge predicted
       N       E                     dE             d eps       ncg     rms          rms(c)
DAV:   1    -0.367046848065E+02   -0.13970E-05   -0.18568E-04    80   0.117E-01    0.253E-03
DAV:   2    -0.367046848829E+02   -0.76364E-07   -0.21699E-06    48   0.114E-02    0.171E-03
DAV:   3    -0.367046848862E+02   -0.33235E-08   -0.27452E-07    48   0.439E-03    0.643E-04
DAV:   4    -0.367046849030E+02   -0.16779E-07   -0.88831E-08    48   0.222E-03    0.205E-04
DAV:   5    -0.367046849092E+02   -0.61702E-08   -0.29675E-08    48   0.101E-03    0.846E-05
DAV:   6    -0.367046849158E+02   -0.66348E-08   -0.17799E-08    48   0.494E-04
 133 F= -.36704685E+02 E0= -.36704685E+02  d E =-.150097E-05
damped:  g(F)=  0.000E+00 g(S)=  0.000E+00 dE (1.order)= 0.000E+00
 bond charge predicted
       N       E                     dE             d eps       ncg     rms          rms(c)
DAV:   1    -0.367046865036E+02   -0.15944E-05   -0.22693E-04    96   0.130E-01    0.280E-03
DAV:   2    -0.367046866152E+02   -0.11164E-06   -0.26283E-06    48   0.126E-02    0.189E-03
DAV:   3    -0.367046866326E+02   -0.17411E-07   -0.32718E-07    48   0.482E-03    0.695E-04
DAV:   4    -0.367046866550E+02   -0.22391E-07   -0.10297E-07    48   0.241E-03    0.221E-04
DAV:   5    -0.367046866600E+02   -0.49223E-08   -0.33319E-08    48   0.109E-03    0.887E-05
DAV:   6    -0.367046866669E+02   -0.69699E-08   -0.19320E-08    48   0.531E-04
 134 F= -.36704687E+02 E0= -.36704687E+02  d E =-.175114E-05
damped:  g(F)=  0.000E+00 g(S)=  0.000E+00 dE (1.order)= 0.000E+00
 bond charge predicted
       N       E                     dE             d eps       ncg     rms          rms(c)
DAV:   1    -0.367046883166E+02   -0.16566E-05   -0.27072E-04    96   0.143E-01    0.303E-03
DAV:   2    -0.367046884492E+02   -0.13259E-06   -0.30563E-06    48   0.136E-02    0.204E-03
DAV:   3    -0.367046884720E+02   -0.22837E-07   -0.37305E-07    48   0.518E-03    0.669E-04
DAV:   4    -0.367046884945E+02   -0.22522E-07   -0.10990E-07    48   0.244E-03    0.209E-04
DAV:   5    -0.367046885018E+02   -0.72921E-08   -0.35681E-08    48   0.111E-03    0.842E-05
DAV:   6    -0.367046885109E+02   -0.90829E-08   -0.20649E-08    48   0.553E-04
 135 F= -.36704689E+02 E0= -.36704689E+02  d E =-.184396E-05
damped:  g(F)=  0.000E+00 g(S)=  0.000E+00 dE (1.order)= 0.000E+00
 reached required accuracy - stopping structural energy minimisation
