unknown system                          
           1
    30.000000    0.000000    0.000000
     0.000000   30.000000    0.000000
     0.000000    0.000000   30.000000
   H    C    N 
   3   2   1
Direct configuration=     1
   0.47039978  0.46659815  0.49447989
   0.47303607  0.52120489  0.47093317
   0.46976575  0.51437433  0.52997531
   0.48375813  0.50039981  0.49912600
   0.53210598  0.49919254  0.50169109
   0.57095144  0.49826111  0.50378930
Direct configuration=     2
   0.47039949  0.46659830  0.49447944
   0.47303624  0.52120532  0.47093313
   0.46976566  0.51437432  0.52997530
   0.48375707  0.50039992  0.49912585
   0.53211401  0.49919207  0.50169176
   0.57094468  0.49826091  0.50378928
Direct configuration=     3
   0.47039888  0.46659862  0.49447846
   0.47303666  0.52120629  0.47093304
   0.46976549  0.51437429  0.52997530
   0.48375560  0.50040015  0.49912556
   0.53212513  0.49919118  0.50169287
   0.57093539  0.49826032  0.50378954
Direct configuration=     4
   0.47039881  0.46659866  0.49447834
   0.47303673  0.52120641  0.47093303
   0.46976548  0.51437429  0.52997530
   0.48375572  0.50040017  0.49912554
   0.53212420  0.49919112  0.50169287
   0.57093621  0.49826019  0.50378968
Direct configuration=     5
   0.47039866  0.46659877  0.49447808
   0.47303688  0.52120668  0.47093302
   0.46976547  0.51437429  0.52997530
   0.48375593  0.50040022  0.49912550
   0.53212248  0.49919099  0.50169291
   0.57093773  0.49825990  0.50378996
Direct configuration=     6
   0.47039839  0.46659896  0.49447764
   0.47303713  0.52120715  0.47093301
   0.46976547  0.51437429  0.52997530
   0.48375621  0.50040032  0.49912542
   0.53212026  0.49919074  0.50169298
   0.57093969  0.49825938  0.50379040
Direct configuration=     7
   0.47039794  0.46659929  0.49447696
   0.47303754  0.52120791  0.47093301
   0.46976546  0.51437431  0.52997531
   0.48375650  0.50040049  0.49912530
   0.53211800  0.49919031  0.50169316
   0.57094172  0.49825854  0.50379103
Direct configuration=     8
   0.47039729  0.46659979  0.49447600
   0.47303811  0.52120898  0.47093303
   0.46976547  0.51437434  0.52997532
   0.48375671  0.50040074  0.49912512
   0.53211626  0.49918966  0.50169346
   0.57094331  0.49825733  0.50379182
Direct configuration=     9
   0.47039726  0.46659982  0.49447609
   0.47303812  0.52120893  0.47093299
   0.46976549  0.51437444  0.52997528
   0.48375669  0.50040076  0.49912512
   0.53211638  0.49918963  0.50169346
   0.57094322  0.49825728  0.50379181
Direct configuration=    10
   0.47039716  0.46659989  0.49447609
   0.47303818  0.52120899  0.47093296
   0.46976551  0.51437454  0.52997525
   0.48375666  0.50040080  0.49912511
   0.53211661  0.49918953  0.50169351
   0.57094303  0.49825710  0.50379185
Direct configuration=    11
   0.47039706  0.46659997  0.49447622
   0.47303823  0.52120894  0.47093287
   0.46976554  0.51437476  0.52997517
   0.48375662  0.50040084  0.49912510
   0.53211694  0.49918943  0.50169355
   0.57094277  0.49825693  0.50379185
Direct configuration=    12
   0.47039695  0.46660004  0.49447650
   0.47303828  0.52120878  0.47093273
   0.46976559  0.51437509  0.52997503
   0.48375656  0.50040088  0.49912510
   0.53211734  0.49918931  0.50169358
   0.57094244  0.49825676  0.50379181
Direct configuration=    13
   0.47039683  0.46660011  0.49447692
   0.47303831  0.52120851  0.47093253
   0.46976566  0.51437553  0.52997485
   0.48375650  0.50040092  0.49912511
   0.53211781  0.49918919  0.50169361
   0.57094206  0.49825658  0.50379173
Direct configuration=    14
   0.47039669  0.46660019  0.49447748
   0.47303833  0.52120814  0.47093228
   0.46976574  0.51437610  0.52997462
   0.48375643  0.50040097  0.49912512
   0.53211831  0.49918906  0.50169364
   0.57094165  0.49825639  0.50379162
Direct configuration=    15
   0.47039653  0.46660028  0.49447826
   0.47303834  0.52120761  0.47093193
   0.46976586  0.51437687  0.52997431
   0.48375636  0.50040102  0.49912514
   0.53211888  0.49918891  0.50169366
   0.57094119  0.49825617  0.50379146
Direct configuration=    16
   0.47039632  0.46660038  0.49447933
   0.47303835  0.52120687  0.47093146
   0.46976601  0.51437789  0.52997389
   0.48375628  0.50040109  0.49912518
   0.53211948  0.49918872  0.50169367
   0.57094072  0.49825591  0.50379124
Direct configuration=    17
   0.47039606  0.46660050  0.49448075
   0.47303834  0.52120588  0.47093084
   0.46976621  0.51437924  0.52997334
   0.48375620  0.50040116  0.49912523
   0.53212007  0.49918849  0.50169366
   0.57094027  0.49825558  0.50379094
Direct configuration=    18
   0.47039574  0.46660064  0.49448259
   0.47303833  0.52120459  0.47093004
   0.46976647  0.51438098  0.52997264
   0.48375615  0.50040126  0.49912531
   0.53212055  0.49918821  0.50169363
   0.57093991  0.49825516  0.50379056
Direct configuration=    19
   0.47039533  0.46660081  0.49448496
   0.47303831  0.52120294  0.47092901
   0.46976680  0.51438321  0.52997175
   0.48375612  0.50040138  0.49912540
   0.53212085  0.49918787  0.50169356
   0.57093973  0.49825463  0.50379008
Direct configuration=    20
   0.47039481  0.46660101  0.49448794
   0.47303829  0.52120086  0.47092770
   0.46976722  0.51438603  0.52997064
   0.48375614  0.50040154  0.49912553
   0.53212087  0.49918745  0.50169346
   0.57093981  0.49825394  0.50378949
Direct configuration=    21
   0.47039415  0.46660126  0.49449166
   0.47303827  0.52119828  0.47092606
   0.46976775  0.51438955  0.52996926
   0.48375623  0.50040173  0.49912569
   0.53212054  0.49918693  0.50169331
   0.57094020  0.49825307  0.50378878
Direct configuration=    22
   0.47039331  0.46660154  0.49449625
   0.47303825  0.52119511  0.47092402
   0.46976839  0.51439393  0.52996759
   0.48375639  0.50040198  0.49912589
   0.53211990  0.49918629  0.50169311
   0.57094088  0.49825197  0.50378791
Direct configuration=    23
   0.47039226  0.46660185  0.49450186
   0.47303824  0.52119126  0.47092147
   0.46976917  0.51439931  0.52996557
   0.48375661  0.50040229  0.49912614
   0.53211912  0.49918550  0.50169287
   0.57094172  0.49825059  0.50378686
Direct configuration=    24
   0.47039095  0.46660217  0.49450865
   0.47303825  0.52118662  0.47091833
   0.46977008  0.51440590  0.52996317
   0.48375686  0.50040268  0.49912643
   0.53211859  0.49918452  0.50169260
   0.57094238  0.49824890  0.50378559
Direct configuration=    25
   0.47038935  0.46660247  0.49451678
   0.47303828  0.52118109  0.47091449
   0.46977113  0.51441383  0.52996034
   0.48375709  0.50040315  0.49912677
   0.53211873  0.49918334  0.50169234
   0.57094252  0.49824689  0.50378405
Direct configuration=    26
   0.47038742  0.46660270  0.49452645
   0.47303835  0.52117453  0.47090980
   0.46977232  0.51442331  0.52995705
   0.48375730  0.50040370  0.49912718
   0.53211968  0.49918196  0.50169209
   0.57094202  0.49824456  0.50378221
Direct configuration=    27
   0.47038512  0.46660279  0.49453793
   0.47303848  0.52116675  0.47090408
   0.46977367  0.51443465  0.52995324
   0.48375753  0.50040434  0.49912766
   0.53212091  0.49918037  0.50169179
   0.57094135  0.49824184  0.50378007
Direct configuration=    28
   0.47038243  0.46660269  0.49455146
   0.47303871  0.52115760  0.47089717
   0.46977518  0.51444806  0.52994885
   0.48375788  0.50040505  0.49912825
   0.53212128  0.49917860  0.50169140
   0.57094155  0.49823870  0.50377766
Direct configuration=    29
   0.47037937  0.46660235  0.49456725
   0.47303912  0.52114689  0.47088892
   0.46977688  0.51446375  0.52994383
   0.48375831  0.50040582  0.49912894
   0.53212038  0.49917671  0.50169086
   0.57094296  0.49823515  0.50377500
Direct configuration=    30
   0.47037595  0.46660167  0.49458564
   0.47303978  0.52113433  0.47087907
   0.46977876  0.51448204  0.52993806
   0.48375842  0.50040663  0.49912974
   0.53212005  0.49917470  0.50169029
   0.57094402  0.49823127  0.50377199
Direct configuration=    31
   0.47037233  0.46660063  0.49460660
   0.47304079  0.52111981  0.47086765
   0.46978077  0.51450278  0.52993148
   0.48375788  0.50040742  0.49913062
   0.53212192  0.49917266  0.50168979
   0.57094327  0.49822731  0.50376866
Direct configuration=    32
   0.47036874  0.46659906  0.49463030
   0.47304234  0.52110297  0.47085448
   0.46978286  0.51452598  0.52992394
   0.48375718  0.50040812  0.49913160
   0.53212174  0.49917088  0.50168918
   0.57094405  0.49822356  0.50376532
Direct configuration=    33
   0.47036567  0.46659666  0.49465676
   0.47304459  0.52108330  0.47083943
   0.46978476  0.51455130  0.52991518
   0.48375651  0.50040858  0.49913262
   0.53212014  0.49916979  0.50168865
   0.57094521  0.49822087  0.50376220
Direct configuration=    34
   0.47036331  0.46659359  0.49468444
   0.47304715  0.52106189  0.47082335
   0.46978622  0.51457723  0.52990561
   0.48375552  0.50040873  0.49913357
   0.53212301  0.49916928  0.50168863
   0.57094162  0.49821973  0.50375924
Direct configuration=    35
   0.47036343  0.46659352  0.49468444
   0.47304716  0.52106178  0.47082331
   0.46978615  0.51457716  0.52990555
   0.48375569  0.50040868  0.49913356
   0.53212195  0.49916939  0.50168862
   0.57094244  0.49821992  0.50375936
Direct configuration=    36
   0.47036364  0.46659340  0.49468454
   0.47304719  0.52106149  0.47082318
   0.46978604  0.51457711  0.52990539
   0.48375596  0.50040859  0.49913355
   0.53212029  0.49916959  0.50168862
   0.57094370  0.49822027  0.50375955
Direct configuration=    37
   0.47036365  0.46659339  0.49468459
   0.47304719  0.52106143  0.47082315
   0.46978603  0.51457714  0.52990536
   0.48375597  0.50040858  0.49913355
   0.53212031  0.49916960  0.50168862
   0.57094367  0.49822030  0.50375956
Direct configuration=    38
   0.47036367  0.46659339  0.49468473
   0.47304720  0.52106130  0.47082308
   0.46978603  0.51457724  0.52990528
   0.48375597  0.50040857  0.49913355
   0.53212035  0.49916960  0.50168864
   0.57094360  0.49822033  0.50375956
Direct configuration=    39
   0.47036367  0.46659339  0.49468498
   0.47304722  0.52106108  0.47082295
   0.46978604  0.51457746  0.52990515
   0.48375598  0.50040857  0.49913355
   0.53212041  0.49916960  0.50168865
   0.57094351  0.49822035  0.50375956
Direct configuration=    40
   0.47036364  0.46659342  0.49468541
   0.47304725  0.52106073  0.47082275
   0.46978608  0.51457782  0.52990494
   0.48375599  0.50040858  0.49913355
   0.53212046  0.49916957  0.50168865
   0.57094341  0.49822031  0.50375953
Direct configuration=    41
   0.47036358  0.46659347  0.49468600
   0.47304728  0.52106027  0.47082247
   0.46978614  0.51457835  0.52990466
   0.48375600  0.50040861  0.49913356
   0.53212051  0.49916952  0.50168865
   0.57094331  0.49822022  0.50375949
Direct configuration=    42
   0.47036349  0.46659354  0.49468676
   0.47304733  0.52105970  0.47082212
   0.46978623  0.51457904  0.52990430
   0.48375603  0.50040864  0.49913358
   0.53212053  0.49916944  0.50168865
   0.57094321  0.49822008  0.50375943
Direct configuration=    43
   0.47036336  0.46659364  0.49468780
   0.47304739  0.52105893  0.47082164
   0.46978636  0.51457999  0.52990383
   0.48375606  0.50040869  0.49913360
   0.53212053  0.49916932  0.50168863
   0.57094312  0.49821986  0.50375934
Direct configuration=    44
   0.47036316  0.46659378  0.49468918
   0.47304748  0.52105791  0.47082100
   0.46978654  0.51458127  0.52990320
   0.48375611  0.50040877  0.49913363
   0.53212049  0.49916916  0.50168861
   0.57094305  0.49821955  0.50375922
Direct configuration=    45
   0.47036289  0.46659395  0.49469100
   0.47304759  0.52105659  0.47082015
   0.46978678  0.51458296  0.52990239
   0.48375617  0.50040888  0.49913367
   0.53212038  0.49916894  0.50168857
   0.57094300  0.49821911  0.50375906
Direct configuration=    46
   0.47036252  0.46659417  0.49469336
   0.47304774  0.52105490  0.47081904
   0.46978708  0.51458518  0.52990137
   0.48375626  0.50040902  0.49913372
   0.53212023  0.49916864  0.50168851
   0.57094298  0.49821852  0.50375884
Direct configuration=    47
   0.47036202  0.46659444  0.49469638
   0.47304792  0.52105275  0.47081760
   0.46978748  0.51458805  0.52990007
   0.48375637  0.50040921  0.49913378
   0.53212006  0.49916825  0.50168843
   0.57094296  0.49821773  0.50375857
Direct configuration=    48
   0.47036136  0.46659475  0.49470023
   0.47304815  0.52105004  0.47081573
   0.46978798  0.51459175  0.52989847
   0.48375650  0.50040945  0.49913386
   0.53211991  0.49916773  0.50168834
   0.57094290  0.49821669  0.50375821
Direct configuration=    49
   0.47036048  0.46659510  0.49470509
   0.47304845  0.52104666  0.47081334
   0.46978860  0.51459646  0.52989649
   0.48375665  0.50040977  0.49913395
   0.53211986  0.49916707  0.50168822
   0.57094277  0.49821534  0.50375776
Direct configuration=    50
   0.47035933  0.46659547  0.49471118
   0.47304881  0.52104248  0.47081026
   0.46978936  0.51460242  0.52989408
   0.48375681  0.50041018  0.49913406
   0.53211989  0.49916623  0.50168807
   0.57094258  0.49821361  0.50375720
Direct configuration=    51
   0.47035785  0.46659583  0.49471872
   0.47304927  0.52103736  0.47080636
   0.46979029  0.51460990  0.52989118
   0.48375700  0.50041070  0.49913419
   0.53211996  0.49916518  0.50168788
   0.57094242  0.49821141  0.50375652
Direct configuration=    52
   0.47035598  0.46659613  0.49472799
   0.47304985  0.52103113  0.47080142
   0.46979139  0.51461919  0.52988773
   0.48375720  0.50041133  0.49913434
   0.53211993  0.49916391  0.50168765
   0.57094243  0.49820867  0.50375572
Direct configuration=    53
   0.47035367  0.46659631  0.49473923
   0.47305058  0.52102362  0.47079525
   0.46979267  0.51463058  0.52988366
   0.48375736  0.50041209  0.49913452
   0.53211985  0.49916240  0.50168739
   0.57094261  0.49820535  0.50375481
Direct configuration=    54
   0.47035092  0.46659628  0.49475269
   0.47305151  0.52101462  0.47078761
   0.46979414  0.51464435  0.52987887
   0.48375739  0.50041297  0.49913473
   0.53212001  0.49916066  0.50168712
   0.57094276  0.49820144  0.50375384
Direct configuration=    55
   0.47034773  0.46659601  0.49476865
   0.47305273  0.52100388  0.47077831
   0.46979579  0.51466078  0.52987323
   0.48375720  0.50041395  0.49913496
   0.53212040  0.49915871  0.50168687
   0.57094285  0.49819697  0.50375285
Direct configuration=    56
   0.47034418  0.46659550  0.49478740
   0.47305434  0.52099106  0.47076715
   0.46979764  0.51468012  0.52986651
   0.48375685  0.50041503  0.49913519
   0.53212036  0.49915661  0.50168665
   0.57094330  0.49819195  0.50375198
Direct configuration=    57
   0.47034035  0.46659486  0.49480928
   0.47305645  0.52097569  0.47075402
   0.46979971  0.51470263  0.52985834
   0.48375636  0.50041619  0.49913539
   0.53212065  0.49915437  0.50168656
   0.57094313  0.49818650  0.50375130
Direct configuration=    58
   0.47033635  0.46659423  0.49483463
   0.47305914  0.52095728  0.47073877
   0.46980198  0.51472853  0.52984831
   0.48375617  0.50041742  0.49913553
   0.53211974  0.49915202  0.50168662
   0.57094323  0.49818071  0.50375105
Direct configuration=    59
   0.47033238  0.46659359  0.49486353
   0.47306231  0.52093554  0.47072134
   0.46980426  0.51475770  0.52983614
   0.48375597  0.50041864  0.49913554
   0.53212126  0.49914958  0.50168713
   0.57094038  0.49817509  0.50375124
Direct configuration=    60
   0.47032942  0.46659212  0.49489324
   0.47306556  0.52091219  0.47070275
   0.46980592  0.51478726  0.52982312
   0.48375713  0.50041948  0.49913540
   0.53211286  0.49914783  0.50168768
   0.57094563  0.49817120  0.50375275
Direct configuration=    61
   0.47032968  0.46659189  0.49489304
   0.47306547  0.52091209  0.47070270
   0.46980569  0.51478695  0.52982310
   0.48375646  0.50041937  0.49913532
   0.53211765  0.49914791  0.50168804
   0.57094156  0.49817188  0.50375272
Direct configuration=    62
   0.47033033  0.46659130  0.49489258
   0.47306529  0.52091184  0.47070258
   0.46980516  0.51478619  0.52982308
   0.48375565  0.50041910  0.49913517
   0.53212307  0.49914826  0.50168859
   0.57093701  0.49817338  0.50375293
Direct configuration=    63
   0.47033040  0.46659124  0.49489253
   0.47306528  0.52091182  0.47070256
   0.46980512  0.51478612  0.52982308
   0.48375577  0.50041907  0.49913517
   0.53212212  0.49914833  0.50168857
   0.57093783  0.49817350  0.50375303
Direct configuration=    64
   0.47033054  0.46659112  0.49489245
   0.47306526  0.52091176  0.47070253
   0.46980502  0.51478598  0.52982307
   0.48375598  0.50041901  0.49913516
   0.53212040  0.49914847  0.50168853
   0.57093931  0.49817375  0.50375320
Direct configuration=    65
   0.47033076  0.46659094  0.49489233
   0.47306523  0.52091166  0.47070247
   0.46980487  0.51478577  0.52982304
   0.48375623  0.50041891  0.49913514
   0.53211831  0.49914868  0.50168850
   0.57094112  0.49817413  0.50375345
Direct configuration=    66
   0.47033078  0.46659093  0.49489232
   0.47306523  0.52091165  0.47070246
   0.46980486  0.51478576  0.52982304
   0.48375622  0.50041890  0.49913514
   0.53211832  0.49914869  0.50168851
   0.57094111  0.49817417  0.50375346
Direct configuration=    67
   0.47033080  0.46659090  0.49489231
   0.47306522  0.52091163  0.47070245
   0.46980484  0.51478573  0.52982303
   0.48375622  0.50041889  0.49913513
   0.53211835  0.49914871  0.50168852
   0.57094109  0.49817422  0.50375348
Direct configuration=    68
   0.47033084  0.46659087  0.49489231
   0.47306521  0.52091160  0.47070243
   0.46980481  0.51478570  0.52982302
   0.48375621  0.50041888  0.49913512
   0.53211839  0.49914874  0.50168854
   0.57094106  0.49817431  0.50375351
Direct configuration=    69
   0.47033089  0.46659082  0.49489230
   0.47306520  0.52091155  0.47070240
   0.46980477  0.51478568  0.52982300
   0.48375620  0.50041885  0.49913511
   0.53211843  0.49914877  0.50168857
   0.57094103  0.49817442  0.50375355
Direct configuration=    70
   0.47033095  0.46659077  0.49489230
   0.47306519  0.52091149  0.47070236
   0.46980472  0.51478565  0.52982297
   0.48375618  0.50041883  0.49913510
   0.53211849  0.49914881  0.50168860
   0.57094099  0.49817455  0.50375360
Direct configuration=    71
   0.47033101  0.46659071  0.49489232
   0.47306518  0.52091140  0.47070231
   0.46980467  0.51478564  0.52982292
   0.48375617  0.50041880  0.49913509
   0.53211854  0.49914885  0.50168864
   0.57094095  0.49817469  0.50375366
Direct configuration=    72
   0.47033109  0.46659064  0.49489236
   0.47306517  0.52091129  0.47070223
   0.46980460  0.51478564  0.52982286
   0.48375615  0.50041877  0.49913507
   0.53211860  0.49914890  0.50168869
   0.57094091  0.49817485  0.50375373
Direct configuration=    73
   0.47033117  0.46659056  0.49489243
   0.47306516  0.52091113  0.47070212
   0.46980453  0.51478568  0.52982277
   0.48375613  0.50041873  0.49913505
   0.53211865  0.49914895  0.50168874
   0.57094088  0.49817504  0.50375382
Direct configuration=    74
   0.47033125  0.46659047  0.49489256
   0.47306516  0.52091092  0.47070197
   0.46980445  0.51478577  0.52982264
   0.48375610  0.50041870  0.49913502
   0.53211870  0.49914899  0.50168881
   0.57094086  0.49817523  0.50375393
Direct configuration=    75
   0.47033133  0.46659038  0.49489275
   0.47306516  0.52091065  0.47070177
   0.46980436  0.51478592  0.52982246
   0.48375608  0.50041866  0.49913499
   0.53211872  0.49914904  0.50168889
   0.57094086  0.49817544  0.50375406
Direct configuration=    76
   0.47033142  0.46659028  0.49489303
   0.47306517  0.52091029  0.47070150
   0.46980426  0.51478615  0.52982224
   0.48375606  0.50041862  0.49913496
   0.53211872  0.49914908  0.50168899
   0.57094089  0.49817566  0.50375422
Direct configuration=    77
   0.47033151  0.46659017  0.49489339
   0.47306518  0.52090984  0.47070116
   0.46980414  0.51478647  0.52982194
   0.48375604  0.50041858  0.49913491
   0.53211869  0.49914911  0.50168910
   0.57094095  0.49817591  0.50375441
Direct configuration=    78
   0.47033162  0.46659003  0.49489385
   0.47306520  0.52090928  0.47070074
   0.46980399  0.51478688  0.52982158
   0.48375603  0.50041853  0.49913486
   0.53211864  0.49914916  0.50168924
   0.57094104  0.49817621  0.50375466
Direct configuration=    79
   0.47033177  0.46658983  0.49489438
   0.47306522  0.52090860  0.47070022
   0.46980379  0.51478733  0.52982115
   0.48375603  0.50041845  0.49913479
   0.53211858  0.49914925  0.50168942
   0.57094112  0.49817663  0.50375498
Direct configuration=    80
   0.47033199  0.46658957  0.49489499
   0.47306524  0.52090777  0.47069959
   0.46980352  0.51478784  0.52982063
   0.48375603  0.50041833  0.49913469
   0.53211856  0.49914938  0.50168965
   0.57094118  0.49817719  0.50375538
Direct configuration=    81
   0.47033229  0.46658920  0.49489568
   0.47306525  0.52090678  0.47069884
   0.46980317  0.51478839  0.52982003
   0.48375604  0.50041818  0.49913457
   0.53211860  0.49914958  0.50168994
   0.57094117  0.49817796  0.50375589
Direct configuration=    82
   0.47033268  0.46658873  0.49489646
   0.47306526  0.52090557  0.47069793
   0.46980271  0.51478900  0.52981931
   0.48375606  0.50041797  0.49913441
   0.53211870  0.49914986  0.50169029
   0.57094112  0.49817895  0.50375653
Direct configuration=    83
   0.47033319  0.46658811  0.49489737
   0.47306527  0.52090411  0.47069684
   0.46980213  0.51478968  0.52981845
   0.48375609  0.50041769  0.49913422
   0.53211878  0.49915025  0.50169073
   0.57094105  0.49818023  0.50375733
Direct configuration=    84
   0.47033384  0.46658733  0.49489842
   0.47306528  0.52090234  0.47069553
   0.46980140  0.51479043  0.52981742
   0.48375615  0.50041734  0.49913399
   0.53211877  0.49915078  0.50169125
   0.57094107  0.49818185  0.50375833
Direct configuration=    85
   0.47033466  0.46658636  0.49489966
   0.47306532  0.52090018  0.47069396
   0.46980051  0.51479130  0.52981616
   0.48375621  0.50041691  0.49913371
   0.53211865  0.49915148  0.50169187
   0.57094115  0.49818385  0.50375958
Direct configuration=    86
   0.47033566  0.46658517  0.49490118
   0.47306538  0.52089752  0.47069206
   0.46979944  0.51479234  0.52981461
   0.48375624  0.50041637  0.49913338
   0.53211861  0.49915238  0.50169261
   0.57094118  0.49818629  0.50376110
Direct configuration=    87
   0.47033686  0.46658376  0.49490307
   0.47306549  0.52089425  0.47068973
   0.46979816  0.51479366  0.52981268
   0.48375621  0.50041572  0.49913298
   0.53211872  0.49915350  0.50169350
   0.57094106  0.49818919  0.50376296
Direct configuration=    88
   0.47033827  0.46658211  0.49490551
   0.47306566  0.52089020  0.47068687
   0.46979666  0.51479540  0.52981027
   0.48375616  0.50041495  0.49913251
   0.53211873  0.49915485  0.50169455
   0.57094102  0.49819255  0.50376523
Direct configuration=    89
   0.47033989  0.46658016  0.49490861
   0.47306591  0.52088523  0.47068333
   0.46979490  0.51479770  0.52980730
   0.48375613  0.50041404  0.49913193
   0.53211854  0.49915648  0.50169579
   0.57094111  0.49819646  0.50376798
Direct configuration=    90
   0.47034173  0.46657780  0.49491256
   0.47306622  0.52087910  0.47067897
   0.46979280  0.51480068  0.52980370
   0.48375611  0.50041295  0.49913122
   0.53211877  0.49915859  0.50169718
   0.57094085  0.49820093  0.50377130
Direct configuration=    91
   0.47034385  0.46657492  0.49491755
   0.47306658  0.52087161  0.47067359
   0.46979029  0.51480450  0.52979933
   0.48375623  0.50041166  0.49913036
   0.53211851  0.49916125  0.50169874
   0.57094101  0.49820611  0.50377538
Direct configuration=    92
   0.47034635  0.46657144  0.49492379
   0.47306695  0.52086246  0.47066694
   0.46978732  0.51480934  0.52979400
   0.48375629  0.50041020  0.49912930
   0.53211899  0.49916442  0.50170062
   0.57094057  0.49821219  0.50378029
Direct configuration=    93
   0.47034944  0.46656732  0.49493147
   0.47306730  0.52085141  0.47065883
   0.46978388  0.51481532  0.52978752
   0.48375651  0.50040852  0.49912803
   0.53211779  0.49916809  0.50170279
   0.57094154  0.49821937  0.50378632
Direct configuration=    94
   0.47035319  0.46656262  0.49494058
   0.47306757  0.52083847  0.47064925
   0.46977992  0.51482243  0.52977988
   0.48375596  0.50040665  0.49912643
   0.53212182  0.49917198  0.50170569
   0.57093797  0.49822786  0.50379315
Direct configuration=    95
   0.47035335  0.46656250  0.49494080
   0.47306757  0.52083816  0.47064900
   0.46977985  0.51482261  0.52977969
   0.48375639  0.50040659  0.49912639
   0.53211851  0.49917212  0.50170560
   0.57094077  0.49822803  0.50379350
Direct configuration=    96
   0.47035338  0.46656248  0.49494085
   0.47306756  0.52083807  0.47064893
   0.46977983  0.51482266  0.52977964
   0.48375638  0.50040658  0.49912638
   0.53211856  0.49917213  0.50170562
   0.57094072  0.49822809  0.50379355
Direct configuration=    97
   0.47035344  0.46656242  0.49494097
   0.47306755  0.52083791  0.47064880
   0.46977978  0.51482276  0.52977954
   0.48375637  0.50040656  0.49912635
   0.53211865  0.49917216  0.50170567
   0.57094064  0.49822820  0.50379364
Direct configuration=    98
   0.47035354  0.46656234  0.49494114
   0.47306754  0.52083767  0.47064861
   0.46977971  0.51482290  0.52977939
   0.48375636  0.50040653  0.49912630
   0.53211874  0.49917220  0.50170574
   0.57094055  0.49822838  0.50379379
Direct configuration=    99
   0.47035367  0.46656222  0.49494137
   0.47306752  0.52083734  0.47064835
   0.46977962  0.51482309  0.52977919
   0.48375635  0.50040649  0.49912624
   0.53211880  0.49917225  0.50170583
   0.57094048  0.49822861  0.50379398
Direct configuration=   100
   0.47035384  0.46656208  0.49494166
   0.47306750  0.52083693  0.47064803
   0.46977951  0.51482332  0.52977894
   0.48375635  0.50040644  0.49912617
   0.53211881  0.49917233  0.50170593
   0.57094044  0.49822890  0.50379423
Direct configuration=   101
   0.47035403  0.46656191  0.49494200
   0.47306747  0.52083645  0.47064765
   0.46977938  0.51482361  0.52977864
   0.48375635  0.50040638  0.49912609
   0.53211876  0.49917242  0.50170606
   0.57094045  0.49822924  0.50379453
Direct configuration=   102
   0.47035428  0.46656169  0.49494245
   0.47306744  0.52083582  0.47064715
   0.46977920  0.51482397  0.52977825
   0.48375636  0.50040630  0.49912598
   0.53211865  0.49917255  0.50170622
   0.57094050  0.49822968  0.50379493
Direct configuration=   103
   0.47035459  0.46656140  0.49494302
   0.47306740  0.52083500  0.47064651
   0.46977898  0.51482444  0.52977774
   0.48375638  0.50040620  0.49912585
   0.53211854  0.49917271  0.50170642
   0.57094055  0.49823025  0.50379543
Direct configuration=   104
   0.47035499  0.46656102  0.49494375
   0.47306735  0.52083396  0.47064569
   0.46977869  0.51482504  0.52977710
   0.48375638  0.50040608  0.49912568
   0.53211848  0.49917293  0.50170667
   0.57094055  0.49823097  0.50379608
Direct configuration=   105
   0.47035547  0.46656054  0.49494467
   0.47306730  0.52083265  0.47064466
   0.46977832  0.51482580  0.52977628
   0.48375637  0.50040591  0.49912548
   0.53211852  0.49917322  0.50170700
   0.57094044  0.49823188  0.50379689
Direct configuration=   106
   0.47035604  0.46655996  0.49494587
   0.47306726  0.52083098  0.47064335
   0.46977788  0.51482682  0.52977523
   0.48375635  0.50040572  0.49912522
   0.53211860  0.49917358  0.50170740
   0.57094029  0.49823295  0.50379790
Direct configuration=   107
   0.47035667  0.46655928  0.49494747
   0.47306724  0.52082887  0.47064168
   0.46977736  0.51482822  0.52977389
   0.48375635  0.50040550  0.49912492
   0.53211859  0.49917400  0.50170787
   0.57094023  0.49823414  0.50379915
Direct configuration=   108
   0.47035733  0.46655850  0.49494957
   0.47306729  0.52082619  0.47063957
   0.46977675  0.51483014  0.52977218
   0.48375637  0.50040525  0.49912454
   0.53211842  0.49917449  0.50170842
   0.57094027  0.49823544  0.50380069
Direct configuration=   109
   0.47035804  0.46655758  0.49495228
   0.47306740  0.52082284  0.47063692
   0.46977602  0.51483268  0.52977002
   0.48375638  0.50040496  0.49912408
   0.53211835  0.49917508  0.50170908
   0.57094023  0.49823686  0.50380259
Direct configuration=   110
   0.47035882  0.46655646  0.49495568
   0.47306760  0.52081868  0.47063361
   0.46977512  0.51483593  0.52976733
   0.48375639  0.50040460  0.49912352
   0.53211850  0.49917582  0.50170990
   0.57093999  0.49823850  0.50380494
Direct configuration=   111
   0.47035980  0.46655499  0.49495974
   0.47306789  0.52081359  0.47062955
   0.46977393  0.51483980  0.52976406
   0.48375647  0.50040410  0.49912284
   0.53211837  0.49917688  0.50171088
   0.57093996  0.49824063  0.50380790
Direct configuration=   112
   0.47036122  0.46655295  0.49496432
   0.47306822  0.52080746  0.47062467
   0.46977228  0.51484404  0.52976019
   0.48375654  0.50040336  0.49912200
   0.53211830  0.49917845  0.50171214
   0.57093985  0.49824372  0.50381167
Direct configuration=   113
   0.47036325  0.46655024  0.49496943
   0.47306860  0.52080009  0.47061887
   0.46977005  0.51484858  0.52975559
   0.48375652  0.50040234  0.49912095
   0.53211846  0.49918065  0.50171377
   0.57093951  0.49824808  0.50381639
Direct configuration=   114
   0.47036610  0.46654677  0.49497509
   0.47306901  0.52079127  0.47061204
   0.46976716  0.51485333  0.52975011
   0.48375651  0.50040096  0.49911962
   0.53211775  0.49918361  0.50171582
   0.57093986  0.49825402  0.50382232
Direct configuration=   115
   0.47036984  0.46654255  0.49498130
   0.47306941  0.52078091  0.47060412
   0.46976348  0.51485827  0.52974367
   0.48375613  0.50039922  0.49911796
   0.53211981  0.49918723  0.50171857
   0.57093771  0.49826179  0.50382938
Direct configuration=   116
   0.47037446  0.46653759  0.49498806
   0.47306977  0.52076914  0.47059520
   0.46975906  0.51486335  0.52973637
   0.48375720  0.50039704  0.49911575
   0.53211237  0.49919174  0.50172144
   0.57094350  0.49827108  0.50383819
Direct configuration=   117
   0.47037458  0.46653747  0.49498819
   0.47306972  0.52076886  0.47059497