   6   6   0   0
  0.4500000E+04  0.3000000E-08  0.3000000E-08  0.3000000E-08  0.0000000E+00
  1.000000000000000E-004
  CAR 
 unknown system                          
      2.02754293    -24.83322783  301     -6.83616167      1.00000000
    -24.833  0.0000E+00  0.0000E+00
    -24.744  0.0000E+00  0.0000E+00
    -24.654  0.0000E+00  0.0000E+00
    -24.565  0.0000E+00  0.0000E+00
    -24.475  0.0000E+00  0.0000E+00
    -24.386  0.0000E+00  0.0000E+00
    -24.296  0.0000E+00  0.0000E+00
    -24.206  0.0000E+00  0.0000E+00
    -24.117  0.0000E+00  0.0000E+00
    -24.027  0.0000E+00  0.0000E+00
    -23.938  0.2108E-15  0.1887E-16
    -23.848  0.2615E-13  0.2360E-14
    -23.759  0.2192E-11  0.1986E-12
    -23.669  0.1239E-09  0.1129E-10
    -23.580  0.4722E-08  0.4341E-09
    -23.490  0.1215E-06  0.1131E-07
    -23.401  0.2112E-05  0.2004E-06
    -23.311  0.2483E-04  0.2423E-05
    -23.222  0.1975E-03  0.2010E-04
    -23.132  0.1064E-02  0.1153E-03
    -23.043  0.3883E-02  0.4630E-03
    -22.953  0.9614E-02  0.1324E-02
    -22.863  0.1615E-01  0.2769E-02
    -22.774  0.1840E-01  0.4417E-02
    -22.684  0.1423E-01  0.5692E-02
    -22.595  0.7471E-02  0.6361E-02
    -22.505  0.2660E-02  0.6599E-02
    -22.416  0.6421E-03  0.6656E-02
    -22.326  0.1050E-03  0.6666E-02
    -22.237  0.1163E-04  0.6667E-02
    -22.147  0.8712E-06  0.6667E-02
    -22.058  0.4412E-07  0.6667E-02
    -21.968  0.1509E-08  0.6667E-02
    -21.879  0.3483E-10  0.6667E-02
    -21.789  0.5423E-12  0.6667E-02
    -21.699  0.5687E-14  0.6667E-02
    -21.610  0.4133E-16  0.6667E-02
    -21.520  0.0000E+00  0.6667E-02
    -21.431  0.0000E+00  0.6667E-02
    -21.341  0.0000E+00  0.6667E-02
    -21.252  0.0000E+00  0.6667E-02
    -21.162  0.0000E+00  0.6667E-02
    -21.073  0.0000E+00  0.6667E-02
    -20.983  0.0000E+00  0.6667E-02
    -20.894  0.0000E+00  0.6667E-02
    -20.804  0.0000E+00  0.6667E-02
    -20.715  0.0000E+00  0.6667E-02
    -20.625  0.0000E+00  0.6667E-02
    -20.536  0.0000E+00  0.6667E-02
    -20.446  0.0000E+00  0.6667E-02
    -20.356  0.0000E+00  0.6667E-02
    -20.267  0.0000E+00  0.6667E-02
    -20.177  0.2893E-16  0.6667E-02
    -20.088  0.4228E-14  0.6667E-02
    -19.998  0.4131E-12  0.6667E-02
    -19.909  0.2720E-10  0.6667E-02
    -19.819  0.1207E-08  0.6667E-02
    -19.730  0.3618E-07  0.6667E-02
    -19.640  0.7320E-06  0.6667E-02
    -19.551  0.1001E-04  0.6668E-02
    -19.461  0.9263E-04  0.6676E-02
    -19.372  0.5802E-03  0.6728E-02
    -19.282  0.2463E-02  0.6948E-02
    -19.192  0.7086E-02  0.7583E-02
    -19.103  0.1383E-01  0.8821E-02
    -19.013  0.1832E-01  0.1046E-01
    -18.924  0.1646E-01  0.1194E-01
    -18.834  0.1004E-01  0.1283E-01
    -18.745  0.4155E-02  0.1321E-01
    -18.655  0.1166E-02  0.1331E-01
    -18.566  0.2218E-03  0.1333E-01
    -18.476  0.2857E-04  0.1333E-01
    -18.387  0.2490E-05  0.1333E-01
    -18.297  0.1468E-06  0.1333E-01
    -18.208  0.5846E-08  0.1333E-01
    -18.118  0.1572E-09  0.1333E-01
    -18.028  0.2850E-11  0.1333E-01
    -17.939  0.3484E-13  0.1333E-01
    -17.849  0.2893E-15  0.1333E-01
    -17.760  0.0000E+00  0.1333E-01
    -17.670  0.0000E+00  0.1333E-01
    -17.581  0.0000E+00  0.1333E-01
    -17.491  0.0000E+00  0.1333E-01
    -17.402  0.0000E+00  0.1333E-01
    -17.312  0.0000E+00  0.1333E-01
    -17.223  0.0000E+00  0.1333E-01
    -17.133  0.0000E+00  0.1333E-01
    -17.044  0.0000E+00  0.1333E-01
    -16.954  0.0000E+00  0.1333E-01
    -16.865  0.0000E+00  0.1333E-01
    -16.775  0.0000E+00  0.1333E-01
    -16.685  0.0000E+00  0.1333E-01
    -16.596  0.0000E+00  0.1333E-01
    -16.506  0.0000E+00  0.1333E-01
    -16.417  0.0000E+00  0.1333E-01
    -16.327  0.0000E+00  0.1333E-01
    -16.238  0.0000E+00  0.1333E-01
    -16.148  0.0000E+00  0.1333E-01
    -16.059  0.0000E+00  0.1333E-01
    -15.969  0.0000E+00  0.1333E-01
    -15.880  0.0000E+00  0.1333E-01
    -15.790  0.0000E+00  0.1333E-01
    -15.701  0.0000E+00  0.1333E-01
    -15.611  0.0000E+00  0.1333E-01
    -15.521  0.0000E+00  0.1333E-01
    -15.432  0.0000E+00  0.1333E-01
    -15.342  0.0000E+00  0.1333E-01
    -15.253  0.0000E+00  0.1333E-01
    -15.163  0.0000E+00  0.1333E-01
    -15.074  0.0000E+00  0.1333E-01
    -14.984  0.0000E+00  0.1333E-01
    -14.895  0.0000E+00  0.1333E-01
    -14.805  0.0000E+00  0.1333E-01
    -14.716  0.0000E+00  0.1333E-01
    -14.626  0.0000E+00  0.1333E-01
    -14.537  0.0000E+00  0.1333E-01
    -14.447  0.0000E+00  0.1333E-01
    -14.358  0.0000E+00  0.1333E-01
    -14.268  0.0000E+00  0.1333E-01
    -14.178  0.0000E+00  0.1333E-01
    -14.089  0.0000E+00  0.1333E-01
    -13.999  0.0000E+00  0.1333E-01
    -13.910  0.0000E+00  0.1333E-01
    -13.820  0.0000E+00  0.1333E-01
    -13.731  0.0000E+00  0.1333E-01
    -13.641  0.0000E+00  0.1333E-01
    -13.552  0.9920E-16  0.1333E-01
    -13.462  0.1307E-13  0.1333E-01
    -13.373  0.1162E-11  0.1333E-01
    -13.283  0.6966E-10  0.1333E-01
    -13.194  0.2816E-08  0.1333E-01
    -13.104  0.7681E-07  0.1333E-01
    -13.014  0.1415E-05  0.1333E-01
    -12.925  0.1763E-04  0.1334E-01
    -12.835  0.1487E-03  0.1335E-01
    -12.746  0.8485E-03  0.1342E-01
    -12.656  0.3282E-02  0.1372E-01
    -12.567  0.8609E-02  0.1449E-01
    -12.477  0.1532E-01  0.1586E-01
    -12.388  0.1850E-01  0.1752E-01
    -12.298  0.1516E-01  0.1887E-01
    -12.209  0.8428E-02  0.1963E-01
    -12.119  0.3181E-02  0.1991E-01
    -12.030  0.8354E-03  0.1999E-01
    -11.940  0.3215E-03  0.2002E-01
    -11.851  0.1013E-02  0.2011E-01
    -11.761  0.3756E-02  0.2044E-01
    -11.671  0.9781E-02  0.2132E-01
    -11.582  0.1809E-01  0.2294E-01
    -11.492  0.2501E-01  0.2518E-01
    -11.403  0.2780E-01  0.2767E-01
    -11.313  0.2593E-01  0.2999E-01
    -11.224  0.1970E-01  0.3175E-01
    -11.134  0.1134E-01  0.3277E-01
    -11.045  0.4673E-02  0.3319E-01
    -10.955  0.1336E-02  0.3331E-01
    -10.866  0.2613E-03  0.3333E-01
    -10.776  0.3474E-04  0.3333E-01
    -10.687  0.3131E-05  0.3333E-01
    -10.597  0.1909E-06  0.3333E-01
    -10.507  0.7865E-08  0.3333E-01
    -10.418  0.2188E-09  0.3333E-01
    -10.328  0.4107E-11  0.3333E-01
    -10.239  0.5196E-13  0.3333E-01
    -10.149  0.4464E-15  0.3333E-01
    -10.060  0.0000E+00  0.3333E-01
     -9.970  0.1736E-15  0.3333E-01
     -9.881  0.2199E-13  0.3333E-01
     -9.791  0.1871E-11  0.3333E-01
     -9.702  0.1073E-09  0.3333E-01
     -9.612  0.4151E-08  0.3333E-01
     -9.523  0.1084E-06  0.3333E-01
     -9.433  0.1912E-05  0.3333E-01
     -9.344  0.2280E-04  0.3334E-01
     -9.254  0.1840E-03  0.3335E-01
     -9.164  0.1006E-02  0.3344E-01
     -9.075  0.3726E-02  0.3378E-01
     -8.985  0.9359E-02  0.3461E-01
     -8.896  0.1595E-01  0.3604E-01
     -8.806  0.1844E-01  0.3769E-01
     -8.717  0.1448E-01  0.3899E-01
     -8.627  0.7760E-02  0.3968E-01
     -8.538  0.3154E-02  0.3997E-01
     -8.448  0.2425E-02  0.4018E-01
     -8.359  0.5676E-02  0.4069E-01
     -8.269  0.1206E-01  0.4177E-01
     -8.180  0.1783E-01  0.4337E-01
     -8.090  0.1854E-01  0.4503E-01
     -8.000  0.1546E-01  0.4641E-01
     -7.911  0.1456E-01  0.4772E-01
     -7.821  0.1744E-01  0.4928E-01
     -7.732  0.1883E-01  0.5096E-01
     -7.642  0.1475E-01  0.5228E-01
     -7.553  0.7945E-02  0.5300E-01
     -7.463  0.2910E-02  0.5326E-01
     -7.374  0.7227E-03  0.5332E-01
     -7.284  0.1217E-03  0.5333E-01
     -7.195  0.1387E-04  0.5333E-01
     -7.105  0.1069E-05  0.5333E-01
     -7.016  0.5574E-07  0.5333E-01
     -6.926  0.1963E-08  0.5333E-01
     -6.837  0.4665E-10  0.5333E-01
     -6.747  0.7476E-12  0.5333E-01
     -6.657  0.8076E-14  0.5333E-01
     -6.568  0.5787E-16  0.5333E-01
     -6.478  0.0000E+00  0.5333E-01
     -6.389  0.0000E+00  0.5333E-01
     -6.299  0.0000E+00  0.5333E-01
     -6.210  0.0000E+00  0.5333E-01
     -6.120  0.0000E+00  0.5333E-01
     -6.031  0.0000E+00  0.5333E-01
     -5.941  0.0000E+00  0.5333E-01
     -5.852  0.0000E+00  0.5333E-01
     -5.762  0.0000E+00  0.5333E-01
     -5.673  0.0000E+00  0.5333E-01
     -5.583  0.0000E+00  0.5333E-01
     -5.493  0.0000E+00  0.5333E-01
     -5.404  0.0000E+00  0.5333E-01
     -5.314  0.0000E+00  0.5333E-01
     -5.225  0.0000E+00  0.5333E-01
     -5.135  0.0000E+00  0.5333E-01
     -5.046  0.0000E+00  0.5333E-01
     -4.956  0.0000E+00  0.5333E-01
     -4.867  0.0000E+00  0.5333E-01
     -4.777  0.0000E+00  0.5333E-01
     -4.688  0.0000E+00  0.5333E-01
     -4.598  0.0000E+00  0.5333E-01
     -4.509  0.0000E+00  0.5333E-01
     -4.419  0.0000E+00  0.5333E-01
     -4.330  0.0000E+00  0.5333E-01
     -4.240  0.0000E+00  0.5333E-01
     -4.150  0.0000E+00  0.5333E-01
     -4.061  0.0000E+00  0.5333E-01
     -3.971  0.0000E+00  0.5333E-01
     -3.882  0.0000E+00  0.5333E-01
     -3.792  0.0000E+00  0.5333E-01
     -3.703  0.0000E+00  0.5333E-01
     -3.613  0.0000E+00  0.5333E-01
     -3.524  0.0000E+00  0.5333E-01
     -3.434  0.0000E+00  0.5333E-01
     -3.345  0.2893E-16  0.5333E-01
     -3.255  0.4170E-14  0.5333E-01
     -3.166  0.4078E-12  0.5333E-01
     -3.076  0.2688E-10  0.5333E-01
     -2.986  0.1195E-08  0.5333E-01
     -2.897  0.3583E-07  0.5333E-01
     -2.807  0.7259E-06  0.5333E-01
     -2.718  0.9939E-05  0.5333E-01
     -2.628  0.9207E-04  0.5334E-01
     -2.539  0.5774E-03  0.5339E-01
     -2.449  0.2453E-02  0.5361E-01
     -2.360  0.7068E-02  0.5425E-01
     -2.270  0.1381E-01  0.5548E-01
     -2.181  0.1831E-01  0.5712E-01
     -2.091  0.1648E-01  0.5860E-01
     -2.002  0.1006E-01  0.5950E-01
     -1.912  0.4169E-02  0.5987E-01
     -1.823  0.1171E-02  0.5998E-01
     -1.733  0.2230E-03  0.6000E-01
     -1.643  0.2876E-04  0.6000E-01
     -1.554  0.2510E-05  0.6000E-01
     -1.464  0.1481E-06  0.6000E-01
     -1.375  0.5906E-08  0.6000E-01
     -1.285  0.2081E-09  0.6000E-01
     -1.196  0.2194E-08  0.6000E-01
     -1.106  0.6596E-07  0.6000E-01
     -1.017  0.1343E-05  0.6000E-01
     -0.927  0.1850E-04  0.6000E-01
     -0.838  0.1727E-03  0.6002E-01
     -0.748  0.1093E-02  0.6012E-01
     -0.659  0.4691E-02  0.6054E-01
     -0.569  0.1367E-01  0.6176E-01
     -0.479  0.2708E-01  0.6418E-01
     -0.390  0.3653E-01  0.6745E-01
     -0.300  0.3396E-01  0.7049E-01
     -0.211  0.2340E-01  0.7259E-01
     -0.121  0.1631E-01  0.7405E-01
     -0.032  0.1684E-01  0.7556E-01
      0.058  0.1891E-01  0.7725E-01
      0.147  0.1612E-01  0.7869E-01
      0.237  0.9507E-02  0.7955E-01
      0.326  0.3814E-02  0.7989E-01
      0.416  0.1038E-02  0.7998E-01
      0.505  0.1915E-03  0.8000E-01
      0.595  0.2393E-04  0.8000E-01
      0.685  0.2023E-05  0.8000E-01
      0.774  0.1156E-06  0.8000E-01
      0.864  0.4466E-08  0.8000E-01
      0.953  0.1164E-09  0.8000E-01
      1.043  0.2048E-11  0.8000E-01
      1.132  0.2427E-13  0.8000E-01
      1.222  0.1984E-15  0.8000E-01
      1.311  0.0000E+00  0.8000E-01
      1.401  0.0000E+00  0.8000E-01
      1.490  0.0000E+00  0.8000E-01
      1.580  0.0000E+00  0.8000E-01
      1.669  0.0000E+00  0.8000E-01
      1.759  0.0000E+00  0.8000E-01
      1.848  0.0000E+00  0.8000E-01
      1.938  0.0000E+00  0.8000E-01
      2.028  0.0000E+00  0.8000E-01
