    6    6  300    1
  0.4500000E+04  0.3000000E-08  0.3000000E-08  0.3000000E-08  0.0000000E+00
  1.000000000000000E-004
  CAR 
 unknown system                          
     16      4     12
 
  0.2500000E+00  0.2500000E+00  0.2500000E+00  0.2500000E+00
    1      -22.833228   1.000000
    2      -19.038035   1.000000
    3      -12.433736   1.000000
    4      -11.547302   1.000000
    5      -11.330138   1.000000
    6       -8.862284   1.000000
    7       -8.180454   1.000000
    8       -7.784576   1.000000
    9       -2.205023   0.000000
   10       -0.419387   0.000000
   11       -0.402012   0.000000
   12        0.027543   0.000000
 
 -0.2500000E+00  0.2500000E+00  0.2500000E+00  0.2500000E+00
    1      -22.833228   1.000000
    2      -19.038033   1.000000
    3      -12.433734   1.000000
    4      -11.547304   1.000000
    5      -11.330143   1.000000
    6       -8.862284   1.000000
    7       -8.180457   1.000000
    8       -7.784588   1.000000
    9       -2.205019   0.000000
   10       -0.419387   0.000000
   11       -0.402009   0.000000
   12        0.024297   0.000000
 
  0.2500000E+00 -0.2500000E+00  0.2500000E+00  0.2500000E+00
    1      -22.833228   1.000000
    2      -19.038033   1.000000
    3      -12.433733   1.000000
    4      -11.547312   1.000000
    5      -11.330143   1.000000
    6       -8.862280   1.000000
    7       -8.180450   1.000000
    8       -7.784577   1.000000
    9       -2.205017   0.000000
   10       -0.419388   0.000000
   11       -0.402022   0.000000
   12        0.026495   0.000000
 
 -0.2500000E+00 -0.2500000E+00  0.2500000E+00  0.2500000E+00
    1      -22.833228   1.000000
    2      -19.038035   1.000000
    3      -12.433734   1.000000
    4      -11.547307   1.000000
    5      -11.330141   1.000000
    6       -8.862281   1.000000
    7       -8.180468   1.000000
    8       -7.784578   1.000000
    9       -2.205016   0.000000
   10       -0.419385   0.000000
   11       -0.402022   0.000000
   12        0.025950   0.000000
