       N       E                     dE             d eps       ncg     rms          rms(c)
DAV:   1     0.114689496044E+03    0.11469E+03   -0.21304E+03   160   0.366E+02
DAV:   2    -0.168085059788E+01   -0.11637E+03   -0.11363E+03   192   0.106E+02
DAV:   3    -0.368952241808E+02   -0.35214E+02   -0.34836E+02   128   0.967E+01
DAV:   4    -0.399784243022E+02   -0.30832E+01   -0.30030E+01   124   0.301E+01
DAV:   5    -0.400497686559E+02   -0.71344E-01   -0.70535E-01   124   0.501E+00    0.110E+01
DAV:   6    -0.367828748124E+02    0.32669E+01   -0.61741E+00   128   0.179E+01    0.608E+00
DAV:   7    -0.361454681597E+02    0.63741E+00   -0.16052E+00   112   0.941E+00    0.319E+00
DAV:   8    -0.359563708078E+02    0.18910E+00   -0.45061E-01   128   0.542E+00    0.124E+00
DAV:   9    -0.359280320948E+02    0.28339E-01   -0.49591E-02   128   0.181E+00    0.359E-01
DAV:  10    -0.359242797093E+02    0.37524E-02   -0.51237E-03   128   0.629E-01    0.149E-01
DAV:  11    -0.359251049508E+02   -0.82524E-03   -0.19441E-03   104   0.332E-01    0.938E-02
DAV:  12    -0.359304944423E+02   -0.53895E-02   -0.32204E-03   104   0.469E-01    0.462E-02
DAV:  13    -0.359343447808E+02   -0.38503E-02   -0.13663E-03   144   0.234E-01    0.344E-02
DAV:  14    -0.359386359813E+02   -0.42912E-02   -0.60999E-04   120   0.157E-01    0.268E-02
DAV:  15    -0.359413663466E+02   -0.27304E-02   -0.26008E-04   128   0.913E-02    0.142E-02
DAV:  16    -0.359432375106E+02   -0.18712E-02   -0.18166E-04   128   0.787E-02    0.908E-03
DAV:  17    -0.359446587521E+02   -0.14212E-02   -0.80783E-05    92   0.534E-02    0.369E-03
DAV:  18    -0.359451205884E+02   -0.46184E-03   -0.42126E-05    96   0.319E-02    0.257E-03
DAV:  19    -0.359454313168E+02   -0.31073E-03   -0.19796E-05    80   0.218E-02    0.128E-03
DAV:  20    -0.359455295674E+02   -0.98251E-04   -0.58017E-06    96   0.140E-02
   1 F= -.35945530E+02 E0= -.35945530E+02  d E =-.359455E+02
       N       E                     dE             d eps       ncg     rms          rms(c)
DAV:   1    -0.359443410932E+02    0.10902E-02   -0.17821E-02   104   0.129E+00    0.667E-02
DAV:   2    -0.359442682859E+02    0.72807E-04   -0.37494E-04   128   0.205E-01    0.318E-02
DAV:   3    -0.359442644696E+02    0.38162E-05   -0.83725E-05    96   0.799E-02    0.154E-02
DAV:   4    -0.359442769470E+02   -0.12477E-04   -0.25608E-05    92   0.479E-02    0.688E-03
DAV:   5    -0.359442855969E+02   -0.86499E-05   -0.39436E-06    76   0.196E-02    0.293E-03
DAV:   6    -0.359442924784E+02   -0.68815E-05   -0.72871E-07    80   0.925E-03
   2 F= -.35944292E+02 E0= -.35944292E+02  d E =0.123709E-02
       N       E                     dE             d eps       ncg     rms          rms(c)
DAV:   1    -0.359417772043E+02    0.25084E-02   -0.34119E-02    96   0.180E+00    0.672E-02
DAV:   2    -0.359417098232E+02    0.67381E-04   -0.45932E-04   128   0.183E-01    0.386E-02
DAV:   3    -0.359417015753E+02    0.82478E-05   -0.14962E-04    96   0.864E-02    0.146E-02
DAV:   4    -0.359417048375E+02   -0.32622E-05   -0.17153E-05    72   0.386E-02    0.832E-03
DAV:   5    -0.359417076708E+02   -0.28333E-05   -0.38970E-06    64   0.173E-02    0.248E-03
DAV:   6    -0.359417089483E+02   -0.12775E-05   -0.74326E-07    64   0.780E-03
   3 F= -.35941709E+02 E0= -.35941709E+02  d E =0.258353E-02
       N       E                     dE             d eps       ncg     rms          rms(c)
DAV:   1    -0.359387090347E+02    0.29986E-02   -0.31418E-02    96   0.170E+00    0.649E-02
DAV:   2    -0.359386211972E+02    0.87838E-04   -0.36854E-04   120   0.188E-01    0.333E-02
DAV:   3    -0.359386158321E+02    0.53650E-05   -0.14760E-04    88   0.848E-02    0.142E-02
DAV:   4    -0.359386191463E+02   -0.33142E-05   -0.14633E-05    68   0.363E-02    0.916E-03
DAV:   5    -0.359386214109E+02   -0.22646E-05   -0.38093E-06    76   0.180E-02    0.150E-03
DAV:   6    -0.359386224513E+02   -0.10404E-05   -0.57158E-07    48   0.729E-03
   4 F= -.35938622E+02 E0= -.35938622E+02  d E =0.308650E-02
       N       E                     dE             d eps       ncg     rms          rms(c)
DAV:   1    -0.359392797521E+02   -0.65834E-03   -0.81999E-04   112   0.259E-01    0.883E-03
DAV:   2    -0.359392800407E+02   -0.28861E-06   -0.11159E-05    64   0.273E-02    0.520E-03
DAV:   3    -0.359392810708E+02   -0.10301E-05   -0.23324E-06    88   0.134E-02    0.170E-03
DAV:   4    -0.359392818688E+02   -0.79803E-06   -0.53274E-07    60   0.624E-03    0.837E-04
DAV:   5    -0.359392824109E+02   -0.54207E-06   -0.10922E-07    48   0.262E-03    0.406E-04
DAV:   6    -0.359392830237E+02   -0.61282E-06   -0.54444E-08    76   0.146E-03
   5 F= -.35939283E+02 E0= -.35939283E+02  d E =-.660572E-03
       N       E                     dE             d eps       ncg     rms          rms(c)
DAV:   1    -0.359412974838E+02   -0.20151E-02   -0.40671E-03    96   0.589E-01    0.172E-02
DAV:   2    -0.359412970311E+02    0.45265E-06   -0.47775E-05    76   0.594E-02    0.990E-03
DAV:   3    -0.359412977888E+02   -0.75761E-06   -0.75057E-06    96   0.244E-02    0.350E-03
DAV:   4    -0.359412984707E+02   -0.68191E-06   -0.20151E-06    64   0.120E-02    0.119E-03
DAV:   5    -0.359412986871E+02   -0.21641E-06   -0.42165E-07    68   0.524E-03    0.477E-04
DAV:   6    -0.359412988469E+02   -0.15979E-06   -0.13617E-07    68   0.261E-03
   6 F= -.35941299E+02 E0= -.35941299E+02  d E =-.201582E-02
       N       E                     dE             d eps       ncg     rms          rms(c)
DAV:   1    -0.359449083158E+02   -0.36096E-02   -0.92893E-03    96   0.904E-01    0.249E-02
DAV:   2    -0.359449053313E+02    0.29846E-05   -0.97930E-05    64   0.904E-02    0.137E-02
DAV:   3    -0.359449069071E+02   -0.15758E-05   -0.13547E-05    96   0.329E-02    0.678E-03
DAV:   4    -0.359449084496E+02   -0.15425E-05   -0.45738E-06    72   0.180E-02    0.156E-03
DAV:   5    -0.359449086236E+02   -0.17400E-06   -0.97534E-07    72   0.796E-03    0.828E-04
DAV:   6    -0.359449088220E+02   -0.19835E-06   -0.29917E-07    56   0.393E-03
   7 F= -.35944909E+02 E0= -.35944909E+02  d E =-.360998E-02
       N       E                     dE             d eps       ncg     rms          rms(c)
DAV:   1    -0.359503066766E+02   -0.53981E-02   -0.16581E-02    96   0.122E+00    0.341E-02
DAV:   2    -0.359502978197E+02    0.88569E-05   -0.18326E-04    96   0.123E-01    0.185E-02
DAV:   3    -0.359502987978E+02   -0.97812E-06   -0.98730E-06    64   0.310E-02    0.104E-02
DAV:   4    -0.359503019858E+02   -0.31879E-05   -0.52235E-06    80   0.205E-02    0.190E-03
DAV:   5    -0.359503021744E+02   -0.18866E-06   -0.90452E-07    48   0.853E-03    0.114E-03
DAV:   6    -0.359503025805E+02   -0.40613E-06   -0.23156E-07    64   0.372E-03
   8 F= -.35950303E+02 E0= -.35950303E+02  d E =-.539376E-02
       N       E                     dE             d eps       ncg     rms          rms(c)
DAV:   1    -0.359576035542E+02   -0.73014E-02   -0.25965E-02    96   0.153E+00    0.443E-02
DAV:   2    -0.359575832256E+02    0.20329E-04   -0.27266E-04    96   0.155E-01    0.233E-02
DAV:   3    -0.359575847169E+02   -0.14913E-05   -0.16955E-05    64   0.411E-02    0.132E-02
DAV:   4    -0.359575903153E+02   -0.55984E-05   -0.80449E-06    88   0.261E-02    0.232E-03
DAV:   5    -0.359575906015E+02   -0.28620E-06   -0.14127E-06    48   0.109E-02    0.144E-03
DAV:   6    -0.359575912011E+02   -0.59966E-06   -0.34169E-07    48   0.464E-03
   9 F= -.35957591E+02 E0= -.35957591E+02  d E =-.728862E-02
       N       E                     dE             d eps       ncg     rms          rms(c)
DAV:   1    -0.359666076987E+02   -0.90171E-02   -0.35995E-02    96   0.180E+00    0.525E-02
DAV:   2    -0.359665789205E+02    0.28778E-04   -0.36036E-04    96   0.179E-01    0.273E-02
DAV:   3    -0.359665813998E+02   -0.24793E-05   -0.22283E-05    64   0.471E-02    0.154E-02
DAV:   4    -0.359665893047E+02   -0.79048E-05   -0.10046E-05    96   0.293E-02    0.254E-03
DAV:   5    -0.359665897625E+02   -0.45787E-06   -0.17515E-06    48   0.121E-02    0.160E-03
DAV:   6    -0.359665906325E+02   -0.86994E-06   -0.41773E-07    48   0.513E-03
  10 F= -.35966591E+02 E0= -.35966591E+02  d E =-.899943E-02
       N       E                     dE             d eps       ncg     rms          rms(c)
DAV:   1    -0.359783117234E+02   -0.11722E-01   -0.56149E-02    96   0.223E+00    0.645E-02
DAV:   2    -0.359782739811E+02    0.37742E-04   -0.53654E-04    96   0.216E-01    0.340E-02
DAV:   3    -0.359782793979E+02   -0.54169E-05   -0.30023E-05    72   0.541E-02    0.187E-02
DAV:   4    -0.359782913116E+02   -0.11914E-04   -0.13280E-05    92   0.335E-02    0.291E-03
DAV:   5    -0.359782920661E+02   -0.75446E-06   -0.22469E-06    48   0.134E-02    0.183E-03
DAV:   6    -0.359782934101E+02   -0.13440E-05   -0.55209E-07    64   0.592E-03
  11 F= -.35978293E+02 E0= -.35978293E+02  d E =-.117028E-01
       N       E                     dE             d eps       ncg     rms          rms(c)
DAV:   1    -0.359928787582E+02   -0.14587E-01   -0.80950E-02    96   0.267E+00    0.767E-02
DAV:   2    -0.359928326742E+02    0.46084E-04   -0.74496E-04   120   0.249E-01    0.411E-02
DAV:   3    -0.359928424094E+02   -0.97352E-05   -0.38315E-05    64   0.601E-02    0.217E-02
DAV:   4    -0.359928583953E+02   -0.15986E-04   -0.16763E-05    80   0.375E-02    0.354E-03
DAV:   5    -0.359928596148E+02   -0.12195E-05   -0.28232E-06    48   0.149E-02    0.213E-03
DAV:   6    -0.359928617042E+02   -0.20894E-05   -0.73786E-07    64   0.718E-03
  12 F= -.35992862E+02 E0= -.35992862E+02  d E =-.145683E-01
       N       E                     dE             d eps       ncg     rms          rms(c)
DAV:   1    -0.360100650089E+02   -0.17205E-01   -0.10499E-01    96   0.301E+00    0.876E-02
DAV:   2    -0.360100011995E+02    0.63809E-04   -0.91041E-04   128   0.273E-01    0.471E-02
DAV:   3    -0.360100153024E+02   -0.14103E-04   -0.48343E-05    64   0.672E-02    0.244E-02
DAV:   4    -0.360100357930E+02   -0.20491E-04   -0.18176E-05    80   0.399E-02    0.404E-03
DAV:   5    -0.360100375487E+02   -0.17558E-05   -0.32013E-06    48   0.158E-02    0.231E-03
DAV:   6    -0.360100402629E+02   -0.27142E-05   -0.88267E-07    64   0.770E-03
  13 F= -.36010040E+02 E0= -.36010040E+02  d E =-.171786E-01
       N       E                     dE             d eps       ncg     rms          rms(c)
DAV:   1    -0.360290308276E+02   -0.18993E-01   -0.12432E-01    96   0.325E+00    0.954E-02
DAV:   2    -0.360289512509E+02    0.79577E-04   -0.10338E-03   128   0.288E-01    0.518E-02
DAV:   3    -0.360289676908E+02   -0.16440E-04   -0.56359E-05    72   0.722E-02    0.264E-02
DAV:   4    -0.360289924282E+02   -0.24737E-04   -0.18845E-05    80   0.420E-02    0.447E-03
DAV:   5    -0.360289946729E+02   -0.22448E-05   -0.35881E-06    56   0.167E-02    0.248E-03
DAV:   6    -0.360289977946E+02   -0.31216E-05   -0.96804E-07    56   0.781E-03
  14 F= -.36028998E+02 E0= -.36028998E+02  d E =-.189575E-01
       N       E                     dE             d eps       ncg     rms          rms(c)
DAV:   1    -0.360479970948E+02   -0.19002E-01   -0.13162E-01    96   0.332E+00    0.950E-02
DAV:   2    -0.360479368648E+02    0.60230E-04   -0.11206E-03   128   0.287E-01    0.538E-02
DAV:   3    -0.360479585576E+02   -0.21693E-04   -0.52160E-05    80   0.685E-02    0.247E-02
DAV:   4    -0.360479813371E+02   -0.22779E-04   -0.17024E-05    92   0.402E-02    0.499E-03
DAV:   5    -0.360479838134E+02   -0.24763E-05   -0.32797E-06    48   0.160E-02    0.261E-03
DAV:   6    -0.360479874421E+02   -0.36287E-05   -0.10286E-06    64   0.798E-03
  15 F= -.36047987E+02 E0= -.36047987E+02  d E =-.189896E-01
       N       E                     dE             d eps       ncg     rms          rms(c)
DAV:   1    -0.360477154400E+02    0.26837E-03   -0.93760E-05    48   0.940E-02    0.278E-03
DAV:   2    -0.360477176225E+02   -0.21824E-05   -0.41051E-06    52   0.210E-02    0.138E-03
DAV:   3    -0.360477192331E+02   -0.16107E-05   -0.54853E-07    48   0.663E-03    0.992E-04
DAV:   4    -0.360477216036E+02   -0.23704E-05   -0.18484E-07    76   0.318E-03    0.461E-04
DAV:   5    -0.360477240379E+02   -0.24343E-05   -0.12745E-07    68   0.201E-03    0.197E-04
DAV:   6    -0.360477265716E+02   -0.25338E-05   -0.11379E-07    76   0.162E-03
  16 F= -.36047727E+02 E0= -.36047727E+02  d E =0.260870E-03
       N       E                     dE             d eps       ncg     rms          rms(c)
DAV:   1    -0.360471913951E+02    0.53264E-03   -0.37988E-04   112   0.185E-01    0.515E-03
DAV:   2    -0.360471916344E+02   -0.23931E-06   -0.41908E-06    64   0.196E-02    0.263E-03
DAV:   3    -0.360471920141E+02   -0.37975E-06   -0.62100E-07    48   0.712E-03    0.152E-03
DAV:   4    -0.360471926769E+02   -0.66279E-06   -0.20718E-07    64   0.392E-03    0.374E-04
DAV:   5    -0.360471929864E+02   -0.30951E-06   -0.55346E-08    48   0.184E-03    0.201E-04
DAV:   6    -0.360471932337E+02   -0.24730E-06   -0.22188E-08    48   0.932E-04
  17 F= -.36047193E+02 E0= -.36047193E+02  d E =0.533338E-03
       N       E                     dE             d eps       ncg     rms          rms(c)
DAV:   1    -0.360464098872E+02    0.78310E-03   -0.82386E-04    96   0.272E-01    0.738E-03
DAV:   2    -0.360464096228E+02    0.26445E-06   -0.89299E-06    68   0.281E-02    0.387E-03
DAV:   3    -0.360464098600E+02   -0.23716E-06   -0.12338E-06    48   0.101E-02    0.220E-03
DAV:   4    -0.360464102112E+02   -0.35121E-06   -0.38943E-07    64   0.544E-03    0.509E-04
DAV:   5    -0.360464103035E+02   -0.92294E-07   -0.95114E-08    48   0.246E-03    0.275E-04
DAV:   6    -0.360464103825E+02   -0.79025E-07   -0.33343E-08    64   0.121E-03
  18 F= -.36046410E+02 E0= -.36046410E+02  d E =0.782851E-03
       N       E                     dE             d eps       ncg     rms          rms(c)
DAV:   1    -0.360454057594E+02    0.10045E-02   -0.14080E-03    96   0.354E-01    0.946E-03
DAV:   2    -0.360454053052E+02    0.45420E-06   -0.15271E-05    64   0.361E-02    0.503E-03
DAV:   3    -0.360454055760E+02   -0.27086E-06   -0.20180E-06    48   0.129E-02    0.278E-03
DAV:   4    -0.360454058973E+02   -0.32125E-06   -0.63910E-07    64   0.689E-03    0.642E-04
DAV:   5    -0.360454059309E+02   -0.33668E-07   -0.15387E-07    48   0.308E-03    0.341E-04
DAV:   6    -0.360454059730E+02   -0.42054E-07   -0.55651E-08    48   0.152E-03
  19 F= -.36045406E+02 E0= -.36045406E+02  d E =0.100441E-02
       N       E                     dE             d eps       ncg     rms          rms(c)
DAV:   1    -0.360442135553E+02    0.11924E-02   -0.20886E-03    96   0.429E-01    0.115E-02
DAV:   2    -0.360442130985E+02    0.45674E-06   -0.22780E-05    64   0.435E-02    0.615E-03
DAV:   3    -0.360442134565E+02   -0.35798E-06   -0.29359E-06    52   0.155E-02    0.330E-03
DAV:   4    -0.360442138548E+02   -0.39825E-06   -0.93652E-07    56   0.828E-03    0.777E-04
DAV:   5    -0.360442138908E+02   -0.35983E-07   -0.22347E-07    48   0.367E-03    0.405E-04
DAV:   6    -0.360442139457E+02   -0.54958E-07   -0.80461E-08    48   0.182E-03
  20 F= -.36044214E+02 E0= -.36044214E+02  d E =0.119203E-02
       N       E                     dE             d eps       ncg     rms          rms(c)
DAV:   1    -0.360428791880E+02    0.13347E-02   -0.27916E-03    96   0.495E-01    0.132E-02
DAV:   2    -0.360428787212E+02    0.46682E-06   -0.30578E-05    64   0.501E-02    0.713E-03
DAV:   3    -0.360428791867E+02   -0.46547E-06   -0.39003E-06    48   0.178E-02    0.379E-03
DAV:   4    -0.360428797067E+02   -0.52001E-06   -0.12331E-06    48   0.952E-03    0.910E-04
DAV:   5    -0.360428797627E+02   -0.56079E-07   -0.29154E-07    48   0.421E-03    0.467E-04
DAV:   6    -0.360428798410E+02   -0.78231E-07   -0.10194E-07    48   0.209E-03
  21 F= -.36042880E+02 E0= -.36042880E+02  d E =0.133410E-02
       N       E                     dE             d eps       ncg     rms          rms(c)
DAV:   1    -0.360413152812E+02    0.15645E-02   -0.42349E-03    96   0.609E-01    0.163E-02
DAV:   2    -0.360413145148E+02    0.76637E-06   -0.46580E-05    64   0.620E-02    0.876E-03
DAV:   3    -0.360413152033E+02   -0.68855E-06   -0.59425E-06    52   0.220E-02    0.475E-03
DAV:   4    -0.360413159990E+02   -0.79563E-06   -0.18314E-06    48   0.117E-02    0.116E-03
DAV:   5    -0.360413160871E+02   -0.88110E-07   -0.43294E-07    48   0.519E-03    0.586E-04
DAV:   6    -0.360413161904E+02   -0.10329E-06   -0.14437E-07    48   0.258E-03
  22 F= -.36041316E+02 E0= -.36041316E+02  d E =0.156365E-02
       N       E                     dE             d eps       ncg     rms          rms(c)
DAV:   1    -0.360396076035E+02    0.17085E-02   -0.60531E-03    96   0.726E-01    0.196E-02
DAV:   2    -0.360396063013E+02    0.13021E-05   -0.67355E-05    64   0.746E-02    0.105E-02
DAV:   3    -0.360396072507E+02   -0.94934E-06   -0.86263E-06    64   0.265E-02    0.584E-03
DAV:   4    -0.360396084233E+02   -0.11727E-05   -0.25682E-06    48   0.140E-02    0.147E-03
DAV:   5    -0.360396085660E+02   -0.14267E-06   -0.61747E-07    48   0.624E-03    0.722E-04
DAV:   6    -0.360396087010E+02   -0.13496E-06   -0.19824E-07    48   0.311E-03
  23 F= -.36039609E+02 E0= -.36039609E+02  d E =0.170749E-02
       N       E                     dE             d eps       ncg     rms          rms(c)
DAV:   1    -0.360380379858E+02    0.15706E-02   -0.81823E-03    96   0.835E-01    0.223E-02
DAV:   2    -0.360380373786E+02    0.60724E-06   -0.92053E-05    64   0.851E-02    0.121E-02
DAV:   3    -0.360380386308E+02   -0.12522E-05   -0.11348E-05    64   0.302E-02    0.667E-03
DAV:   4    -0.360380401274E+02   -0.14966E-05   -0.32217E-06    48   0.158E-02    0.183E-03
DAV:   5    -0.360380403558E+02   -0.22835E-06   -0.80307E-07    48   0.698E-03    0.832E-04
DAV:   6    -0.360380405385E+02   -0.18276E-06   -0.25637E-07    48   0.352E-03
  24 F= -.36038041E+02 E0= -.36038041E+02  d E =0.156816E-02
       N       E                     dE             d eps       ncg     rms          rms(c)
DAV:   1    -0.360370729976E+02    0.96736E-03   -0.95555E-03    96   0.880E-01    0.229E-02
DAV:   2    -0.360370759534E+02   -0.29558E-05   -0.11987E-04    96   0.874E-02    0.135E-02
DAV:   3    -0.360370761631E+02   -0.20971E-06   -0.34859E-06    64   0.187E-02    0.727E-03
DAV:   4    -0.360370777028E+02   -0.15397E-05   -0.23727E-06    64   0.143E-02    0.145E-03
DAV:   5    -0.360370778805E+02   -0.17774E-06   -0.56097E-07    48   0.643E-03    0.812E-04
DAV:   6    -0.360370780927E+02   -0.21216E-06   -0.11522E-07    48   0.272E-03
  25 F= -.36037078E+02 E0= -.36037078E+02  d E =0.962446E-03
       N       E                     dE             d eps       ncg     rms          rms(c)
DAV:   1    -0.360371923195E+02   -0.11444E-03   -0.46971E-06    48   0.209E-02    0.661E-04
DAV:   2    -0.360371924513E+02   -0.13181E-06   -0.20171E-07    48   0.442E-03    0.317E-04
DAV:   3    -0.360371925854E+02   -0.13406E-06   -0.46171E-08    48   0.143E-03    0.181E-04
DAV:   4    -0.360371927548E+02   -0.16941E-06   -0.28168E-08    48   0.723E-04    0.682E-05
DAV:   5    -0.360371928889E+02   -0.13405E-06   -0.23063E-08    48   0.393E-04    0.404E-05
DAV:   6    -0.360371930954E+02   -0.20653E-06   -0.22579E-08    80   0.330E-04
  26 F= -.36037193E+02 E0= -.36037193E+02  d E =-.115003E-03
       N       E                     dE             d eps       ncg     rms          rms(c)
DAV:   1    -0.360374736445E+02   -0.28076E-03   -0.27086E-05    48   0.498E-02    0.149E-03
DAV:   2    -0.360374737352E+02   -0.90727E-07   -0.10073E-06    48   0.104E-02    0.726E-04
DAV:   3    -0.360374738008E+02   -0.65583E-07   -0.14179E-07    48   0.319E-03    0.406E-04
DAV:   4    -0.360374738624E+02   -0.61579E-07   -0.46240E-08    48   0.146E-03    0.129E-04
DAV:   5    -0.360374739034E+02   -0.40991E-07   -0.24107E-08    48   0.673E-04    0.689E-05
DAV:   6    -0.360374739561E+02   -0.52680E-07   -0.17744E-08    64   0.382E-04
  27 F= -.36037474E+02 E0= -.36037474E+02  d E =-.280861E-03
       N       E                     dE             d eps       ncg     rms          rms(c)
DAV:   1    -0.360379750906E+02   -0.50119E-03   -0.84233E-05    48   0.872E-02    0.260E-03
DAV:   2    -0.360379752353E+02   -0.14472E-06   -0.30708E-06    64   0.181E-02    0.128E-03
DAV:   3    -0.360379753047E+02   -0.69350E-07   -0.39703E-07    48   0.555E-03    0.701E-04
DAV:   4    -0.360379753277E+02   -0.23088E-07   -0.10373E-07    48   0.253E-03    0.214E-04
DAV:   5    -0.360379753352E+02   -0.74147E-08   -0.38705E-08    48   0.116E-03    0.115E-04
DAV:   6    -0.360379753439E+02   -0.87069E-08   -0.21740E-08    48   0.638E-04
  28 F= -.36037975E+02 E0= -.36037975E+02  d E =-.501388E-03
