 vasp.5.4.1 24Jun15 (build Jan 13 2020 12:58:22) complex                        
  
 executed on           IFC91_ompi date 2020.02.03  02:42:24
 running on   15 total cores
 each image running on    1 cores
 distrk:  each k-point on    1 cores,    1 groups
 distr:  one band on NCORES_PER_BAND=   1 cores,    1 groups


--------------------------------------------------------------------------------------------------------


 INCAR:
 POTCAR:    PAW_PBE H 15Jun2001                   
 POTCAR:    PAW_PBE C 08Apr2002                   
 POTCAR:    PAW_PBE N 08Apr2002                   
 POTCAR:    PAW_PBE H 15Jun2001                   
   VRHFIN =H: ultrasoft test                                                    
   LEXCH  = PE                                                                  
   EATOM  =    12.4884 eV,    0.9179 Ry                                         
                                                                                
   TITEL  = PAW_PBE H 15Jun2001                                                 
   LULTRA =        F    use ultrasoft PP ?                                      
   IUNSCR =        0    unscreen: 0-lin 1-nonlin 2-no                           
   RPACOR =    0.000    partial core radius                                     
   POMASS =    1.000; ZVAL   =    1.000    mass and valenz                      
   RCORE  =    1.100    outmost cutoff radius                                   
   RWIGS  =    0.700; RWIGS  =    0.370    wigner-seitz radius (au A)           
   ENMAX  =  250.000; ENMIN  =  200.000 eV                                      
   RCLOC  =    0.701    cutoff for local pot                                    
   LCOR   =        T    correct aug charges                                     
   LPAW   =        T    paw PP                                                  
   EAUG   =  400.000                                                            
   RMAX   =    1.123    core radius for proj-oper                               
   RAUG   =    1.200    factor for augmentation sphere                          
   RDEP   =    1.112    radius for radial grids                                 
   RDEPT  =    0.926    core radius for aug-charge                              
                                                                                
   Atomic configuration                                                         
    2 entries                                                                   
     n  l   j            E        occ.                                          
     1  0  0.50        -6.4927   1.0000                                         
     2  1  0.50        -3.4015   0.0000                                         
   Description                                                                  
     l       E           TYP  RCUT    TYP  RCUT                                 
     0     -6.4927494     23  1.100                                             
     0      6.8029130     23  1.100                                             
     1     -4.0817478     23  1.100                                             
  local pseudopotential read in
  atomic valenz-charges read in
  non local Contribution for L=           0  read in
    real space projection operators read in
  non local Contribution for L=           0  read in
    real space projection operators read in
  non local Contribution for L=           1  read in
    real space projection operators read in
    PAW grid and wavefunctions read in
 
   number of l-projection  operators is LMAX  =           3
   number of lm-projection operators is LMMAX =           5
 
 POTCAR:    PAW_PBE C 08Apr2002                   
   VRHFIN =C: s2p2                                                              
   LEXCH  = PE                                                                  
   EATOM  =   147.1560 eV,   10.8157 Ry                                         
                                                                                
   TITEL  = PAW_PBE C 08Apr2002                                                 
   LULTRA =        F    use ultrasoft PP ?                                      
   IUNSCR =        1    unscreen: 0-lin 1-nonlin 2-no                           
   RPACOR =    1.200    partial core radius                                     
   POMASS =   12.011; ZVAL   =    4.000    mass and valenz                      
   RCORE  =    1.500    outmost cutoff radius                                   
   RWIGS  =    1.630; RWIGS  =    0.863    wigner-seitz radius (au A)           
   ENMAX  =  400.000; ENMIN  =  300.000 eV                                      
   ICORE  =        2    local potential                                         
   LCOR   =        T    correct aug charges                                     
   LPAW   =        T    paw PP                                                  
   EAUG   =  644.873                                                            
   DEXC   =    0.000                                                            
   RMAX   =    1.529    core radius for proj-oper                               
   RAUG   =    1.300    factor for augmentation sphere                          
   RDEP   =    1.501    radius for radial grids                                 
   RDEPT  =    1.300    core radius for aug-charge                              
                                                                                
   Atomic configuration                                                         
    4 entries                                                                   
     n  l   j            E        occ.                                          
     1  0  0.50      -273.3789   2.0000                                         
     2  0  0.50       -13.7508   2.0000                                         
     2  1  0.50        -5.2854   2.0000                                         
     3  2  1.50        -5.4423   0.0000                                         
   Description                                                                  
     l       E           TYP  RCUT    TYP  RCUT                                 
     0    -13.7508458     23  1.200                                             
     0     -8.2022199     23  1.200                                             
     1     -5.2854383     23  1.500                                             
     1     34.0145650     23  1.500                                             
     2     -5.4423304      7  1.500                                             
  local pseudopotential read in
  partial core-charges read in
  partial kinetic energy density read in
  atomic valenz-charges read in
  non local Contribution for L=           0  read in
    real space projection operators read in
  non local Contribution for L=           0  read in
    real space projection operators read in
  non local Contribution for L=           1  read in
    real space projection operators read in
  non local Contribution for L=           1  read in
    real space projection operators read in
    PAW grid and wavefunctions read in
 
   number of l-projection  operators is LMAX  =           4
   number of lm-projection operators is LMMAX =           8
 
 POTCAR:    PAW_PBE N 08Apr2002                   
   VRHFIN =N: s2p3                                                              
   LEXCH  = PE                                                                  
   EATOM  =   264.5486 eV,   19.4438 Ry                                         
                                                                                
   TITEL  = PAW_PBE N 08Apr2002                                                 
   LULTRA =        F    use ultrasoft PP ?                                      
   IUNSCR =        1    unscreen: 0-lin 1-nonlin 2-no                           
   RPACOR =    1.200    partial core radius                                     
   POMASS =   14.001; ZVAL   =    5.000    mass and valenz                      
   RCORE  =    1.500    outmost cutoff radius                                   
   RWIGS  =    1.400; RWIGS  =    0.741    wigner-seitz radius (au A)           
   ENMAX  =  400.000; ENMIN  =  300.000 eV                                      
   ICORE  =        2    local potential                                         
   LCOR   =        T    correct aug charges                                     
   LPAW   =        T    paw PP                                                  
   EAUG   =  627.112                                                            
   DEXC   =    0.000                                                            
   RMAX   =    1.529    core radius for proj-oper                               
   RAUG   =    1.300    factor for augmentation sphere                          
   RDEP   =    1.514    radius for radial grids                                 
   RDEPT  =    1.338    core radius for aug-charge                              
                                                                                
   Atomic configuration                                                         
    4 entries                                                                   
     n  l   j            E        occ.                                          
     1  0  0.50      -384.7179   2.0000                                         
     2  0  0.50       -18.5828   2.0000                                         
     2  1  0.50        -7.0898   3.0000                                         
     3  2  1.50        -6.8029   0.0000                                         
   Description                                                                  
     l       E           TYP  RCUT    TYP  RCUT                                 
     0    -18.5828119     23  1.200                                             
     0    -13.5018863     23  1.200                                             
     1     -7.0897853     23  1.500                                             
     1      9.5240782     23  1.500                                             
     2     -6.8029130      7  1.500                                             
  local pseudopotential read in
  partial core-charges read in
  partial kinetic energy density read in
  atomic valenz-charges read in
  non local Contribution for L=           0  read in
    real space projection operators read in
  non local Contribution for L=           0  read in
    real space projection operators read in
  non local Contribution for L=           1  read in
    real space projection operators read in
  non local Contribution for L=           1  read in
    real space projection operators read in
    PAW grid and wavefunctions read in
 
   number of l-projection  operators is LMAX  =           4
   number of lm-projection operators is LMMAX =           8
 

 ----------------------------------------------------------------------------- 
|                                                                             |
|  ADVICE TO THIS USER RUNNING 'VASP/VAMP'   (HEAR YOUR MASTER'S VOICE ...):  |
|                                                                             |
|      You have a (more or less) 'small supercell' and for smaller cells      |
|      it is recommended  to use the reciprocal-space projection scheme!      |
|      The real space optimization is not  efficient for small cells and it   |
|      is also less accurate ...                                              |
|      Therefore set LREAL=.FALSE. in the  INCAR file                         |
|                                                                             |
 ----------------------------------------------------------------------------- 

 Optimization of the real space projectors (new method)

 maximal supplied QI-value         = 34.20
 optimisation between [QCUT,QGAM] = [  9.92, 20.18] = [ 27.55,114.04] Ry 
 Optimized for a Real-space Cutoff    1.26 Angstroem

   l    n(q)    QCUT    max X(q) W(low)/X(q) W(high)/X(q)  e(spline) 
   0      8     9.919    19.460    0.50E-03    0.23E-03    0.29E-06
   0      8     9.919    12.209    0.48E-03    0.23E-03    0.28E-06
   1      7     9.919     4.655    0.17E-03    0.75E-03    0.30E-06
 Optimization of the real space projectors (new method)

 maximal supplied QI-value         = 25.13
 optimisation between [QCUT,QGAM] = [ 10.05, 20.36] = [ 28.30,116.06] Ry 
 Optimized for a Real-space Cutoff    1.30 Angstroem

   l    n(q)    QCUT    max X(q) W(low)/X(q) W(high)/X(q)  e(spline) 
   0      8    10.053   115.676    0.49E-03    0.72E-03    0.18E-06
   0      8    10.053    87.132    0.49E-03    0.71E-03    0.18E-06
   1      7    10.053     4.429    0.32E-03    0.31E-03    0.18E-06
   1      7    10.053     2.733    0.23E-03    0.19E-03    0.20E-06
 Optimization of the real space projectors (new method)

 maximal supplied QI-value         = 25.13
 optimisation between [QCUT,QGAM] = [ 10.05, 20.36] = [ 28.30,116.06] Ry 
 Optimized for a Real-space Cutoff    1.65 Angstroem

   l    n(q)    QCUT    max X(q) W(low)/X(q) W(high)/X(q)  e(spline) 
   0     10    10.053    79.467    0.76E-04    0.72E-04    0.56E-06
   0     10    10.053    66.151    0.76E-04    0.72E-04    0.55E-06
   1     10    10.053     8.350    0.25E-03    0.92E-03    0.41E-05
   1     10    10.053     5.531    0.27E-03    0.10E-02    0.45E-05
  PAW_PBE H 15Jun2001                   :
 energy of atom  1       EATOM=  -12.4884
 kinetic energy error for atom=    0.0098 (will be added to EATOM!!)
  PAW_PBE C 08Apr2002                   :
 energy of atom  2       EATOM= -147.1560
 kinetic energy error for atom=    0.0288 (will be added to EATOM!!)
  PAW_PBE N 08Apr2002                   :
 energy of atom  3       EATOM= -264.5486
 kinetic energy error for atom=    0.0736 (will be added to EATOM!!)
 
 
 POSCAR: H3 C2 N1                                
  positions in direct lattice
  velocities in cartesian coordinates
 exchange correlation table for  LEXCH =        8
   RHO(1)=    0.500       N(1)  =     2000
   RHO(2)=  100.500       N(2)  =     4000

 VTST: version 3.2, (02/03/18)

 CHAIN: initializing optimizer
 
 OPT: Using FIRE optimizer
 OPT: FIRE, Init
 OPT: FIRE, MAXMOVE       0.20000
 OPT: FIRE, TIMESTEP      0.10000
 OPT: FIRE, FTIMEMAX      1.00000
 OPT: FIRE, FTIMEINC      1.10000
 OPT: FIRE, FTIMEDEC      0.50000
 OPT: FIRE, FALPHADEC     0.99000
 OPT: FIRE, FALPHA        0.10000
 OPT: FIRE, FNMIN         5
 
 CHAIN: Read ICHAIN            0
 CHAIN: Running the NEB
 NEB:          SPRING     -5.000000
 NEB:          LCLIMB      T
 NEB:     LTANGENTOLD      F
 NEB:           LDNEB      F
 NEB:        LDNEBORG      F
 NEB:        LNEBCELL      F
 NEB:          EFIRST      0.000000
 NEB:           ELAST      0.000000
 
 POSCAR: H3 C2 N1                                
  positions in direct lattice
  No initial velocities read in
 
 POSCAR: H3 C2 N1                                
  positions in direct lattice
  No initial velocities read in
 


--------------------------------------------------------------------------------------------------------


 ion  position               nearest neighbor table
   1  0.470  0.464  0.504-   4 1.10
   2  0.473  0.509  0.463-   4 1.09
   3  0.476  0.521  0.521-   4 1.11
   4  0.484  0.497  0.495-   2 1.09   1 1.10   3 1.11   5 1.47
   5  0.533  0.495  0.497-   6 1.17   4 1.47
   6  0.561  0.512  0.519-   5 1.17
 
  LATTYP: Found a simple cubic cell.
 ALAT       =    30.0000000000
  
  Lattice vectors:
  
 A1 = (  30.0000000000,   0.0000000000,   0.0000000000)
 A2 = (   0.0000000000,  30.0000000000,   0.0000000000)
 A3 = (   0.0000000000,   0.0000000000,  30.0000000000)


Analysis of symmetry for initial positions (statically):
=====================================================================
 Subroutine PRICEL returns:
 Original cell was already a primitive cell.
 

 Routine SETGRP: Setting up the symmetry group for a 
 simple cubic supercell.


 Subroutine GETGRP returns: Found  1 space group operations
 (whereof  1 operations were pure point group operations)
 out of a pool of 48 trial point group operations.


The static configuration has the point symmetry C_1 .


Analysis of symmetry for dynamics (positions and initial velocities):
=====================================================================
 Subroutine PRICEL returns:
 Original cell was already a primitive cell.
 

 Routine SETGRP: Setting up the symmetry group for a 
 simple cubic supercell.


 Subroutine GETGRP returns: Found  1 space group operations
 (whereof  1 operations were pure point group operations)
 out of a pool of 48 trial point group operations.


The dynamic configuration has the point symmetry C_1 .
 
 
 KPOINTS: Mo2C                                    

Automatic generation of k-mesh.
Space group operators:
 irot       det(A)        alpha          n_x          n_y          n_z        tau_x        tau_y        tau_z
    1     1.000000     0.000000     1.000000     0.000000     0.000000     0.000000     0.000000     0.000000
 
 Subroutine IBZKPT returns following result:
 ===========================================
 
 Found      4 irreducible k-points:
 
 Following reciprocal coordinates:
            Coordinates               Weight
  0.250000  0.250000  0.250000      2.000000
 -0.250000  0.250000  0.250000      2.000000
  0.250000 -0.250000  0.250000      2.000000
 -0.250000 -0.250000  0.250000      2.000000
 
 Following cartesian coordinates:
            Coordinates               Weight
  0.008333  0.008333  0.008333      2.000000
 -0.008333  0.008333  0.008333      2.000000
  0.008333 -0.008333  0.008333      2.000000
 -0.008333 -0.008333  0.008333      2.000000
 


--------------------------------------------------------------------------------------------------------




 Dimension of arrays:
   k-points           NKPTS =      4   k-points in BZ     NKDIM =      4   number of bands    NBANDS=     12
   number of dos      NEDOS =    301   number of ions     NIONS =      6
   non local maximal  LDIM  =      4   non local SUM 2l+1 LMDIM =      8
   total plane-waves  NPLWV = ******
   max r-space proj   IRMAX =   2395   max aug-charges    IRDMAX=   1738
   dimension x,y,z NGX =   150 NGY =  150 NGZ =  150
   dimension x,y,z NGXF=   300 NGYF=  300 NGZF=  300
   support grid    NGXF=   300 NGYF=  300 NGZF=  300
   ions per type =               3   2   1
 NGX,Y,Z   is equivalent  to a cutoff of   8.31,  8.31,  8.31 a.u.
 NGXF,Y,Z  is equivalent  to a cutoff of  16.62, 16.62, 16.62 a.u.


 I would recommend the setting:
   dimension x,y,z NGX =   147 NGY =  147 NGZ =  147
 SYSTEM =  unknown system                          
 POSCAR =  H3 C2 N1                                

 Startparameter for this run:
   NWRITE =      2    write-flag & timer
   PREC   = normal    normal or accurate (medium, high low for compatibility)
   ISTART =      0    job   : 0-new  1-cont  2-samecut
   ICHARG =      2    charge: 1-file 2-atom 10-const
   ISPIN  =      1    spin polarized calculation?
   LNONCOLLINEAR =      F non collinear calculations
   LSORBIT =      F    spin-orbit coupling
   INIWAV =      1    electr: 0-lowe 1-rand  2-diag
   LASPH  =      F    aspherical Exc in radial PAW
   METAGGA=      F    non-selfconsistent MetaGGA calc.

 Electronic Relaxation 1
   ENCUT  =  400.0 eV  29.40 Ry    5.42 a.u.  48.92 48.92 48.92*2*pi/ulx,y,z
   ENINI  =  400.0     initial cutoff
   ENAUG  =  644.9 eV  augmentation charge cutoff
   NELM   =    500;   NELMIN=  6; NELMDL= -5     # of ELM steps 
   EDIFF  = 0.1E-03   stopping-criterion for ELM
   LREAL  =      T    real-space projection
   NLSPLINE    = F    spline interpolate recip. space projectors
   LCOMPAT=      F    compatible to vasp.4.4
   GGA_COMPAT  = T    GGA compatible to vasp.4.4-vasp.4.6
   LMAXPAW     = -100 max onsite density
   LMAXMIX     =    2 max onsite mixed and CHGCAR
   VOSKOWN=      0    Vosko Wilk Nusair interpolation
   ROPT   =   -0.00050  -0.00050  -0.00050
 Ionic relaxation
   EDIFFG = -.1E+00   stopping-criterion for IOM
   NSW    =    300    number of steps for IOM
   NBLOCK =      1;   KBLOCK =    300    inner block; outer block 
   IBRION =      3    ionic relax: 0-MD 1-quasi-New 2-CG
   NFREE  =      0    steps in history (QN), initial steepest desc. (CG)
   ISIF   =      2    stress and relaxation
   IWAVPR =     11    prediction:  0-non 1-charg 2-wave 3-comb
   ISYM   =      2    0-nonsym 1-usesym 2-fastsym
   LCORR  =      T    Harris-Foulkes like correction to forces

   POTIM  = 0.0000    time-step for ionic-motion
   TEIN   =    0.0    initial temperature
   TEBEG  =    0.0;   TEEND  =   0.0 temperature during run
   SMASS  =   2.00    Nose mass-parameter (am)
   estimated Nose-frequenzy (Omega)   =  0.12E+10 period in steps =  0.00 mass=   0.137E-25a.u.
   SCALEE = 1.0000    scale energy and forces
   NPACO  =    256;   APACO  = 16.0  distance and # of slots for P.C.
   PSTRESS=    0.0 pullay stress

  Mass of Ions in am
   POMASS =   1.00 12.01 14.00
  Ionic Valenz
   ZVAL   =   1.00  4.00  5.00
  Atomic Wigner-Seitz radii
   RWIGS  =  -1.00 -1.00 -1.00
  virtual crystal weights 
   VCA    =   1.00  1.00  1.00
   NELECT =      16.0000    total number of electrons
   NUPDOWN=      -1.0000    fix difference up-down

 DOS related values:
   EMIN   =  10.00;   EMAX   =-10.00  energy-range for DOS
   EFERMI =   0.00
   ISMEAR =     0;   SIGMA  =   0.20  broadening in eV -4-tet -1-fermi 0-gaus

 Electronic relaxation 2 (details)
   IALGO  =     38    algorithm
   LDIAG  =      T    sub-space diagonalisation (order eigenvalues)
   LSUBROT=      F    optimize rotation matrix (better conditioning)
   TURBO    =      0    0=normal 1=particle mesh
   IRESTART =      0    0=no restart 2=restart with 2 vectors
   NREBOOT  =      0    no. of reboots
   NMIN     =      0    reboot dimension
   EREF     =   0.00    reference energy to select bands
   IMIX   =      4    mixing-type and parameters
     AMIX     =   0.40;   BMIX     =  1.00
     AMIX_MAG =   1.60;   BMIX_MAG =  1.00
     AMIN     =   0.10
     WC   =   100.;   INIMIX=   1;  MIXPRE=   1;  MAXMIX= -45

 Intra band minimization:
   WEIMIN = 0.0010     energy-eigenvalue tresh-hold
   EBREAK =  0.21E-05  absolut break condition
   DEPER  =   0.30     relativ break condition  

   TIME   =   0.40     timestep for ELM

  volume/ion in A,a.u.               =    4500.00     30367.50
  Fermi-wavevector in a.u.,A,eV,Ry     =   0.137508  0.259852  0.257264  0.018908
  Thomas-Fermi vector in A             =   0.790710
 
 Write flags
   LWAVE  =      F    write WAVECAR
   LCHARG =      F    write CHGCAR
   LVTOT  =      F    write LOCPOT, total local potential
   LVHAR  =      F    write LOCPOT, Hartree potential only
   LELF   =      F    write electronic localiz. function (ELF)
   LORBIT =      0    0 simple, 1 ext, 2 COOP (PROOUT)


 Dipole corrections
   LMONO  =      F    monopole corrections only (constant potential shift)
   LDIPOL =      F    correct potential (dipole corrections)
   IDIPOL =      0    1-x, 2-y, 3-z, 4-all directions 
   EPSILON=  1.0000000 bulk dielectric constant

 Exchange correlation treatment:
   GGA     =    PE    GGA type
   LEXCH   =     8    internal setting for exchange type
   VOSKOWN=      0    Vosko Wilk Nusair interpolation
   LHFCALC =     F    Hartree Fock is set to
   LHFONE  =     F    Hartree Fock one center treatment
   AEXX    =    0.0000 exact exchange contribution

 Linear response parameters
   LEPSILON=     F    determine dielectric tensor
   LRPA    =     F    only Hartree local field effects (RPA)
   LNABLA  =     F    use nabla operator in PAW spheres
   LVEL    =     F    velocity operator in full k-point grid
   LINTERFAST=   F  fast interpolation
   KINTER  =     0    interpolate to denser k-point grid
   CSHIFT  =0.1000    complex shift for real part using Kramers Kronig
   OMEGAMAX=  -1.0    maximum frequency
   DEG_THRESHOLD= 0.2000000E-02 threshold for treating states as degnerate
   RTIME   =    0.100 relaxation time in fs

 Orbital magnetization related:
   ORBITALMAG=     F  switch on orbital magnetization
   LCHIMAG   =     F  perturbation theory with respect to B field
   DQ        =  0.001000  dq finite difference perturbation B field



--------------------------------------------------------------------------------------------------------


 quickmin algorithm: (dynamic with friction)
 charge density and potential will be updated during run
 non-spin polarized calculation
 Variant of blocked Davidson
 Davidson routine will perform the subspace rotation
 perform sub-space diagonalisation
    after iterative eigenvector-optimisation
 modified Broyden-mixing scheme, WC =      100.0
 initial mixing is a Kerker type mixing with AMIX =  0.4000 and BMIX =      1.0000
 Hartree-type preconditioning will be used
 using additional bands            4
 real space projection scheme for non local part
 use partial core corrections
 calculate Harris-corrections to forces 
   (improved forces if not selfconsistent)
 use gradient corrections 
 use of overlap-Matrix (Vanderbilt PP)
 Gauss-broadening in eV      SIGMA  =   0.20


--------------------------------------------------------------------------------------------------------


  energy-cutoff  :      400.00
  volume of cell :    27000.00
      direct lattice vectors                 reciprocal lattice vectors
    30.000000000  0.000000000  0.000000000     0.033333333  0.000000000  0.000000000
     0.000000000 30.000000000  0.000000000     0.000000000  0.033333333  0.000000000
     0.000000000  0.000000000 30.000000000     0.000000000  0.000000000  0.033333333

  length of vectors
    30.000000000 30.000000000 30.000000000     0.033333333  0.033333333  0.033333333


 
 k-points in units of 2pi/SCALE and weight: Mo2C                                    
   0.00833333  0.00833333  0.00833333       0.250
  -0.00833333  0.00833333  0.00833333       0.250
   0.00833333 -0.00833333  0.00833333       0.250
  -0.00833333 -0.00833333  0.00833333       0.250
 
 k-points in reciprocal lattice and weights: Mo2C                                    
   0.25000000  0.25000000  0.25000000       0.250
  -0.25000000  0.25000000  0.25000000       0.250
   0.25000000 -0.25000000  0.25000000       0.250
  -0.25000000 -0.25000000  0.25000000       0.250
 
 position of ions in fractional coordinates (direct lattice) 
   0.47049260  0.46424080  0.50419738
   0.47314746  0.50934145  0.46279007
   0.47628839  0.52137817  0.52137363
   0.48438138  0.49675546  0.49510607
   0.53327600  0.49499257  0.49672286
   0.56059704  0.51171120  0.51874350
 
 position of ions in cartesian coordinates  (Angst):
  14.11477791 13.92722387 15.12592151
  14.19442380 15.28024358 13.88370218
  14.28865159 15.64134503 15.64120886
  14.53144138 14.90266366 14.85318210
  15.99827989 14.84977719 14.90168589
  16.81791119 15.35133603 15.56230511
 


--------------------------------------------------------------------------------------------------------


 k-point  1 :   0.2500 0.2500 0.2500  plane waves:  490454
 k-point  2 :  -0.2500 0.2500 0.2500  plane waves:  490454
 k-point  3 :   0.2500-0.2500 0.2500  plane waves:  490454
 k-point  4 :  -0.2500-0.2500 0.2500  plane waves:  490454

 maximum and minimum number of plane-waves per node :    490454   490454

 maximum number of plane-waves:    490454
 maximum index in each direction: 
   IXMAX=   49   IYMAX=   49   IZMAX=   48
   IXMIN=  -49   IYMIN=  -49   IZMIN=  -49

 WARNING: aliasing errors must be expected set NGX to 198 to avoid them
 WARNING: aliasing errors must be expected set NGY to 198 to avoid them
 WARNING: aliasing errors must be expected set NGZ to 196 to avoid them
 aliasing errors are usually negligible using standard VASP settings
 and one can safely disregard these warnings

 serial   3D FFT for wavefunctions
 parallel 3D FFT for charge:
    minimum data exchange during FFTs selected (reduces bandwidth)


 total amount of memory used by VASP on root node  3203889. kBytes
========================================================================

   base      :      30000. kBytes
   nonlr-proj:        693. kBytes
   fftplans  :     924480. kBytes
   grid      :    1872000. kBytes
   one-center:         18. kBytes
   wavefun   :     376698. kBytes
 
     INWAV:  cpu time    0.0010: real time    0.0004
 Broyden mixing: mesh for mixing (old mesh)
   NGX = 97   NGY = 97   NGZ = 97
  (NGX  =300   NGY  =300   NGZ  =300)
  gives a total of 912673 points

 initial charge density was supplied:
 charge density of overlapping atoms calculated
 number of electron      16.0000000 magnetization 
 keeping initial charge density in first step


--------------------------------------------------------------------------------------------------------


 Maximum index for non-local projection operator         2277
 Maximum index for augmentation-charges         1496 (set IRDMAX)


--------------------------------------------------------------------------------------------------------


 First call to EWALD:  gamma=   0.059
 Maximum number of real-space cells 3x 3x 3
 Maximum number of reciprocal cells 3x 3x 3

 FEWALD executed in parallel
    FEWALD:  cpu time    0.0010: real time    0.0018


----------------------------------------- Iteration    1(   1)  ---------------------------------------


    POTLOK:  cpu time   17.2914: real time   17.3255
    SETDIJ:  cpu time    0.0060: real time    0.0063
     EDDAV:  cpu time   83.2863: real time   83.4518
       DOS:  cpu time    0.0000: real time    0.0003
    --------------------------------------------
      LOOP:  cpu time  100.5867: real time  100.7896

 eigenvalue-minimisations  :   160
 total energy-change (2. order) : 0.1146895E+03  (-0.2130388E+03)
 number of electron      16.0000000 magnetization 
 augmentation part       16.0000000 magnetization 

 Free energy of the ion-electron system (eV)
  ---------------------------------------------------
  alpha Z        PSCENC =         0.04144063
  Ewald energy   TEWEN  =       687.05576536
  -Hartree energ DENC   =     -1101.19721991
  -exchange      EXHF   =         0.00000000
  -V(xc)+E(xc)   XCENC  =        51.39268295
  PAW double counting   =       428.37890668     -430.73533574
  entropy T*S    EENTRO =        -0.19315799
  eigenvalues    EBANDS =      -116.21893409
  atomic energy  EATOM  =       596.16534815
  Solvation  Ediel_sol  =         0.00000000
  ---------------------------------------------------
  free energy    TOTEN  =       114.68949604 eV

  energy without entropy =      114.88265404  energy(sigma->0) =      114.78607504


--------------------------------------------------------------------------------------------------------




----------------------------------------- Iteration    1(   2)  ---------------------------------------


     EDDAV:  cpu time   98.0591: real time   98.2561
       DOS:  cpu time    0.0000: real time    0.0001
    --------------------------------------------
      LOOP:  cpu time   98.0611: real time   98.2591

 eigenvalue-minimisations  :   192
 total energy-change (2. order) :-0.1163703E+03  (-0.1136333E+03)
 number of electron      16.0000000 magnetization 
 augmentation part       16.0000000 magnetization 

 Free energy of the ion-electron system (eV)
  ---------------------------------------------------
  alpha Z        PSCENC =         0.04144063
  Ewald energy   TEWEN  =       687.05576536
  -Hartree energ DENC   =     -1101.19721991
  -exchange      EXHF   =         0.00000000
  -V(xc)+E(xc)   XCENC  =        51.39268295
  PAW double counting   =       428.37890668     -430.73533574
  entropy T*S    EENTRO =         0.00000000
  eigenvalues    EBANDS =      -232.78243872
  atomic energy  EATOM  =       596.16534815
  Solvation  Ediel_sol  =         0.00000000
  ---------------------------------------------------
  free energy    TOTEN  =        -1.68085060 eV

  energy without entropy =       -1.68085060  energy(sigma->0) =       -1.68085060


--------------------------------------------------------------------------------------------------------




----------------------------------------- Iteration    1(   3)  ---------------------------------------


     EDDAV:  cpu time   69.7524: real time   69.8925
       DOS:  cpu time    0.0000: real time    0.0001
    --------------------------------------------
      LOOP:  cpu time   69.7544: real time   69.8961

 eigenvalue-minimisations  :   128
 total energy-change (2. order) :-0.3521437E+02  (-0.3483588E+02)
 number of electron      16.0000000 magnetization 
 augmentation part       16.0000000 magnetization 

 Free energy of the ion-electron system (eV)
  ---------------------------------------------------
  alpha Z        PSCENC =         0.04144063
  Ewald energy   TEWEN  =       687.05576536
  -Hartree energ DENC   =     -1101.19721991
  -exchange      EXHF   =         0.00000000
  -V(xc)+E(xc)   XCENC  =        51.39268295
  PAW double counting   =       428.37890668     -430.73533574
  entropy T*S    EENTRO =         0.00000000
  eigenvalues    EBANDS =      -267.99681230
  atomic energy  EATOM  =       596.16534815
  Solvation  Ediel_sol  =         0.00000000
  ---------------------------------------------------
  free energy    TOTEN  =       -36.89522418 eV

  energy without entropy =      -36.89522418  energy(sigma->0) =      -36.89522418


--------------------------------------------------------------------------------------------------------




----------------------------------------- Iteration    1(   4)  ---------------------------------------


     EDDAV:  cpu time   67.8997: real time   68.0352
       DOS:  cpu time    0.0000: real time    0.0001
    --------------------------------------------
      LOOP:  cpu time   67.9007: real time   68.0385

 eigenvalue-minimisations  :   124
 total energy-change (2. order) :-0.3083200E+01  (-0.3002964E+01)
 number of electron      16.0000000 magnetization 
 augmentation part       16.0000000 magnetization 

 Free energy of the ion-electron system (eV)
  ---------------------------------------------------
  alpha Z        PSCENC =         0.04144063
  Ewald energy   TEWEN  =       687.05576536
  -Hartree energ DENC   =     -1101.19721991
  -exchange      EXHF   =         0.00000000
  -V(xc)+E(xc)   XCENC  =        51.39268295
  PAW double counting   =       428.37890668     -430.73533574
  entropy T*S    EENTRO =         0.00000000
  eigenvalues    EBANDS =      -271.08001242
  atomic energy  EATOM  =       596.16534815
  Solvation  Ediel_sol  =         0.00000000
  ---------------------------------------------------
  free energy    TOTEN  =       -39.97842430 eV

  energy without entropy =      -39.97842430  energy(sigma->0) =      -39.97842430


--------------------------------------------------------------------------------------------------------




----------------------------------------- Iteration    1(   5)  ---------------------------------------


     EDDAV:  cpu time   66.2079: real time   66.3387
       DOS:  cpu time    0.0000: real time    0.0001
    CHARGE:  cpu time    5.0662: real time    5.0767
    MIXING:  cpu time    0.4969: real time    0.4983
    --------------------------------------------
      LOOP:  cpu time   71.7711: real time   71.9169

 eigenvalue-minimisations  :   124
 total energy-change (2. order) :-0.7134435E-01  (-0.7053548E-01)
 number of electron      16.0000004 magnetization 
 augmentation part        0.5232848 magnetization 

 Broyden mixing:
  rms(total) = 0.10985E+01    rms(broyden)= 0.10978E+01
  rms(prec ) = 0.11420E+01
  weight for this iteration     100.00

 Free energy of the ion-electron system (eV)
  ---------------------------------------------------
  alpha Z        PSCENC =         0.04144063
  Ewald energy   TEWEN  =       687.05576536
  -Hartree energ DENC   =     -1101.19721991
  -exchange      EXHF   =         0.00000000
  -V(xc)+E(xc)   XCENC  =        51.39268295
  PAW double counting   =       428.37890668     -430.73533574
  entropy T*S    EENTRO =         0.00000000
  eigenvalues    EBANDS =      -271.15135678
  atomic energy  EATOM  =       596.16534815
  Solvation  Ediel_sol  =         0.00000000
  ---------------------------------------------------
  free energy    TOTEN  =       -40.04976866 eV

  energy without entropy =      -40.04976866  energy(sigma->0) =      -40.04976866


--------------------------------------------------------------------------------------------------------




----------------------------------------- Iteration    1(   6)  ---------------------------------------


    POTLOK:  cpu time   16.9684: real time   17.0023
    SETDIJ:  cpu time    0.0070: real time    0.0061
     EDDAV:  cpu time   67.3968: real time   67.5662
       DOS:  cpu time    0.0000: real time    0.0002
    CHARGE:  cpu time    5.0072: real time    5.0177
    MIXING:  cpu time    0.5679: real time    0.5686
    --------------------------------------------
      LOOP:  cpu time   89.9483: real time   90.1646

 eigenvalue-minimisations  :   128
 total energy-change (2. order) : 0.3266894E+01  (-0.6174124E+00)
 number of electron      16.0000006 magnetization 
 augmentation part        0.4499048 magnetization 

 Broyden mixing:
  rms(total) = 0.60781E+00    rms(broyden)= 0.60761E+00
  rms(prec ) = 0.62447E+00
  weight for this iteration     100.00

 eigenvalues of (default mixing * dielectric matrix)
  average eigenvalue GAMMA=   1.2252
  1.2252

 Free energy of the ion-electron system (eV)
  ---------------------------------------------------
  alpha Z        PSCENC =         0.04144063
  Ewald energy   TEWEN  =       687.05576536
  -Hartree energ DENC   =     -1133.45222366
  -exchange      EXHF   =         0.00000000
  -V(xc)+E(xc)   XCENC  =        53.15897043
  PAW double counting   =       727.14833699     -729.83047346
  entropy T*S    EENTRO =         0.00000000
  eigenvalues    EBANDS =      -237.07003926
  atomic energy  EATOM  =       596.16534815
  Solvation  Ediel_sol  =         0.00000000
  ---------------------------------------------------
  free energy    TOTEN  =       -36.78287481 eV

  energy without entropy =      -36.78287481  energy(sigma->0) =      -36.78287481


--------------------------------------------------------------------------------------------------------




----------------------------------------- Iteration    1(   7)  ---------------------------------------


    POTLOK:  cpu time   17.0474: real time   17.0815
    SETDIJ:  cpu time    0.0070: real time    0.0062
     EDDAV:  cpu time   60.2828: real time   60.4013
       DOS:  cpu time    0.0000: real time    0.0002
    CHARGE:  cpu time    5.0662: real time    5.0771
    MIXING:  cpu time    0.5979: real time    0.5995
    --------------------------------------------
      LOOP:  cpu time   83.0034: real time   83.1694

 eigenvalue-minimisations  :   112
 total energy-change (2. order) : 0.6374067E+00  (-0.1605199E+00)
 number of electron      16.0000004 magnetization 
 augmentation part        0.4562103 magnetization 

 Broyden mixing:
  rms(total) = 0.31945E+00    rms(broyden)= 0.31939E+00
  rms(prec ) = 0.32856E+00
  weight for this iteration     100.00

 eigenvalues of (default mixing * dielectric matrix)
  average eigenvalue GAMMA=   1.3677
  0.8183  1.9171

 Free energy of the ion-electron system (eV)
  ---------------------------------------------------
  alpha Z        PSCENC =         0.04144063
  Ewald energy   TEWEN  =       687.05576536
  -Hartree energ DENC   =     -1149.49713407
  -exchange      EXHF   =         0.00000000
  -V(xc)+E(xc)   XCENC  =        54.03266837
  PAW double counting   =      1016.45640068    -1019.25032392
  entropy T*S    EENTRO =         0.00000000
  eigenvalues    EBANDS =      -221.14963336
  atomic energy  EATOM  =       596.16534815
  Solvation  Ediel_sol  =         0.00000000
  ---------------------------------------------------
  free energy    TOTEN  =       -36.14546816 eV

  energy without entropy =      -36.14546816  energy(sigma->0) =      -36.14546816


--------------------------------------------------------------------------------------------------------




----------------------------------------- Iteration    1(   8)  ---------------------------------------


    POTLOK:  cpu time   17.0414: real time   17.0761
    SETDIJ:  cpu time    0.0060: real time    0.0062
     EDDAV:  cpu time   68.1506: real time   68.2870
       DOS:  cpu time    0.0000: real time    0.0002
    CHARGE:  cpu time    4.7783: real time    4.7885
    MIXING:  cpu time    0.6039: real time    0.6049
    --------------------------------------------
      LOOP:  cpu time   90.5832: real time   90.7670

 eigenvalue-minimisations  :   128
 total energy-change (2. order) : 0.1890974E+00  (-0.4506109E-01)
 number of electron      16.0000005 magnetization 
 augmentation part        0.4337254 magnetization 

 Broyden mixing:
  rms(total) = 0.12386E+00    rms(broyden)= 0.12382E+00
  rms(prec ) = 0.12800E+00
  weight for this iteration     100.00

 eigenvalues of (default mixing * dielectric matrix)
  average eigenvalue GAMMA=   1.4424
  2.1926  1.4345  0.7000

 Free energy of the ion-electron system (eV)
  ---------------------------------------------------
  alpha Z        PSCENC =         0.04144063
  Ewald energy   TEWEN  =       687.05576536
  -Hartree energ DENC   =     -1160.40896385
  -exchange      EXHF   =         0.00000000
  -V(xc)+E(xc)   XCENC  =        54.72682338
  PAW double counting   =      1259.09101267    -1261.94365936
  entropy T*S    EENTRO =         0.00000000
  eigenvalues    EBANDS =      -210.68413779
  atomic energy  EATOM  =       596.16534815
  Solvation  Ediel_sol  =         0.00000000
  ---------------------------------------------------
  free energy    TOTEN  =       -35.95637081 eV

  energy without entropy =      -35.95637081  energy(sigma->0) =      -35.95637081


--------------------------------------------------------------------------------------------------------




----------------------------------------- Iteration    1(   9)  ---------------------------------------


    POTLOK:  cpu time   16.9854: real time   17.0199
    SETDIJ:  cpu time    0.0060: real time    0.0062
     EDDAV:  cpu time   68.5196: real time   68.6574
       DOS:  cpu time    0.0000: real time    0.0002
    CHARGE:  cpu time    4.7493: real time    4.7593
    MIXING:  cpu time    0.6419: real time    0.6433
    --------------------------------------------
      LOOP:  cpu time   90.9052: real time   91.0901

 eigenvalue-minimisations  :   128
 total energy-change (2. order) : 0.2833871E-01  (-0.4959084E-02)
 number of electron      16.0000005 magnetization 
 augmentation part        0.4355109 magnetization 

 Broyden mixing:
  rms(total) = 0.35874E-01    rms(broyden)= 0.35861E-01
  rms(prec ) = 0.40544E-01
  weight for this iteration     100.00

 eigenvalues of (default mixing * dielectric matrix)
  average eigenvalue GAMMA=   1.4098
  2.2921  1.5977  1.0195  0.7296

 Free energy of the ion-electron system (eV)
  ---------------------------------------------------
  alpha Z        PSCENC =         0.04144063
  Ewald energy   TEWEN  =       687.05576536
  -Hartree energ DENC   =     -1162.79568293
  -exchange      EXHF   =         0.00000000
  -V(xc)+E(xc)   XCENC  =        54.87874087
  PAW double counting   =      1352.57508042    -1355.40002004
  entropy T*S    EENTRO =         0.00000000
  eigenvalues    EBANDS =      -208.44870457
  atomic energy  EATOM  =       596.16534815
  Solvation  Ediel_sol  =         0.00000000
  ---------------------------------------------------
  free energy    TOTEN  =       -35.92803209 eV

  energy without entropy =      -35.92803209  energy(sigma->0) =      -35.92803209


--------------------------------------------------------------------------------------------------------




----------------------------------------- Iteration    1(  10)  ---------------------------------------


    POTLOK:  cpu time   16.4495: real time   16.4829
    SETDIJ:  cpu time    0.0060: real time    0.0062
     EDDAV:  cpu time   69.3375: real time   69.4760
       DOS:  cpu time    0.0000: real time    0.0002
    CHARGE:  cpu time    4.7763: real time    4.7871
    MIXING:  cpu time    0.6869: real time    0.6875
    --------------------------------------------
      LOOP:  cpu time   91.2581: real time   91.4435

 eigenvalue-minimisations  :   128
 total energy-change (2. order) : 0.3752386E-02  (-0.5123722E-03)
 number of electron      16.0000005 magnetization 
 augmentation part        0.4364671 magnetization 

 Broyden mixing:
  rms(total) = 0.14942E-01    rms(broyden)= 0.14936E-01
  rms(prec ) = 0.20623E-01
  weight for this iteration     100.00

 eigenvalues of (default mixing * dielectric matrix)
  average eigenvalue GAMMA=   1.4567
  2.1774  2.1774  1.3380  0.7332  0.8574

 Free energy of the ion-electron system (eV)
  ---------------------------------------------------
  alpha Z        PSCENC =         0.04144063
  Ewald energy   TEWEN  =       687.05576536
  -Hartree energ DENC   =     -1163.87116651
  -exchange      EXHF   =         0.00000000
  -V(xc)+E(xc)   XCENC  =        54.91256714
  PAW double counting   =      1367.37722113    -1370.19269307
  entropy T*S    EENTRO =         0.00000000
  eigenvalues    EBANDS =      -207.41276254
  atomic energy  EATOM  =       596.16534815
  Solvation  Ediel_sol  =         0.00000000
  ---------------------------------------------------
  free energy    TOTEN  =       -35.92427971 eV

  energy without entropy =      -35.92427971  energy(sigma->0) =      -35.92427971


--------------------------------------------------------------------------------------------------------




----------------------------------------- Iteration    1(  11)  ---------------------------------------


    POTLOK:  cpu time   16.0216: real time   16.0538
    SETDIJ:  cpu time    0.0060: real time    0.0061
     EDDAV:  cpu time   58.6181: real time   58.7360
       DOS:  cpu time    0.0000: real time    0.0002
    CHARGE:  cpu time    5.0102: real time    5.0202
    MIXING:  cpu time    0.7489: real time    0.7509
    --------------------------------------------
      LOOP:  cpu time   80.4078: real time   80.5708

 eigenvalue-minimisations  :   104
 total energy-change (2. order) :-0.8252416E-03  (-0.1944051E-03)
 number of electron      16.0000005 magnetization 
 augmentation part        0.4361283 magnetization 

 Broyden mixing:
  rms(total) = 0.93803E-02    rms(broyden)= 0.93787E-02
  rms(prec ) = 0.14064E-01
  weight for this iteration     100.00

 eigenvalues of (default mixing * dielectric matrix)
  average eigenvalue GAMMA=   1.6248
  2.5443  2.5443  0.7321  0.9214  1.5033  1.5033

 Free energy of the ion-electron system (eV)
  ---------------------------------------------------
  alpha Z        PSCENC =         0.04144063
  Ewald energy   TEWEN  =       687.05576536
  -Hartree energ DENC   =     -1164.96031564
  -exchange      EXHF   =         0.00000000
  -V(xc)+E(xc)   XCENC  =        54.93682870
  PAW double counting   =      1366.14357102    -1368.95435254
  entropy T*S    EENTRO =         0.00000000
  eigenvalues    EBANDS =      -206.35339063
  atomic energy  EATOM  =       596.16534815
  Solvation  Ediel_sol  =         0.00000000
  ---------------------------------------------------
  free energy    TOTEN  =       -35.92510495 eV

  energy without entropy =      -35.92510495  energy(sigma->0) =      -35.92510495


--------------------------------------------------------------------------------------------------------




----------------------------------------- Iteration    1(  12)  ---------------------------------------


    POTLOK:  cpu time   16.1835: real time   16.2164
    SETDIJ:  cpu time    0.0060: real time    0.0061
     EDDAV:  cpu time   57.7862: real time   57.9007
       DOS:  cpu time    0.0000: real time    0.0002
    CHARGE:  cpu time    4.9862: real time    4.9967
    MIXING:  cpu time    0.8309: real time    0.8316
    --------------------------------------------
      LOOP:  cpu time   79.7939: real time   79.9553

 eigenvalue-minimisations  :   104
 total energy-change (2. order) :-0.5389492E-02  (-0.3220381E-03)
 number of electron      16.0000005 magnetization 
 augmentation part        0.4357504 magnetization 

 Broyden mixing:
  rms(total) = 0.46223E-02    rms(broyden)= 0.46169E-02
  rms(prec ) = 0.72588E-02
  weight for this iteration     100.00

 eigenvalues of (default mixing * dielectric matrix)
  average eigenvalue GAMMA=   1.6624
  3.5413  2.2916  1.6827  0.7310  0.8889  1.2508  1.2508

 Free energy of the ion-electron system (eV)
  ---------------------------------------------------
  alpha Z        PSCENC =         0.04144063
  Ewald energy   TEWEN  =       687.05576536
  -Hartree energ DENC   =     -1166.52017375
  -exchange      EXHF   =         0.00000000
  -V(xc)+E(xc)   XCENC  =        54.97017583
  PAW double counting   =      1361.69037510    -1364.49721687
  entropy T*S    EENTRO =         0.00000000
  eigenvalues    EBANDS =      -204.83620890
  atomic energy  EATOM  =       596.16534815
  Solvation  Ediel_sol  =         0.00000000
  ---------------------------------------------------
  free energy    TOTEN  =       -35.93049444 eV

  energy without entropy =      -35.93049444  energy(sigma->0) =      -35.93049444


--------------------------------------------------------------------------------------------------------




----------------------------------------- Iteration    1(  13)  ---------------------------------------


    POTLOK:  cpu time   16.7055: real time   16.7417
    SETDIJ:  cpu time    0.0060: real time    0.0062
     EDDAV:  cpu time   74.5087: real time   74.6871
       DOS:  cpu time    0.0000: real time    0.0002
    CHARGE:  cpu time    5.0292: real time    5.0407
    MIXING:  cpu time    0.8699: real time    0.8719
    --------------------------------------------
      LOOP:  cpu time   97.1202: real time   97.3511

 eigenvalue-minimisations  :   144
 total energy-change (2. order) :-0.3850338E-02  (-0.1366253E-03)
 number of electron      16.0000005 magnetization 
 augmentation part        0.4355432 magnetization 

 Broyden mixing:
  rms(total) = 0.34360E-02    rms(broyden)= 0.34341E-02
  rms(prec ) = 0.51257E-02
  weight for this iteration     100.00

 eigenvalues of (default mixing * dielectric matrix)
  average eigenvalue GAMMA=   1.7334
  4.1319  2.4413  1.6001  1.6001  1.4943  0.7314  0.9486  0.9193

 Free energy of the ion-electron system (eV)
  ---------------------------------------------------
  alpha Z        PSCENC =         0.04144063
  Ewald energy   TEWEN  =       687.05576536
  -Hartree energ DENC   =     -1167.18362230
  -exchange      EXHF   =         0.00000000
  -V(xc)+E(xc)   XCENC  =        54.98257025
  PAW double counting   =      1361.73453574    -1364.54144599
  entropy T*S    EENTRO =         0.00000000
  eigenvalues    EBANDS =      -204.18893663
  atomic energy  EATOM  =       596.16534815
  Solvation  Ediel_sol  =         0.00000000
  ---------------------------------------------------
  free energy    TOTEN  =       -35.93434478 eV

  energy without entropy =      -35.93434478  energy(sigma->0) =      -35.93434478


--------------------------------------------------------------------------------------------------------




----------------------------------------- Iteration    1(  14)  ---------------------------------------


    POTLOK:  cpu time   16.5115: real time   16.5495
    SETDIJ:  cpu time    0.0050: real time    0.0062
     EDDAV:  cpu time   64.4202: real time   64.6015
       DOS:  cpu time    0.0000: real time    0.0002
    CHARGE:  cpu time    5.0972: real time    5.1101
    MIXING:  cpu time    0.9659: real time    0.9698
    --------------------------------------------
      LOOP:  cpu time   87.0018: real time   87.2405

 eigenvalue-minimisations  :   120
 total energy-change (2. order) :-0.4291200E-02  (-0.6099921E-04)
 number of electron      16.0000005 magnetization 
 augmentation part        0.4355678 magnetization 

 Broyden mixing:
  rms(total) = 0.26823E-02    rms(broyden)= 0.26818E-02
  rms(prec ) = 0.35965E-02
  weight for this iteration     100.00

 eigenvalues of (default mixing * dielectric matrix)
  average eigenvalue GAMMA=   1.8166
  4.9030  2.6472  2.2734  1.6001  1.1941  1.1941  0.7313  0.9030  0.9030

 Free energy of the ion-electron system (eV)
  ---------------------------------------------------
  alpha Z        PSCENC =         0.04144063
  Ewald energy   TEWEN  =       687.05576536
  -Hartree energ DENC   =     -1167.42931525
  -exchange      EXHF   =         0.00000000
  -V(xc)+E(xc)   XCENC  =        54.97628102
  PAW double counting   =      1359.58669462    -1362.39352280
  entropy T*S    EENTRO =         0.00000000
  eigenvalues    EBANDS =      -203.94132771
  atomic energy  EATOM  =       596.16534815
  Solvation  Ediel_sol  =         0.00000000
  ---------------------------------------------------
  free energy    TOTEN  =       -35.93863598 eV

  energy without entropy =      -35.93863598  energy(sigma->0) =      -35.93863598


--------------------------------------------------------------------------------------------------------




----------------------------------------- Iteration    1(  15)  ---------------------------------------


    POTLOK:  cpu time   16.9514: real time   17.0015
    SETDIJ:  cpu time    0.0060: real time    0.0061
     EDDAV:  cpu time   67.7867: real time   67.9725
       DOS:  cpu time    0.0000: real time    0.0002
    CHARGE:  cpu time    4.9762: real time    4.9915
    MIXING:  cpu time    1.0778: real time    1.0810
    --------------------------------------------
      LOOP:  cpu time   90.8002: real time   91.0565

 eigenvalue-minimisations  :   128
 total energy-change (2. order) :-0.2730365E-02  (-0.2600766E-04)
 number of electron      16.0000005 magnetization 
 augmentation part        0.4355077 magnetization 

 Broyden mixing:
  rms(total) = 0.14169E-02    rms(broyden)= 0.14168E-02
  rms(prec ) = 0.20528E-02
  weight for this iteration     100.00

 eigenvalues of (default mixing * dielectric matrix)
  average eigenvalue GAMMA=   1.8893
  5.7997  2.9339  2.3092  1.5641  1.2943  1.2943  0.7316  0.9063  1.0296  1.0296

 Free energy of the ion-electron system (eV)
  ---------------------------------------------------
  alpha Z        PSCENC =         0.04144063
  Ewald energy   TEWEN  =       687.05576536
  -Hartree energ DENC   =     -1167.57334102
  -exchange      EXHF   =         0.00000000
  -V(xc)+E(xc)   XCENC  =        54.97419230
  PAW double counting   =      1359.69841316    -1362.50566126
  entropy T*S    EENTRO =         0.00000000
  eigenvalues    EBANDS =      -203.79752367
  atomic energy  EATOM  =       596.16534815
  Solvation  Ediel_sol  =         0.00000000
  ---------------------------------------------------
  free energy    TOTEN  =       -35.94136635 eV

  energy without entropy =      -35.94136635  energy(sigma->0) =      -35.94136635


--------------------------------------------------------------------------------------------------------




----------------------------------------- Iteration    1(  16)  ---------------------------------------


    POTLOK:  cpu time   17.0974: real time   17.1460
    SETDIJ:  cpu time    0.0060: real time    0.0061
     EDDAV:  cpu time   67.9497: real time   68.1444
       DOS:  cpu time    0.0000: real time    0.0002
    CHARGE:  cpu time    4.9632: real time    4.9750
    MIXING:  cpu time    0.9789: real time    0.9809
    --------------------------------------------
      LOOP:  cpu time   90.9972: real time   91.2559

 eigenvalue-minimisations  :   128
 total energy-change (2. order) :-0.1871164E-02  (-0.1816584E-04)
 number of electron      16.0000005 magnetization 
 augmentation part        0.4354780 magnetization 

 Broyden mixing:
  rms(total) = 0.90791E-03    rms(broyden)= 0.90740E-03
  rms(prec ) = 0.12748E-02
  weight for this iteration     100.00

 eigenvalues of (default mixing * dielectric matrix)
  average eigenvalue GAMMA=   2.0617
  7.0262  3.4234  2.3609  2.2932  1.5457  1.2185  1.2185  0.7315  0.9004  0.9800
  0.9800

 Free energy of the ion-electron system (eV)
  ---------------------------------------------------
  alpha Z        PSCENC =         0.04144063
  Ewald energy   TEWEN  =       687.05576536
  -Hartree energ DENC   =     -1167.65194271
  -exchange      EXHF   =         0.00000000
  -V(xc)+E(xc)   XCENC  =        54.97213269
  PAW double counting   =      1359.82906889    -1362.63631027
  entropy T*S    EENTRO =         0.00000000
  eigenvalues    EBANDS =      -203.71874025
  atomic energy  EATOM  =       596.16534815
  Solvation  Ediel_sol  =         0.00000000
  ---------------------------------------------------
  free energy    TOTEN  =       -35.94323751 eV

  energy without entropy =      -35.94323751  energy(sigma->0) =      -35.94323751


--------------------------------------------------------------------------------------------------------




----------------------------------------- Iteration    1(  17)  ---------------------------------------


    POTLOK:  cpu time   16.7745: real time   16.8125
    SETDIJ:  cpu time    0.0060: real time    0.0064
     EDDAV:  cpu time   53.8568: real time   53.9801
       DOS:  cpu time    0.0000: real time    0.0002
    CHARGE:  cpu time    4.9522: real time    4.9648
    MIXING:  cpu time    1.0898: real time    1.0933
    --------------------------------------------
      LOOP:  cpu time   76.6803: real time   76.8611

 eigenvalue-minimisations  :    92
 total energy-change (2. order) :-0.1421241E-02  (-0.8078310E-05)
 number of electron      16.0000005 magnetization 
 augmentation part        0.4354804 magnetization 

 Broyden mixing:
  rms(total) = 0.36903E-03    rms(broyden)= 0.36895E-03
  rms(prec ) = 0.55875E-03
  weight for this iteration     100.00

 eigenvalues of (default mixing * dielectric matrix)
  average eigenvalue GAMMA=   2.1105
  7.5204  4.0607  2.5572  2.2320  1.6180  1.1906  1.1906  1.3309  0.7316  0.9079
  0.9930  0.9930

 Free energy of the ion-electron system (eV)
  ---------------------------------------------------
  alpha Z        PSCENC =         0.04144063
  Ewald energy   TEWEN  =       687.05576536
  -Hartree energ DENC   =     -1167.67150124
  -exchange      EXHF   =         0.00000000
  -V(xc)+E(xc)   XCENC  =        54.96923572
  PAW double counting   =      1360.30352048    -1363.11062055
  entropy T*S    EENTRO =         0.00000000
  eigenvalues    EBANDS =      -203.69784732
  atomic energy  EATOM  =       596.16534815
  Solvation  Ediel_sol  =         0.00000000
  ---------------------------------------------------
  free energy    TOTEN  =       -35.94465875 eV

  energy without entropy =      -35.94465875  energy(sigma->0) =      -35.94465875


--------------------------------------------------------------------------------------------------------




----------------------------------------- Iteration    1(  18)  ---------------------------------------


    POTLOK:  cpu time   16.0576: real time   16.0955
    SETDIJ:  cpu time    0.0070: real time    0.0061
     EDDAV:  cpu time   55.5496: real time   55.6771
       DOS:  cpu time    0.0000: real time    0.0002
    CHARGE:  cpu time    5.1002: real time    5.1118
    MIXING:  cpu time    1.2608: real time    1.2640
    --------------------------------------------
      LOOP:  cpu time   77.9761: real time   78.1578

 eigenvalue-minimisations  :    96
 total energy-change (2. order) :-0.4618363E-03  (-0.4212586E-05)
 number of electron      16.0000005 magnetization 
 augmentation part        0.4354717 magnetization 

 Broyden mixing:
  rms(total) = 0.25678E-03    rms(broyden)= 0.25675E-03
  rms(prec ) = 0.36130E-03
  weight for this iteration     100.00

 eigenvalues of (default mixing * dielectric matrix)
  average eigenvalue GAMMA=   2.2163
  8.1742  4.6659  2.6134  2.6134  2.1609  1.5766  1.2218  1.2218  0.7315  0.9922
  0.9922  0.9083  0.9404

 Free energy of the ion-electron system (eV)
  ---------------------------------------------------
  alpha Z        PSCENC =         0.04144063
  Ewald energy   TEWEN  =       687.05576536
  -Hartree energ DENC   =     -1167.67285228
  -exchange      EXHF   =         0.00000000
  -V(xc)+E(xc)   XCENC  =        54.96854183
  PAW double counting   =      1360.34798652    -1363.15508567
  entropy T*S    EENTRO =         0.00000000
  eigenvalues    EBANDS =      -203.69626513
  atomic energy  EATOM  =       596.16534815
  Solvation  Ediel_sol  =         0.00000000
  ---------------------------------------------------
  free energy    TOTEN  =       -35.94512059 eV

  energy without entropy =      -35.94512059  energy(sigma->0) =      -35.94512059


--------------------------------------------------------------------------------------------------------




----------------------------------------- Iteration    1(  19)  ---------------------------------------


    POTLOK:  cpu time   16.6715: real time   16.7148
    SETDIJ:  cpu time    0.0070: real time    0.0061
     EDDAV:  cpu time   47.6108: real time   47.7454
       DOS:  cpu time    0.0000: real time    0.0002
    CHARGE:  cpu time    5.1162: real time    5.1318
    MIXING:  cpu time    1.2478: real time    1.2513
    --------------------------------------------
      LOOP:  cpu time   70.6543: real time   70.8525

 eigenvalue-minimisations  :    80
 total energy-change (2. order) :-0.3107283E-03  (-0.1979600E-05)
 number of electron      16.0000005 magnetization 
 augmentation part        0.4354746 magnetization 

 Broyden mixing:
  rms(total) = 0.12802E-03    rms(broyden)= 0.12796E-03
  rms(prec ) = 0.17752E-03
  weight for this iteration     100.00

 eigenvalues of (default mixing * dielectric matrix)
  average eigenvalue GAMMA=   2.2403
  8.6046  4.8729  3.2212  2.4801  2.1718  1.6261  1.4496  1.1997  1.1997  0.7315
  0.9850  0.9850  0.9183  0.9183

 Free energy of the ion-electron system (eV)
  ---------------------------------------------------
  alpha Z        PSCENC =         0.04144063
  Ewald energy   TEWEN  =       687.05576536
  -Hartree energ DENC   =     -1167.66551979
  -exchange      EXHF   =         0.00000000
  -V(xc)+E(xc)   XCENC  =        54.96771423
  PAW double counting   =      1360.10832983    -1362.91539862
  entropy T*S    EENTRO =         0.00000000
  eigenvalues    EBANDS =      -203.70311111
  atomic energy  EATOM  =       596.16534815
  Solvation  Ediel_sol  =         0.00000000
  ---------------------------------------------------
  free energy    TOTEN  =       -35.94543132 eV

  energy without entropy =      -35.94543132  energy(sigma->0) =      -35.94543132


--------------------------------------------------------------------------------------------------------




----------------------------------------- Iteration    1(  20)  ---------------------------------------


    POTLOK:  cpu time   16.8874: real time   16.9256
    SETDIJ:  cpu time    0.0060: real time    0.0062
     EDDAV:  cpu time   54.1548: real time   54.2784
       DOS:  cpu time    0.0000: real time    0.0002
    --------------------------------------------
      LOOP:  cpu time   71.0492: real time   71.2136

 eigenvalue-minimisations  :    96
 total energy-change (2. order) :-0.9825067E-04  (-0.5801702E-06)
 number of electron      16.0000005 magnetization 
 augmentation part        0.4354746 magnetization 

 Free energy of the ion-electron system (eV)
  ---------------------------------------------------
  alpha Z        PSCENC =         0.04144063
  Ewald energy   TEWEN  =       687.05576536
  -Hartree energ DENC   =     -1167.66940818
  -exchange      EXHF   =         0.00000000
  -V(xc)+E(xc)   XCENC  =        54.96763860
  PAW double counting   =      1360.11859884    -1362.92565871
  entropy T*S    EENTRO =         0.00000000
  eigenvalues    EBANDS =      -203.69925426
  atomic energy  EATOM  =       596.16534815
  Solvation  Ediel_sol  =         0.00000000
  ---------------------------------------------------
  free energy    TOTEN  =       -35.94552957 eV

  energy without entropy =      -35.94552957  energy(sigma->0) =      -35.94552957


--------------------------------------------------------------------------------------------------------




 average (electrostatic) potential at core
  the test charge radii are     0.5201  0.6991  0.7089
  (the norm of the test charge is              1.0000)
       1 -42.9868       2 -42.9830       3 -42.8329       4 -59.9206       5 -60.0178
       6 -73.4726
 
 
 
 E-fermi :  -6.8438     XC(G=0):  -0.0951     alpha+bet : -0.0137


 k-point     1 :       0.2500    0.2500    0.2500
  band No.  band energies     occupation 
      1     -22.8724      2.00000
      2     -18.9428      2.00000
      3     -12.3509      2.00000
      4     -11.5181      2.00000
      5     -11.2939      2.00000
      6      -8.8987      2.00000
      7      -8.2014      2.00000
      8      -7.7714      2.00000
      9      -2.3411      0.00000
     10      -0.4163      0.00000
     11      -0.4047      0.00000
     12      -0.0091      0.00000

 k-point     2 :      -0.2500    0.2500    0.2500
  band No.  band energies     occupation 
      1     -22.8724      2.00000
      2     -18.9428      2.00000
      3     -12.3509      2.00000
      4     -11.5181      2.00000
      5     -11.2939      2.00000
      6      -8.8987      2.00000
      7      -8.2014      2.00000
      8      -7.7714      2.00000
      9      -2.3411      0.00000
     10      -0.4165      0.00000
     11      -0.4047      0.00000
     12      -0.0125      0.00000

 k-point     3 :       0.2500   -0.2500    0.2500
  band No.  band energies     occupation 
      1     -22.8724      2.00000
      2     -18.9428      2.00000
      3     -12.3509      2.00000
      4     -11.5182      2.00000
      5     -11.2939      2.00000
      6      -8.8987      2.00000
      7      -8.2014      2.00000
      8      -7.7714      2.00000
      9      -2.3411      0.00000
     10      -0.4163      0.00000
     11      -0.4047      0.00000
     12       0.0354      0.00000

 k-point     4 :      -0.2500   -0.2500    0.2500
  band No.  band energies     occupation 
      1     -22.8724      2.00000
      2     -18.9428      2.00000
      3     -12.3509      2.00000
      4     -11.5181      2.00000
      5     -11.2939      2.00000
      6      -8.8987      2.00000
      7      -8.2014      2.00000
      8      -7.7714      2.00000
      9      -2.3411      0.00000
     10      -0.4165      0.00000
     11      -0.4048      0.00000
     12      -0.0094      0.00000


--------------------------------------------------------------------------------------------------------


 soft charge-density along one line, spin component           1
         0         1         2         3         4         5         6         7         8         9
 total charge-density along one line
 
 pseudopotential strength for first ion, spin component:           1
 -2.361  -4.073  -0.002   0.000  -0.001
 -4.073  -6.938  -0.005   0.001  -0.002
 -0.002  -0.005  -0.330  -0.001   0.002
  0.000   0.001  -0.001  -0.334   0.000
 -0.001  -0.002   0.002   0.000  -0.333
 total augmentation occupancy for first ion, spin component:           1
  3.517  -0.633   0.394  -0.113   0.170
 -0.633   0.129  -0.073   0.020  -0.032
  0.394  -0.073   0.046  -0.011   0.016
 -0.113   0.020  -0.011   0.012  -0.005
  0.170  -0.032   0.016  -0.005   0.015


------------------------ aborting loop because EDIFF is reached ----------------------------------------


    CHARGE:  cpu time    5.0442: real time    5.0563
    FORLOC:  cpu time    2.3056: real time    2.3111
    FORNL :  cpu time   16.2925: real time   16.3336
    STRESS:  cpu time   49.2875: real time   49.4247
    FORCOR:  cpu time   18.2972: real time   18.3485
    FORHAR:  cpu time    6.3530: real time    6.3697
    MIXING:  cpu time    1.2238: real time    1.2280
    OFIELD:  cpu time    0.0000: real time    0.0000

  FORCE on cell =-STRESS in cart. coord.  units (eV):
  Direction    XX          YY          ZZ          XY          YZ          ZX
  --------------------------------------------------------------------------------------
  Alpha Z     0.04144     0.04144     0.04144
  Ewald     464.50381    90.74002   131.81165    98.21743    65.11523   149.58403
  Hartree   537.89901   306.12413   323.64655    45.42294    25.46019    73.28847
  E(xc)     -59.44715   -60.14139   -60.01517     0.29842     0.20607     0.42251
  Local   -1159.89467  -563.89898  -618.84783  -136.72338   -83.98803  -213.48681
  n-local   -25.66135   -25.38852   -26.13199    -2.06745    -1.18963    -2.54518
  augment     0.52796     0.36458     0.34771     0.05991    -0.06725     0.06436
  Kinetic   244.43674   250.73109   247.87316    -4.30786    -5.67207    -5.97053
  Fock        0.00000     0.00000     0.00000     0.00000     0.00000     0.00000
  -------------------------------------------------------------------------------------
  Total       2.40580    -1.42762    -1.27447     0.90001    -0.13549     1.35686
  in kB       0.14276    -0.08472    -0.07563     0.05341    -0.00804     0.08052
  external pressure =       -0.01 kB  Pullay stress =        0.00 kB


 VOLUME and BASIS-vectors are now :
 -----------------------------------------------------------------------------
  energy-cutoff  :      400.00
  volume of cell :    27000.00
      direct lattice vectors                 reciprocal lattice vectors
    30.000000000  0.000000000  0.000000000     0.033333333  0.000000000  0.000000000
     0.000000000 30.000000000  0.000000000     0.000000000  0.033333333  0.000000000
     0.000000000  0.000000000 30.000000000     0.000000000  0.000000000  0.033333333

  length of vectors
    30.000000000 30.000000000 30.000000000     0.033333333  0.033333333  0.033333333


 FORCES acting on ions
    electron-ion (+dipol)            ewald-force                    non-local-force                 convergence-correction
 -----------------------------------------------------------------------------------------------
   0.346E+02 0.542E+02 -.127E+02   -.370E+02 -.593E+02 0.139E+02   0.214E+01 0.504E+01 -.148E+01   -.501E-04 0.136E-03 -.304E-05
   0.300E+02 -.195E+02 0.549E+02   -.321E+02 0.213E+02 -.601E+02   0.174E+01 -.203E+01 0.503E+01   -.547E-04 -.143E-04 0.135E-03
   0.311E+02 -.398E+02 -.409E+02   -.325E+02 0.432E+02 0.446E+02   0.117E+01 -.370E+01 -.395E+01   -.664E-04 -.558E-04 -.628E-04
   0.103E+03 0.105E+02 0.202E+02   -.109E+03 -.103E+02 -.204E+02   0.520E+01 -.406E+00 -.798E-01   -.694E-03 0.210E-03 0.186E-03
   0.619E+01 0.943E+02 0.113E+03   -.782E+01 -.974E+02 -.117E+03   0.676E+00 0.409E+01 0.493E+01   -.415E-03 -.833E-04 -.161E-03
   -.192E+03 -.846E+02 -.116E+03   0.218E+03 0.102E+03 0.139E+03   -.245E+02 -.181E+02 -.235E+02   -.592E-03 -.117E-04 -.814E-04
 -----------------------------------------------------------------------------------------------
   0.136E+02 0.152E+02 0.190E+02   0.284E-13 0.000E+00 0.000E+00   -.136E+02 -.152E+02 -.190E+02   -.187E-02 0.181E-03 0.125E-04
 
 
 POSITION                                       TOTAL-FORCE (eV/Angst)
 -----------------------------------------------------------------------------------
     14.11478     13.92722     15.12592        -0.293805     -0.018247     -0.299407
     14.19442     15.28024     13.88370        -0.315752     -0.266218     -0.104802
     14.28865     15.64135     15.64121        -0.252844     -0.264988     -0.305036
     14.53144     14.90266     14.85318        -0.140507     -0.159838     -0.213382
     15.99828     14.84978     14.90169        -0.956579      1.053896      1.174859
     16.81791     15.35134     15.56231         1.959487     -0.344605     -0.252232
 -----------------------------------------------------------------------------------
    total drift:                               -0.003474      0.003963      0.002059


--------------------------------------------------------------------------------------------------------



  FREE ENERGIE OF THE ION-ELECTRON SYSTEM (eV)
  ---------------------------------------------------
  free  energy   TOTEN  =       -35.94552957 eV

  energy  without entropy=      -35.94552957  energy(sigma->0) =      -35.94552957
 


--------------------------------------------------------------------------------------------------------


    POTLOK:  cpu time   15.5476: real time   15.5906


--------------------------------------------------------------------------------------------------------


 NEB: the previous image is higher in energy: T
 NEB: the next image is higher in energy    : F
 NEB: only prev energy greater

 NEB: Tangent
 ----------------------------------------------
     -0.12165     -0.07917     -0.08537
     -0.12676     -0.06370     -0.09596
     -0.03073     -0.06571     -0.08687
     -0.08781     -0.06855     -0.08503
     -0.29625      0.39730      0.44563
      0.66502     -0.12340     -0.09045

 NEB: forces: par spring, perp REAL, dneb     0.091450    0.410347    0.000000
 NEB: distance to prev, next image, angle between     0.286444    0.268154  150.358018
 NEB: projections on to tangent (spring, REAL)    -0.091450    2.816999

 stress matrix after NEB project (eV)
      2.40580      0.90001      1.35686
      0.90001     -1.42762     -0.13549
      1.35686     -0.13549     -1.27447
  FORCES: max atom, RMS     0.226208    0.171633
  FORCE total and by dimension    0.420414    0.212026
  Stress total and by dimension    3.845666    2.405798
 
 OPT: Flag T
 OPT: FIRE Step
 OPT: FIRE, TIMESTEP      0.10000
 OPT: FIRE, alpha         0.10000


--------------------------------------------------------------------------------------------------------


    WAVPRE:  cpu time    7.3309: real time    7.3476
 FEWALD executed in parallel
    FEWALD:  cpu time    0.0010: real time    0.0003
    ORTHCH:  cpu time    7.2219: real time    7.2366
     LOOP+:  cpu time 2813.6563: real time 2819.7498


----------------------------------------- Iteration    2(   1)  ---------------------------------------


    POTLOK:  cpu time   23.2205: real time   23.2726
    SETDIJ:  cpu time    0.0070: real time    0.0066
     EDDAV:  cpu time   69.2745: real time   69.4242
       DOS:  cpu time    0.0000: real time    0.0002
    CHARGE:  cpu time    7.0599: real time    7.0776
    MIXING:  cpu time    0.5809: real time    0.5819
    --------------------------------------------
      LOOP:  cpu time  100.1438: real time  100.3655

 eigenvalue-minimisations  :   104
 total energy-change (2. order) : 0.1090224E-02  (-0.1782089E-02)
 number of electron      16.0000005 magnetization 
 augmentation part        0.4347875 magnetization 

 Broyden mixing:
  rms(total) = 0.66736E-02    rms(broyden)= 0.66665E-02
  rms(prec ) = 0.69138E-02
  weight for this iteration     100.00

 Free energy of the ion-electron system (eV)
  ---------------------------------------------------
  alpha Z        PSCENC =         0.04144063
  Ewald energy   TEWEN  =       687.15591671
  -Hartree energ DENC   =     -1167.77900760
  -exchange      EXHF   =         0.00000000
  -V(xc)+E(xc)   XCENC  =        54.97044683
  PAW double counting   =      1360.13513543    -1362.94222776
  entropy T*S    EENTRO =         0.00000000
  eigenvalues    EBANDS =      -203.69139349
  atomic energy  EATOM  =       596.16534815
  Solvation  Ediel_sol  =         0.00000000
  ---------------------------------------------------
  free energy    TOTEN  =       -35.94434109 eV

  energy without entropy =      -35.94434109  energy(sigma->0) =      -35.94434109


--------------------------------------------------------------------------------------------------------




----------------------------------------- Iteration    2(   2)  ---------------------------------------


    POTLOK:  cpu time   24.4653: real time   24.5207
    SETDIJ:  cpu time    0.0070: real time    0.0068
     EDDAV:  cpu time   84.0032: real time   84.1868
       DOS:  cpu time    0.0000: real time    0.0002
    CHARGE:  cpu time    6.7380: real time    6.7533
    MIXING:  cpu time    0.7439: real time    0.7454
    --------------------------------------------
      LOOP:  cpu time  115.9584: real time  116.2171

 eigenvalue-minimisations  :   128
 total energy-change (2. order) : 0.7280736E-04  (-0.3749393E-04)
 number of electron      16.0000004 magnetization 
 augmentation part        0.4352101 magnetization 

 Broyden mixing:
  rms(total) = 0.31791E-02    rms(broyden)= 0.31760E-02
  rms(prec ) = 0.32773E-02
  weight for this iteration     100.00

 eigenvalues of (default mixing * dielectric matrix)
  average eigenvalue GAMMA=   0.9901
  0.9901

 Free energy of the ion-electron system (eV)
  ---------------------------------------------------
  alpha Z        PSCENC =         0.04144063
  Ewald energy   TEWEN  =       687.15591671
  -Hartree energ DENC   =     -1167.75245415
  -exchange      EXHF   =         0.00000000
  -V(xc)+E(xc)   XCENC  =        54.96822557
  PAW double counting   =      1359.47445628    -1362.28076388
  entropy T*S    EENTRO =         0.00000000
  eigenvalues    EBANDS =      -203.71643759
  atomic energy  EATOM  =       596.16534815
  Solvation  Ediel_sol  =         0.00000000
  ---------------------------------------------------
  free energy    TOTEN  =       -35.94426829 eV

  energy without entropy =      -35.94426829  energy(sigma->0) =      -35.94426829


--------------------------------------------------------------------------------------------------------




----------------------------------------- Iteration    2(   3)  ---------------------------------------


    POTLOK:  cpu time   24.1473: real time   24.2018
    SETDIJ:  cpu time    0.0060: real time    0.0065
     EDDAV:  cpu time   67.8417: real time   67.9876
       DOS:  cpu time    0.0000: real time    0.0002
    CHARGE:  cpu time    5.9961: real time    6.0091
    MIXING:  cpu time    0.7879: real time    0.7893
    --------------------------------------------
      LOOP:  cpu time   98.7790: real time   98.9985

 eigenvalue-minimisations  :    96
 total energy-change (2. order) : 0.3816202E-05  (-0.8372522E-05)
 number of electron      16.0000004 magnetization 
 augmentation part        0.4350188 magnetization 

 Broyden mixing:
  rms(total) = 0.15442E-02    rms(broyden)= 0.15438E-02
  rms(prec ) = 0.15641E-02
  weight for this iteration     100.00

 eigenvalues of (default mixing * dielectric matrix)
  average eigenvalue GAMMA=   1.1922
  0.8019  1.5825

 Free energy of the ion-electron system (eV)
  ---------------------------------------------------
  alpha Z        PSCENC =         0.04144063
  Ewald energy   TEWEN  =       687.15591671
  -Hartree energ DENC   =     -1167.76115607
  -exchange      EXHF   =         0.00000000
  -V(xc)+E(xc)   XCENC  =        54.96887802
  PAW double counting   =      1359.25353052    -1362.05976135
  entropy T*S    EENTRO =         0.00000000
  eigenvalues    EBANDS =      -203.70846107
  atomic energy  EATOM  =       596.16534815
  Solvation  Ediel_sol  =         0.00000000
  ---------------------------------------------------
  free energy    TOTEN  =       -35.94426447 eV

  energy without entropy =      -35.94426447  energy(sigma->0) =      -35.94426447


--------------------------------------------------------------------------------------------------------




----------------------------------------- Iteration    2(   4)  ---------------------------------------


    POTLOK:  cpu time   22.4896: real time   22.5400
    SETDIJ:  cpu time    0.0070: real time    0.0065
     EDDAV:  cpu time   66.4049: real time   66.5496
[...]
  Solvation  Ediel_sol  =         0.00000000
  ---------------------------------------------------
  free energy    TOTEN  =       -36.03797509 eV

  energy without entropy =      -36.03797509  energy(sigma->0) =      -36.03797509


--------------------------------------------------------------------------------------------------------




----------------------------------------- Iteration   28(   2)  ---------------------------------------


    POTLOK:  cpu time   19.8930: real time   20.7070
    SETDIJ:  cpu time    0.0070: real time    0.0063
     EDDAV:  cpu time   54.7687: real time   56.1333
       DOS:  cpu time    0.0000: real time    0.0003
    CHARGE:  cpu time    7.6208: real time    9.2866
    MIXING:  cpu time    0.6579: real time    0.8199
    --------------------------------------------
      LOOP:  cpu time   82.9504: real time   86.9812

 eigenvalue-minimisations  :    64
 total energy-change (2. order) :-0.1447200E-06  (-0.3070801E-06)
 number of electron      15.9999991 magnetization 
 augmentation part        0.4373907 magnetization 

 Broyden mixing:
  rms(total) = 0.12784E-03    rms(broyden)= 0.12751E-03
  rms(prec ) = 0.12942E-03
  weight for this iteration     100.00

 eigenvalues of (default mixing * dielectric matrix)
  average eigenvalue GAMMA=   1.2440
  1.2440

 Free energy of the ion-electron system (eV)
  ---------------------------------------------------
  alpha Z        PSCENC =         0.04144063
  Ewald energy   TEWEN  =       687.60280415
  -Hartree energ DENC   =     -1168.04441394
  -exchange      EXHF   =         0.00000000
  -V(xc)+E(xc)   XCENC  =        55.02545684
  PAW double counting   =      1371.89225452    -1374.70367335
  entropy T*S    EENTRO =         0.00000000
  eigenvalues    EBANDS =      -204.01719222
  atomic energy  EATOM  =       596.16534815
  Solvation  Ediel_sol  =         0.00000000
  ---------------------------------------------------
  free energy    TOTEN  =       -36.03797524 eV

  energy without entropy =      -36.03797524  energy(sigma->0) =      -36.03797524


--------------------------------------------------------------------------------------------------------




----------------------------------------- Iteration   28(   3)  ---------------------------------------


    POTLOK:  cpu time   24.7412: real time   25.7567
    SETDIJ:  cpu time    0.0070: real time    0.0067
     EDDAV:  cpu time   39.0981: real time   43.0707
       DOS:  cpu time    0.0000: real time    0.0002
    CHARGE:  cpu time    6.9209: real time    7.8771
    MIXING:  cpu time    0.8009: real time    0.9632
    --------------------------------------------
      LOOP:  cpu time   71.5681: real time   77.6838

 eigenvalue-minimisations  :    48
 total energy-change (2. order) :-0.6934988E-07  (-0.3970296E-07)
 number of electron      15.9999991 magnetization 
 augmentation part        0.4373942 magnetization 

 Broyden mixing:
  rms(total) = 0.70141E-04    rms(broyden)= 0.70085E-04
  rms(prec ) = 0.71391E-04
  weight for this iteration     100.00

 eigenvalues of (default mixing * dielectric matrix)
  average eigenvalue GAMMA=   1.4773
  0.9307  2.0238

 Free energy of the ion-electron system (eV)
  ---------------------------------------------------
  alpha Z        PSCENC =         0.04144063
  Ewald energy   TEWEN  =       687.60280415
  -Hartree energ DENC   =     -1168.04342438
  -exchange      EXHF   =         0.00000000
  -V(xc)+E(xc)   XCENC  =        55.02539633
  PAW double counting   =      1371.88168182    -1374.69308130
  entropy T*S    EENTRO =         0.00000000
  eigenvalues    EBANDS =      -204.01814070
  atomic energy  EATOM  =       596.16534815
  Solvation  Ediel_sol  =         0.00000000
  ---------------------------------------------------
  free energy    TOTEN  =       -36.03797530 eV

  energy without entropy =      -36.03797530  energy(sigma->0) =      -36.03797530


--------------------------------------------------------------------------------------------------------




----------------------------------------- Iteration   28(   4)  ---------------------------------------


    POTLOK:  cpu time   27.0079: real time   31.4022
    SETDIJ:  cpu time    0.0060: real time    0.0067
     EDDAV:  cpu time   44.8712: real time   52.4710
       DOS:  cpu time    0.0000: real time    0.0002
    CHARGE:  cpu time    7.0919: real time    7.7996
    MIXING:  cpu time    0.8919: real time    0.9039
    --------------------------------------------
      LOOP:  cpu time   79.8699: real time   92.5931

 eigenvalue-minimisations  :    48
 total energy-change (2. order) :-0.2308843E-07  (-0.1037316E-07)
 number of electron      15.9999991 magnetization 
 augmentation part        0.4373946 magnetization 

 Broyden mixing:
  rms(total) = 0.21375E-04    rms(broyden)= 0.21341E-04
  rms(prec ) = 0.21871E-04
  weight for this iteration     100.00

 eigenvalues of (default mixing * dielectric matrix)
  average eigenvalue GAMMA=   1.4877
  2.1947  1.4297  0.8387

 Free energy of the ion-electron system (eV)
  ---------------------------------------------------
  alpha Z        PSCENC =         0.04144063
  Ewald energy   TEWEN  =       687.60280415
  -Hartree energ DENC   =     -1168.04239605
  -exchange      EXHF   =         0.00000000
  -V(xc)+E(xc)   XCENC  =        55.02534718
  PAW double counting   =      1371.87090147    -1374.68229081
  entropy T*S    EENTRO =         0.00000000
  eigenvalues    EBANDS =      -204.01913005
  atomic energy  EATOM  =       596.16534815
  Solvation  Ediel_sol  =         0.00000000
  ---------------------------------------------------
  free energy    TOTEN  =       -36.03797533 eV

  energy without entropy =      -36.03797533  energy(sigma->0) =      -36.03797533


--------------------------------------------------------------------------------------------------------




----------------------------------------- Iteration   28(   5)  ---------------------------------------


    POTLOK:  cpu time   21.9137: real time   26.0384
    SETDIJ:  cpu time    0.0070: real time    0.0069
     EDDAV:  cpu time   42.5985: real time   44.7594
       DOS:  cpu time    0.0000: real time    0.0002
    CHARGE:  cpu time    6.9929: real time    8.1490
    MIXING:  cpu time    0.8879: real time    1.0994
    --------------------------------------------
      LOOP:  cpu time   72.4010: real time   80.0577

 eigenvalue-minimisations  :    48
 total energy-change (2. order) :-0.7414656E-08  (-0.3870492E-08)
 number of electron      15.9999991 magnetization 
 augmentation part        0.4373957 magnetization 

 Broyden mixing:
  rms(total) = 0.11460E-04    rms(broyden)= 0.11449E-04
  rms(prec ) = 0.11924E-04
  weight for this iteration     100.00

 eigenvalues of (default mixing * dielectric matrix)
  average eigenvalue GAMMA=   1.7167
  2.5046  2.5046  1.0425  0.8149

 Free energy of the ion-electron system (eV)
  ---------------------------------------------------
  alpha Z        PSCENC =         0.04144063
  Ewald energy   TEWEN  =       687.60280415
  -Hartree energ DENC   =     -1168.04210329
  -exchange      EXHF   =         0.00000000
  -V(xc)+E(xc)   XCENC  =        55.02533392
  PAW double counting   =      1371.86659042    -1374.67798085
  entropy T*S    EENTRO =         0.00000000
  eigenvalues    EBANDS =      -204.01940846
  atomic energy  EATOM  =       596.16534815
  Solvation  Ediel_sol  =         0.00000000
  ---------------------------------------------------
  free energy    TOTEN  =       -36.03797534 eV

  energy without entropy =      -36.03797534  energy(sigma->0) =      -36.03797534


--------------------------------------------------------------------------------------------------------




----------------------------------------- Iteration   28(   6)  ---------------------------------------


    POTLOK:  cpu time   26.1650: real time   26.4545
    SETDIJ:  cpu time    0.0070: real time    0.0064
     EDDAV:  cpu time   40.4319: real time   43.0964
       DOS:  cpu time    0.0000: real time    0.0002
    --------------------------------------------
      LOOP:  cpu time   66.6059: real time   70.8485

 eigenvalue-minimisations  :    48
 total energy-change (2. order) :-0.8706934E-08  (-0.2174039E-08)
 number of electron      15.9999991 magnetization 
 augmentation part        0.4373957 magnetization 

 Free energy of the ion-electron system (eV)
  ---------------------------------------------------
  alpha Z        PSCENC =         0.04144063
  Ewald energy   TEWEN  =       687.60280415
  -Hartree energ DENC   =     -1168.04197901
  -exchange      EXHF   =         0.00000000
  -V(xc)+E(xc)   XCENC  =        55.02533137
  PAW double counting   =      1371.86270695    -1374.67410250
  entropy T*S    EENTRO =         0.00000000
  eigenvalues    EBANDS =      -204.01952508
  atomic energy  EATOM  =       596.16534815
  Solvation  Ediel_sol  =         0.00000000
  ---------------------------------------------------
  free energy    TOTEN  =       -36.03797534 eV

  energy without entropy =      -36.03797534  energy(sigma->0) =      -36.03797534


--------------------------------------------------------------------------------------------------------




 average (electrostatic) potential at core
  the test charge radii are     0.5201  0.6991  0.7089
  (the norm of the test charge is              1.0000)
       1 -43.0387       2 -43.0357       3 -42.8916       4 -59.9135       5 -60.0208
       6 -73.4340
 
 
 
 E-fermi :  -6.8362     XC(G=0):  -0.0596     alpha+bet : -0.0137


 k-point     1 :       0.2500    0.2500    0.2500
  band No.  band energies     occupation 
      1     -22.8332      2.00000
      2     -19.0380      2.00000
      3     -12.4337      2.00000
      4     -11.5473      2.00000
      5     -11.3301      2.00000
      6      -8.8623      2.00000
      7      -8.1805      2.00000
      8      -7.7846      2.00000
      9      -2.2050      0.00000
     10      -0.4194      0.00000
     11      -0.4020      0.00000
     12       0.0275      0.00000

 k-point     2 :      -0.2500    0.2500    0.2500
  band No.  band energies     occupation 
      1     -22.8332      2.00000
      2     -19.0380      2.00000
      3     -12.4337      2.00000
      4     -11.5473      2.00000
      5     -11.3301      2.00000
      6      -8.8623      2.00000
      7      -8.1805      2.00000
      8      -7.7846      2.00000
      9      -2.2050      0.00000
     10      -0.4194      0.00000
     11      -0.4020      0.00000
     12       0.0243      0.00000

 k-point     3 :       0.2500   -0.2500    0.2500
  band No.  band energies     occupation 
      1     -22.8332      2.00000
      2     -19.0380      2.00000
      3     -12.4337      2.00000
      4     -11.5473      2.00000
      5     -11.3301      2.00000
      6      -8.8623      2.00000
      7      -8.1805      2.00000
      8      -7.7846      2.00000
      9      -2.2050      0.00000
     10      -0.4194      0.00000
     11      -0.4020      0.00000
     12       0.0265      0.00000

 k-point     4 :      -0.2500   -0.2500    0.2500
  band No.  band energies     occupation 
      1     -22.8332      2.00000
      2     -19.0380      2.00000
      3     -12.4337      2.00000
      4     -11.5473      2.00000
      5     -11.3301      2.00000
      6      -8.8623      2.00000
      7      -8.1805      2.00000
      8      -7.7846      2.00000
      9      -2.2050      0.00000
     10      -0.4194      0.00000
     11      -0.4020      0.00000
     12       0.0260      0.00000


--------------------------------------------------------------------------------------------------------


 soft charge-density along one line, spin component           1
         0         1         2         3         4         5         6         7         8         9
 total charge-density along one line
 
 pseudopotential strength for first ion, spin component:           1
 -2.362  -4.074  -0.002   0.000  -0.001
 -4.074  -6.940  -0.005   0.001  -0.002
 -0.002  -0.005  -0.330  -0.001   0.002
  0.000   0.001  -0.001  -0.334   0.000
 -0.001  -0.002   0.002   0.000  -0.333
 total augmentation occupancy for first ion, spin component:           1
  3.531  -0.635   0.399  -0.112   0.171
 -0.635   0.130  -0.073   0.020  -0.032
  0.399  -0.073   0.047  -0.011   0.017
 -0.112   0.020  -0.011   0.012  -0.005
  0.171  -0.032   0.017  -0.005   0.015


------------------------ aborting loop because EDIFF is reached ----------------------------------------


    CHARGE:  cpu time    5.5662: real time    6.5054
    FORLOC:  cpu time    2.4296: real time    2.6842
    FORNL :  cpu time   18.3162: real time   20.6419
    STRESS:  cpu time   59.1390: real time   67.7361
    FORCOR:  cpu time   24.1623: real time   26.4289
    FORHAR:  cpu time    8.7827: real time    8.8025
    MIXING:  cpu time    0.9179: real time    0.9197
    OFIELD:  cpu time    0.0000: real time    0.0000

  FORCE on cell =-STRESS in cart. coord.  units (eV):
  Direction    XX          YY          ZZ          XY          YZ          ZX
  --------------------------------------------------------------------------------------
  Alpha Z     0.04144     0.04144     0.04144
  Ewald     473.94600    88.30911   125.34762   100.76237    61.45005   149.57395
  Hartree   541.14331   305.45866   321.43981    46.75452    24.21385    73.21697
  E(xc)     -59.47342   -60.21329   -60.10000     0.30317     0.19375     0.42083
  Local   -1171.61066  -561.02440  -610.77826  -140.28507   -79.43801  -213.18607
  n-local   -26.03901   -25.46741   -26.10820    -2.00344    -1.07870    -2.43155
  augment     0.52548     0.35531     0.34056     0.04842    -0.06578     0.05008
  Kinetic   243.91960   251.35302   248.72991    -4.71410    -5.43721    -6.38577
  Fock        0.00000     0.00000     0.00000     0.00000     0.00000     0.00000
  -------------------------------------------------------------------------------------
  Total       2.45273    -1.18756    -1.08711     0.86587    -0.16205     1.25844
  in kB       0.14555    -0.07047    -0.06451     0.05138    -0.00962     0.07468
  external pressure =        0.00 kB  Pullay stress =        0.00 kB


 VOLUME and BASIS-vectors are now :
 -----------------------------------------------------------------------------
  energy-cutoff  :      400.00
  volume of cell :    27000.00
      direct lattice vectors                 reciprocal lattice vectors
    30.000000000  0.000000000  0.000000000     0.033333333  0.000000000  0.000000000
     0.000000000 30.000000000  0.000000000     0.000000000  0.033333333  0.000000000
     0.000000000  0.000000000 30.000000000     0.000000000  0.000000000  0.033333333

  length of vectors
    30.000000000 30.000000000 30.000000000     0.033333333  0.033333333  0.033333333


 FORCES acting on ions
    electron-ion (+dipol)            ewald-force                    non-local-force                 convergence-correction
 -----------------------------------------------------------------------------------------------
   0.345E+02 0.546E+02 -.125E+02   -.370E+02 -.599E+02 0.137E+02   0.216E+01 0.510E+01 -.147E+01   -.704E-05 0.105E-04 -.734E-06
   0.300E+02 -.190E+02 0.555E+02   -.320E+02 0.208E+02 -.608E+02   0.175E+01 -.199E+01 0.510E+01   -.729E-05 0.123E-07 0.898E-05
   0.321E+02 -.396E+02 -.406E+02   -.337E+02 0.431E+02 0.444E+02   0.133E+01 -.371E+01 -.394E+01   -.473E-05 -.160E-05 -.337E-05
   0.103E+03 0.109E+02 0.204E+02   -.108E+03 -.107E+02 -.206E+02   0.506E+01 -.337E+00 0.110E-01   -.562E-04 0.172E-04 0.105E-04
   0.970E+01 0.908E+02 0.107E+03   -.112E+02 -.936E+02 -.110E+03   0.821E+00 0.385E+01 0.457E+01   -.909E-04 0.368E-04 0.266E-04
   -.195E+03 -.828E+02 -.111E+03   0.222E+03 0.100E+03 0.133E+03   -.259E+02 -.178E+02 -.227E+02   -.884E-04 0.839E-04 0.775E-04
 -----------------------------------------------------------------------------------------------
   0.147E+02 0.149E+02 0.184E+02   -.284E-13 0.142E-13 0.000E+00   -.147E+02 -.149E+02 -.184E+02   -.254E-03 0.147E-03 0.119E-03
 
 
 POSITION                                       TOTAL-FORCE (eV/Angst)
 -----------------------------------------------------------------------------------
     14.11980     13.92870     15.12125        -0.324812     -0.168135     -0.251728
     14.19867     15.26850     13.88324        -0.327786     -0.201727     -0.226861
     14.26282     15.63592     15.63350        -0.222425     -0.175038     -0.219960
     14.53270     14.90237     14.85394        -0.210747     -0.148381     -0.188910
     15.99006     14.86649     14.91931        -0.711360      1.067367      1.184082
     16.83717     15.35619     15.55352         1.797129     -0.374086     -0.296622
 -----------------------------------------------------------------------------------
    total drift:                               -0.003542     -0.000936      0.002616


--------------------------------------------------------------------------------------------------------



  FREE ENERGIE OF THE ION-ELECTRON SYSTEM (eV)
  ---------------------------------------------------
  free  energy   TOTEN  =       -36.03797534 eV

  energy  without entropy=      -36.03797534  energy(sigma->0) =      -36.03797534
 
 d Force = 0.5013630E-03[ 0.501E-03, 0.502E-03]  d Energy = 0.5013878E-03-0.248E-07
 d Force = 0.1683916E-01[ 0.168E-01, 0.168E-01]  d Ewald  = 0.1683916E-01 0.500E-11


--------------------------------------------------------------------------------------------------------


    POTLOK:  cpu time   22.8685: real time   22.9290


--------------------------------------------------------------------------------------------------------


 NEB: the previous image is higher in energy: T
 NEB: the next image is higher in energy    : F
 NEB: only prev energy greater

 NEB: Tangent
 ----------------------------------------------
     -0.11843     -0.05804     -0.09642
     -0.12142     -0.08074     -0.08035
     -0.09156     -0.06630     -0.08473
     -0.07546     -0.05361     -0.06871
     -0.26841      0.39957      0.44029
      0.67450     -0.13985     -0.11080

 NEB: forces: par spring, perp REAL, dneb     0.116457    0.037751    0.000000
 NEB: distance to prev, next image, angle between     0.284805    0.308096  151.878603
 NEB: projections on to tangent (spring, REAL)     0.116457    2.670371

 stress matrix after NEB project (eV)
      2.45273      0.86587      1.25844
      0.86587     -1.18756     -0.16205
      1.25844     -0.16205     -1.08711
  FORCES: max atom, RMS     0.080139    0.049979
  FORCE total and by dimension    0.122423    0.074505
  Stress total and by dimension    3.650665    2.452734
 OPT: skip step - force has converged


--------------------------------------------------------------------------------------------------------


  
 reached required accuracy - stopping structural energy minimisation
     LOOP+:  cpu time  681.9383: real time  742.0769
    4ORBIT:  cpu time    0.0000: real time    0.0000

 total amount of memory used by VASP on root node  3203889. kBytes
========================================================================

   base      :      30000. kBytes
   nonlr-proj:        693. kBytes
   fftplans  :     924480. kBytes
   grid      :    1872000. kBytes
   one-center:         18. kBytes
   wavefun   :     376698. kBytes
 
  
  
 General timing and accounting informations for this job:
 ========================================================
  
                  Total CPU time used (sec):    22477.125
                            User time (sec):    22180.953
                          System time (sec):      296.172
                         Elapsed time (sec):    22605.911
  
                   Maximum memory used (kb):     4765240.
                   Average memory used (kb):           0.
  
                          Minor page faults:      2423288
                          Major page faults:            8
                 Voluntary context switches:         3811
