unknown system                          
           1
    30.000000    0.000000    0.000000
     0.000000   30.000000    0.000000
     0.000000    0.000000   30.000000
   H    C    N 
   3   2   1
Direct configuration=     1
   0.47051260  0.46431147  0.50418035
   0.47316510  0.50931447  0.46284817
   0.47623389  0.52135354  0.52135617
   0.48441967  0.49676863  0.49511737
   0.53324434  0.49495870  0.49668245
   0.56060547  0.51171597  0.51874711
Direct configuration=     2
   0.47054499  0.46442637  0.50415223
   0.47319168  0.50926511  0.46293914
   0.47613676  0.52130927  0.52132254
   0.48447791  0.49679113  0.49513535
   0.53325708  0.49494816  0.49667507
   0.56056652  0.51169223  0.51870150
Direct configuration=     3
   0.47058625  0.46454030  0.50412901
   0.47322100  0.50920165  0.46302032
   0.47601712  0.52125686  0.52127755
   0.48455107  0.49681667  0.49515496
   0.53324388  0.49493364  0.49666018
   0.56053801  0.51170793  0.51866869
Direct configuration=     4
   0.47058665  0.46453179  0.50413196
   0.47321997  0.50920024  0.46301112
   0.47601738  0.52125779  0.52127635
   0.48454830  0.49681460  0.49515267
   0.53323904  0.49493716  0.49666323
   0.56054287  0.51171952  0.51867293
Direct configuration=     5
   0.47058830  0.46451388  0.50413745
   0.47321780  0.50919471  0.46299150
   0.47601764  0.52125778  0.52127081
   0.48454126  0.49680847  0.49514618
   0.53322819  0.49495169  0.49667782
   0.56055347  0.51174433  0.51867857
Direct configuration=     6
   0.47059062  0.46448772  0.50414444
   0.47321417  0.50918468  0.46296265
   0.47601682  0.52125648  0.52126073
   0.48452936  0.49679822  0.49513548
   0.53321425  0.49498019  0.49670752
   0.56056983  0.51177852  0.51868246
Direct configuration=     7
   0.47059309  0.46445493  0.50415166
   0.47320908  0.50916982  0.46292635
   0.47601334  0.52125366  0.52124617
   0.48451251  0.49678396  0.49512093
   0.53319907  0.49502426  0.49675410
   0.56059294  0.51181849  0.51868235
Direct configuration=     8
   0.47059528  0.46441743  0.50415772
   0.47320275  0.50914989  0.46288480
   0.47600502  0.52124918  0.52122735
   0.48449130  0.49676617  0.49510342
   0.53318215  0.49508342  0.49681655
   0.56062585  0.51186180  0.51867797
Direct configuration=     9
   0.47059737  0.46437734  0.50416152
   0.47319615  0.50912476  0.46284062
   0.47598920  0.52124316  0.52120480
   0.48446724  0.49674576  0.49508438
   0.53316165  0.49515442  0.49689046
   0.56067110  0.51190769  0.51867081
Direct configuration=    10
   0.47059974  0.46433273  0.50416163
   0.47318988  0.50909108  0.46279216
   0.47595923  0.52123492  0.52117645
   0.48444014  0.49672193  0.49506400
   0.53313249  0.49524212  0.49697953
   0.56073839  0.51195969  0.51866120
Direct configuration=    11
   0.47060256  0.46428661  0.50415526
   0.47318580  0.50904767  0.46274361
   0.47590688  0.52122419  0.52114251
   0.48441357  0.49669731  0.49504561
   0.53309411  0.49534568  0.49708201
   0.56083209  0.51201293  0.51864692
Direct configuration=    12
   0.47060602  0.46424369  0.50413917
   0.47318636  0.50899468  0.46270111
   0.47582277  0.52121094  0.52110454
   0.48439229  0.49667646  0.49503422
   0.53305344  0.49546446  0.49719778
   0.56094954  0.51205562  0.51862054
Direct configuration=    13
   0.47061138  0.46421001  0.50411103
   0.47319492  0.50893484  0.46267177
   0.47569936  0.52119605  0.52106620
   0.48438126  0.49666465  0.49503490
   0.53301677  0.49559130  0.49732109
   0.56108575  0.51207578  0.51857693
Direct configuration=    14
   0.47062111  0.46419268  0.50407116
   0.47321411  0.50887318  0.46266228
   0.47553910  0.52118137  0.52103256
   0.48438451  0.49666508  0.49505145
   0.53298147  0.49570865  0.49743379
   0.56123490  0.51206967  0.51852080
Direct configuration=    15
   0.47062191  0.46419493  0.50407043
   0.47321545  0.50887408  0.46266482
   0.47553670  0.52118182  0.52103407
   0.48438573  0.49666663  0.49505312
   0.53298190  0.49570515  0.49743027
   0.56123460  0.51206659  0.51852023
Direct configuration=    16
   0.47062354  0.46419940  0.50406899
   0.47321815  0.50887587  0.46266986
   0.47553193  0.52118268  0.52103703
   0.48438812  0.49666970  0.49505642
   0.53298291  0.49569838  0.49742357
   0.56123384  0.51206030  0.51851886
Direct configuration=    17
   0.47062599  0.46420598  0.50406689
   0.47322219  0.50887858  0.46267727
   0.47552490  0.52118389  0.52104135
   0.48439153  0.49667425  0.49506126
   0.53298477  0.49568874  0.49741423
   0.56123240  0.51205067  0.51851635
Direct configuration=    18
   0.47062920  0.46421446  0.50406420
   0.47322750  0.50888224  0.46268685
   0.47551578  0.52118534  0.52104696
   0.48439573  0.49668023  0.49506754
   0.53298770  0.49567665  0.49740281
   0.56123016  0.51203763  0.51851244
Direct configuration=    19
   0.47063314  0.46422458  0.50406106
   0.47323403  0.50888695  0.46269832
   0.47550481  0.52118698  0.52105375
   0.48440053  0.49668753  0.49507509
   0.53299154  0.49566236  0.49738973
   0.56122727  0.51202135  0.51850708
Direct configuration=    20
   0.47063777  0.46423600  0.50405761
   0.47324174  0.50889285  0.46271131
   0.47549232  0.52118873  0.52106164
   0.48440576  0.49669602  0.49508375
   0.53299563  0.49564595  0.49737524
   0.56122427  0.51200222  0.51850048
Direct configuration=    21
   0.47064360  0.46424960  0.50405366
   0.47325158  0.50890096  0.46272689
   0.47547717  0.52119066  0.52107155
   0.48441183  0.49670660  0.49509427
   0.53299935  0.49562537  0.49735786
   0.56122177  0.51197844  0.51849213
Direct configuration=    22
   0.47065066  0.46426492  0.50404942
   0.47326389  0.50891223  0.46274462
   0.47545958  0.52119270  0.52108385
   0.48441833  0.49671925  0.49510659
   0.53300150  0.49560017  0.49733799
   0.56122105  0.51194974  0.51848183
Direct configuration=    23
   0.47065775  0.46428031  0.50404526
   0.47327782  0.50892807  0.46276262
   0.47544101  0.52119504  0.52109906
   0.48442377  0.49673341  0.49512012
   0.53300258  0.49557183  0.49731850
   0.56122395  0.51191492  0.51846849
Direct configuration=    24
   0.47066270  0.46429300  0.50404163
   0.47329110  0.50894828  0.46277790
   0.47542452  0.52119770  0.52111652
   0.48442595  0.49674711  0.49513294
   0.53300422  0.49554535  0.49730448
   0.56123178  0.51187468  0.51845164
Direct configuration=    25
   0.47066228  0.46429250  0.50404170
   0.47329081  0.50894860  0.46277738
   0.47542503  0.52119770  0.52111661
   0.48442554  0.49674688  0.49513267
   0.53300399  0.49554588  0.49730528
   0.56123268  0.51187447  0.51845152
Direct configuration=    26
   0.47066137  0.46429148  0.50404176
   0.47329015  0.50894919  0.46277631
   0.47542599  0.52119765  0.52111672
   0.48442467  0.49674639  0.49513211
   0.53300336  0.49554721  0.49730716
   0.56123492  0.51187396  0.51845119
Direct configuration=    27
   0.47065989  0.46428993  0.50404174
   0.47328906  0.50894995  0.46277467
   0.47542731  0.52119749  0.52111679
   0.48442333  0.49674560  0.49513120
   0.53300212  0.49554962  0.49731046
   0.56123893  0.51187305  0.51845057
Direct configuration=    28
   0.47065989  0.46428993  0.50404174
   0.47328906  0.50894995  0.46277467
   0.47542731  0.52119749  0.52111679
   0.48442333  0.49674560  0.49513120
   0.53300212  0.49554962  0.49731046
   0.56123893  0.51187305  0.51845057
