   6   6   0   0
  0.4500000E+04  0.3000000E-08  0.3000000E-08  0.3000000E-08  0.0000000E+00
  1.000000000000000E-004
  CAR 
 unknown system                          
      2.02155268    -24.52863146  301     -7.09366483      1.00000000
    -24.529  0.0000E+00  0.0000E+00
    -24.440  0.0000E+00  0.0000E+00
    -24.352  0.0000E+00  0.0000E+00
    -24.263  0.0000E+00  0.0000E+00
    -24.175  0.0000E+00  0.0000E+00
    -24.086  0.0000E+00  0.0000E+00
    -23.998  0.0000E+00  0.0000E+00
    -23.909  0.0000E+00  0.0000E+00
    -23.821  0.0000E+00  0.0000E+00
    -23.732  0.0000E+00  0.0000E+00
    -23.644  0.1213E-15  0.1073E-16
    -23.555  0.1463E-13  0.1306E-14
    -23.467  0.1227E-11  0.1099E-12
    -23.378  0.7002E-10  0.6307E-11
    -23.290  0.2718E-08  0.2469E-09
    -23.201  0.7187E-07  0.6607E-08
    -23.113  0.1295E-05  0.1212E-06
    -23.024  0.1592E-04  0.1530E-05
    -22.936  0.1335E-03  0.1335E-04
    -22.847  0.7651E-03  0.8106E-04
    -22.759  0.2997E-02  0.3463E-03
    -22.670  0.8030E-02  0.1057E-02
    -22.582  0.1472E-01  0.2360E-02
    -22.493  0.1847E-01  0.3994E-02
    -22.405  0.1586E-01  0.5398E-02
    -22.316  0.9326E-02  0.6224E-02
    -22.228  0.3752E-02  0.6556E-02
    -22.139  0.1033E-02  0.6647E-02
    -22.051  0.1942E-03  0.6664E-02
    -21.962  0.2497E-04  0.6666E-02
    -21.874  0.2191E-05  0.6667E-02
    -21.785  0.1311E-06  0.6667E-02
    -21.697  0.5349E-08  0.6667E-02
    -21.608  0.1487E-09  0.6667E-02
    -21.520  0.2812E-11  0.6667E-02
    -21.431  0.3618E-13  0.6667E-02
    -21.343  0.3178E-15  0.6667E-02
    -21.254  0.0000E+00  0.6667E-02
    -21.166  0.0000E+00  0.6667E-02
    -21.077  0.0000E+00  0.6667E-02
    -20.989  0.0000E+00  0.6667E-02
    -20.900  0.0000E+00  0.6667E-02
    -20.812  0.0000E+00  0.6667E-02
    -20.723  0.0000E+00  0.6667E-02
    -20.635  0.0000E+00  0.6667E-02
    -20.546  0.8363E-17  0.6667E-02
    -20.458  0.1229E-14  0.6667E-02
    -20.369  0.1262E-12  0.6667E-02
    -20.281  0.8812E-11  0.6667E-02
    -20.192  0.4186E-09  0.6667E-02
    -20.104  0.1354E-07  0.6667E-02
    -20.015  0.2982E-06  0.6667E-02
    -19.927  0.4479E-05  0.6667E-02
    -19.838  0.4590E-04  0.6671E-02
    -19.750  0.3212E-03  0.6700E-02
    -19.661  0.1536E-02  0.6835E-02
    -19.573  0.5021E-02  0.7280E-02
    -19.484  0.1123E-01  0.8274E-02
    -19.396  0.1719E-01  0.9795E-02
    -19.307  0.1801E-01  0.1139E-01
    -19.219  0.1292E-01  0.1253E-01
    -19.130  0.6342E-02  0.1309E-01
    -19.042  0.2130E-02  0.1328E-01
    -18.953  0.4892E-03  0.1333E-01
    -18.865  0.7678E-04  0.1333E-01
    -18.776  0.8231E-05  0.1333E-01
    -18.688  0.6021E-06  0.1333E-01
    -18.599  0.3004E-07  0.1333E-01
    -18.511  0.1021E-08  0.1333E-01
    -18.422  0.2363E-10  0.1333E-01
    -18.334  0.3722E-12  0.1333E-01
    -18.245  0.3981E-14  0.1333E-01
    -18.157  0.3345E-16  0.1333E-01
    -18.068  0.0000E+00  0.1333E-01
    -17.980  0.0000E+00  0.1333E-01
    -17.891  0.0000E+00  0.1333E-01
    -17.803  0.0000E+00  0.1333E-01
    -17.714  0.0000E+00  0.1333E-01
    -17.626  0.0000E+00  0.1333E-01
    -17.537  0.0000E+00  0.1333E-01
    -17.449  0.0000E+00  0.1333E-01
    -17.360  0.0000E+00  0.1333E-01
    -17.272  0.0000E+00  0.1333E-01
    -17.183  0.0000E+00  0.1333E-01
    -17.095  0.0000E+00  0.1333E-01
    -17.006  0.0000E+00  0.1333E-01
    -16.918  0.0000E+00  0.1333E-01
    -16.829  0.0000E+00  0.1333E-01
    -16.741  0.0000E+00  0.1333E-01
    -16.652  0.0000E+00  0.1333E-01
    -16.564  0.0000E+00  0.1333E-01
    -16.475  0.0000E+00  0.1333E-01
    -16.387  0.0000E+00  0.1333E-01
    -16.298  0.0000E+00  0.1333E-01
    -16.210  0.0000E+00  0.1333E-01
    -16.121  0.0000E+00  0.1333E-01
    -16.033  0.0000E+00  0.1333E-01
    -15.944  0.0000E+00  0.1333E-01
    -15.856  0.0000E+00  0.1333E-01
    -15.767  0.0000E+00  0.1333E-01
    -15.679  0.0000E+00  0.1333E-01
    -15.590  0.0000E+00  0.1333E-01
    -15.502  0.0000E+00  0.1333E-01
    -15.413  0.0000E+00  0.1333E-01
    -15.325  0.0000E+00  0.1333E-01
    -15.236  0.0000E+00  0.1333E-01
    -15.148  0.0000E+00  0.1333E-01
    -15.059  0.0000E+00  0.1333E-01
    -14.971  0.0000E+00  0.1333E-01
    -14.882  0.0000E+00  0.1333E-01
    -14.794  0.0000E+00  0.1333E-01
    -14.705  0.0000E+00  0.1333E-01
    -14.617  0.0000E+00  0.1333E-01
    -14.528  0.0000E+00  0.1333E-01
    -14.440  0.0000E+00  0.1333E-01
    -14.351  0.0000E+00  0.1333E-01
    -14.263  0.0000E+00  0.1333E-01
    -14.174  0.0000E+00  0.1333E-01
    -14.086  0.0000E+00  0.1333E-01
    -13.997  0.4182E-17  0.1333E-01
    -13.909  0.5562E-15  0.1333E-01
    -13.820  0.6102E-13  0.1333E-01
    -13.732  0.4536E-11  0.1333E-01
    -13.643  0.2294E-09  0.1333E-01
    -13.555  0.7896E-08  0.1333E-01
    -13.466  0.1851E-06  0.1333E-01
    -13.378  0.2959E-05  0.1333E-01
    -13.289  0.3227E-04  0.1334E-01
    -13.201  0.2402E-03  0.1336E-01
    -13.112  0.1222E-02  0.1347E-01
    -13.024  0.4250E-02  0.1384E-01
    -12.935  0.1011E-01  0.1474E-01
    -12.847  0.1646E-01  0.1619E-01
    -12.758  0.1834E-01  0.1782E-01
    -12.670  0.1399E-01  0.1906E-01
    -12.581  0.7306E-02  0.1970E-01
    -12.493  0.2610E-02  0.1993E-01
    -12.404  0.6376E-03  0.1999E-01
    -12.316  0.1065E-03  0.2000E-01
    -12.227  0.1215E-04  0.2000E-01
    -12.139  0.1173E-05  0.2000E-01
    -12.050  0.3922E-05  0.2000E-01
    -11.962  0.4489E-04  0.2000E-01
    -11.873  0.3553E-03  0.2004E-01
    -11.785  0.1922E-02  0.2021E-01
    -11.696  0.7110E-02  0.2084E-01
    -11.608  0.1799E-01  0.2243E-01
    -11.519  0.3117E-01  0.2519E-01
    -11.431  0.3698E-01  0.2846E-01
    -11.342  0.3003E-01  0.3112E-01
    -11.254  0.1670E-01  0.3259E-01
    -11.165  0.6357E-02  0.3316E-01
    -11.077  0.1655E-02  0.3330E-01
    -10.988  0.2948E-03  0.3333E-01
    -10.900  0.3587E-04  0.3333E-01
    -10.811  0.2980E-05  0.3333E-01
    -10.723  0.1689E-06  0.3333E-01
    -10.634  0.6528E-08  0.3333E-01
    -10.546  0.1719E-09  0.3333E-01
    -10.457  0.3081E-11  0.3333E-01
    -10.369  0.3757E-13  0.3333E-01
    -10.280  0.3094E-15  0.3333E-01
    -10.192  0.0000E+00  0.3333E-01
    -10.103  0.0000E+00  0.3333E-01
    -10.015  0.0000E+00  0.3333E-01
     -9.926  0.0000E+00  0.3333E-01
     -9.838  0.0000E+00  0.3333E-01
     -9.749  0.0000E+00  0.3333E-01
     -9.661  0.4182E-17  0.3333E-01
     -9.572  0.9158E-15  0.3333E-01
     -9.484  0.9613E-13  0.3333E-01
     -9.395  0.6872E-11  0.3333E-01
     -9.307  0.3342E-09  0.3333E-01
     -9.218  0.1106E-07  0.3333E-01
     -9.130  0.2495E-06  0.3333E-01
     -9.041  0.3837E-05  0.3333E-01
     -8.953  0.4025E-04  0.3334E-01
     -8.864  0.2883E-03  0.3336E-01
     -8.776  0.1411E-02  0.3349E-01
     -8.687  0.4722E-02  0.3391E-01
     -8.599  0.1082E-01  0.3486E-01
     -8.510  0.1704E-01  0.3637E-01
     -8.422  0.1887E-01  0.3804E-01
     -8.333  0.1663E-01  0.3951E-01
     -8.245  0.1723E-01  0.4104E-01
     -8.156  0.2535E-01  0.4328E-01
     -8.068  0.3516E-01  0.4639E-01
     -7.979  0.3577E-01  0.4956E-01
     -7.891  0.2525E-01  0.5179E-01
     -7.802  0.1225E-01  0.5288E-01
     -7.714  0.4077E-02  0.5324E-01
     -7.625  0.9305E-03  0.5332E-01
     -7.537  0.1455E-03  0.5333E-01
     -7.448  0.1557E-04  0.5333E-01
     -7.360  0.1140E-05  0.5333E-01
     -7.271  0.5706E-07  0.5333E-01
     -7.183  0.1950E-08  0.5333E-01
     -7.094  0.4547E-10  0.5333E-01
     -7.006  0.7228E-12  0.5333E-01
     -6.917  0.7820E-14  0.5333E-01
     -6.829  0.6691E-16  0.5333E-01
     -6.740  0.0000E+00  0.5333E-01
     -6.652  0.0000E+00  0.5333E-01
     -6.563  0.0000E+00  0.5333E-01
     -6.475  0.0000E+00  0.5333E-01
     -6.386  0.0000E+00  0.5333E-01
     -6.298  0.0000E+00  0.5333E-01
     -6.209  0.0000E+00  0.5333E-01
     -6.121  0.0000E+00  0.5333E-01
     -6.032  0.0000E+00  0.5333E-01
     -5.944  0.0000E+00  0.5333E-01
     -5.855  0.0000E+00  0.5333E-01
     -5.767  0.0000E+00  0.5333E-01
     -5.678  0.0000E+00  0.5333E-01
     -5.590  0.0000E+00  0.5333E-01
     -5.501  0.0000E+00  0.5333E-01
     -5.412  0.0000E+00  0.5333E-01
     -5.324  0.0000E+00  0.5333E-01
     -5.235  0.0000E+00  0.5333E-01
     -5.147  0.0000E+00  0.5333E-01
     -5.058  0.0000E+00  0.5333E-01
     -4.970  0.0000E+00  0.5333E-01
     -4.881  0.0000E+00  0.5333E-01
     -4.793  0.0000E+00  0.5333E-01
     -4.704  0.0000E+00  0.5333E-01
     -4.616  0.0000E+00  0.5333E-01
     -4.527  0.0000E+00  0.5333E-01
     -4.439  0.0000E+00  0.5333E-01
     -4.350  0.0000E+00  0.5333E-01
     -4.262  0.0000E+00  0.5333E-01
     -4.173  0.0000E+00  0.5333E-01
     -4.085  0.0000E+00  0.5333E-01
     -3.996  0.0000E+00  0.5333E-01
     -3.908  0.0000E+00  0.5333E-01
     -3.819  0.0000E+00  0.5333E-01
     -3.731  0.0000E+00  0.5333E-01
     -3.642  0.0000E+00  0.5333E-01
     -3.554  0.0000E+00  0.5333E-01
     -3.465  0.0000E+00  0.5333E-01
     -3.377  0.0000E+00  0.5333E-01
     -3.288  0.0000E+00  0.5333E-01
     -3.200  0.0000E+00  0.5333E-01
     -3.111  0.0000E+00  0.5333E-01
     -3.023  0.0000E+00  0.5333E-01
     -2.934  0.0000E+00  0.5333E-01
     -2.846  0.0000E+00  0.5333E-01
     -2.757  0.0000E+00  0.5333E-01
     -2.669  0.0000E+00  0.5333E-01
     -2.580  0.0000E+00  0.5333E-01
     -2.492  0.0000E+00  0.5333E-01
     -2.403  0.0000E+00  0.5333E-01
     -2.315  0.0000E+00  0.5333E-01
     -2.226  0.0000E+00  0.5333E-01
     -2.138  0.0000E+00  0.5333E-01
     -2.049  0.0000E+00  0.5333E-01
     -1.961  0.1505E-15  0.5333E-01
     -1.872  0.1832E-13  0.5333E-01
     -1.784  0.1508E-11  0.5333E-01
     -1.695  0.8442E-10  0.5333E-01
     -1.607  0.3216E-08  0.5333E-01
     -1.518  0.8347E-07  0.5333E-01
     -1.430  0.1476E-05  0.5333E-01
     -1.341  0.1781E-04  0.5334E-01
     -1.253  0.1467E-03  0.5335E-01
     -1.164  0.8250E-03  0.5342E-01
     -1.076  0.3173E-02  0.5370E-01
     -0.987  0.8358E-02  0.5444E-01
     -0.899  0.1516E-01  0.5578E-01
     -0.810  0.1942E-01  0.5750E-01
     -0.722  0.1965E-01  0.5924E-01
     -0.633  0.2122E-01  0.6112E-01
     -0.545  0.2878E-01  0.6367E-01
     -0.456  0.3669E-01  0.6691E-01
     -0.368  0.3503E-01  0.7001E-01
     -0.279  0.2413E-01  0.7215E-01
     -0.191  0.1431E-01  0.7342E-01
     -0.102  0.1266E-01  0.7454E-01
     -0.014  0.1660E-01  0.7601E-01
      0.075  0.1857E-01  0.7765E-01
      0.163  0.1469E-01  0.7895E-01
      0.252  0.7993E-02  0.7966E-01
      0.340  0.2977E-02  0.7992E-01
      0.429  0.7582E-03  0.7999E-01
      0.517  0.1320E-03  0.8000E-01
      0.606  0.1570E-04  0.8000E-01
      0.694  0.1275E-05  0.8000E-01
      0.783  0.7059E-07  0.8000E-01
      0.871  0.2664E-08  0.8000E-01
      0.960  0.6846E-10  0.8000E-01
      1.048  0.1197E-11  0.8000E-01
      1.137  0.1424E-13  0.8000E-01
      1.225  0.1171E-15  0.8000E-01
      1.314  0.0000E+00  0.8000E-01
      1.402  0.0000E+00  0.8000E-01
      1.491  0.0000E+00  0.8000E-01
      1.579  0.0000E+00  0.8000E-01
      1.668  0.0000E+00  0.8000E-01
      1.756  0.0000E+00  0.8000E-01
      1.845  0.0000E+00  0.8000E-01
      1.933  0.0000E+00  0.8000E-01
      2.022  0.0000E+00  0.8000E-01
