    6    6  300    1
  0.4500000E+04  0.3000000E-08  0.3000000E-08  0.3000000E-08  0.0000000E+00
  1.000000000000000E-004
  CAR 
 unknown system                          
     16      4     12
 
  0.2500000E+00  0.2500000E+00  0.2500000E+00  0.2500000E+00
    1      -22.528631   1.000000
    2      -19.384699   1.000000
    3      -12.821265   1.000000
    4      -11.483191   1.000000
    5      -11.475109   1.000000
    6       -8.493714   1.000000
    7       -8.072235   1.000000
    8       -8.048587   1.000000
    9       -0.850289   0.000000
   10       -0.473420   0.000000
   11       -0.453505   0.000000
   12        0.021553   0.000000
 
 -0.2500000E+00  0.2500000E+00  0.2500000E+00  0.2500000E+00
    1      -22.528630   1.000000
    2      -19.384698   1.000000
    3      -12.821266   1.000000
    4      -11.483192   1.000000
    5      -11.475109   1.000000
    6       -8.493707   1.000000
    7       -8.072239   1.000000
    8       -8.048602   1.000000
    9       -0.850288   0.000000
   10       -0.473419   0.000000
   11       -0.453491   0.000000
   12        0.020629   0.000000
 
  0.2500000E+00 -0.2500000E+00  0.2500000E+00  0.2500000E+00
    1      -22.528630   1.000000
    2      -19.384698   1.000000
    3      -12.821267   1.000000
    4      -11.483185   1.000000
    5      -11.475109   1.000000
    6       -8.493707   1.000000
    7       -8.072252   1.000000
    8       -8.048593   1.000000
    9       -0.850288   0.000000
   10       -0.473412   0.000000
   11       -0.453493   0.000000
   12        0.021067   0.000000
 
 -0.2500000E+00 -0.2500000E+00  0.2500000E+00  0.2500000E+00
    1      -22.528631   1.000000
    2      -19.384697   1.000000
    3      -12.821264   1.000000
    4      -11.483183   1.000000
    5      -11.475114   1.000000
    6       -8.493711   1.000000
    7       -8.072238   1.000000
    8       -8.048594   1.000000
    9       -0.850288   0.000000
   10       -0.473421   0.000000
   11       -0.453497   0.000000
   12        0.020887   0.000000
