       N       E                     dE             d eps       ncg     rms          rms(c)
DAV:   1     0.115541069484E+03    0.11554E+03   -0.21247E+03   160   0.366E+02
DAV:   2    -0.802680911757E+00   -0.11634E+03   -0.11357E+03   192   0.108E+02
DAV:   3    -0.373084848541E+02   -0.36506E+02   -0.36399E+02   124   0.945E+01
DAV:   4    -0.407515087933E+02   -0.34430E+01   -0.34177E+01   128   0.286E+01
DAV:   5    -0.408261175948E+02   -0.74609E-01   -0.72552E-01   124   0.469E+00    0.109E+01
DAV:   6    -0.375294220946E+02    0.32967E+01   -0.64979E+00   112   0.176E+01    0.595E+00
DAV:   7    -0.368639558896E+02    0.66547E+00   -0.14116E+00   112   0.849E+00    0.301E+00
DAV:   8    -0.366909434056E+02    0.17301E+00   -0.42053E-01   128   0.481E+00    0.109E+00
DAV:   9    -0.366653658734E+02    0.25578E-01   -0.34732E-02   128   0.154E+00    0.332E-01
DAV:  10    -0.366608483925E+02    0.45175E-02   -0.47727E-03   128   0.596E-01    0.146E-01
DAV:  11    -0.366619798726E+02   -0.11315E-02   -0.17962E-03   128   0.324E-01    0.955E-02
DAV:  12    -0.366686767217E+02   -0.66968E-02   -0.49600E-03   112   0.531E-01    0.497E-02
DAV:  13    -0.366728181581E+02   -0.41414E-02   -0.11964E-03   160   0.235E-01    0.363E-02
DAV:  14    -0.366770932407E+02   -0.42751E-02   -0.58170E-04   128   0.152E-01    0.252E-02
DAV:  15    -0.366802189409E+02   -0.31257E-02   -0.31052E-04   128   0.937E-02    0.161E-02
DAV:  16    -0.366823701512E+02   -0.21512E-02   -0.26097E-04   128   0.956E-02    0.111E-02
DAV:  17    -0.366833985377E+02   -0.10284E-02   -0.53612E-05    88   0.532E-02    0.400E-03
DAV:  18    -0.366838826292E+02   -0.48409E-03   -0.30560E-05    84   0.321E-02    0.293E-03
DAV:  19    -0.366841644120E+02   -0.28178E-03   -0.13756E-05    72   0.206E-02    0.177E-03
DAV:  20    -0.366842692759E+02   -0.10486E-03   -0.34898E-06    88   0.126E-02    0.134E-03
DAV:  21    -0.366843225990E+02   -0.53323E-04   -0.14372E-06    72   0.748E-03
   1 F= -.36684323E+02 E0= -.36684323E+02  d E =-.366843E+02
       N       E                     dE             d eps       ncg     rms          rms(c)
DAV:   1    -0.366843537263E+02   -0.84450E-04   -0.85994E-05    88   0.887E-02    0.372E-03
DAV:   2    -0.366843597322E+02   -0.60059E-05   -0.39142E-06    96   0.207E-02    0.203E-03
DAV:   3    -0.366843651273E+02   -0.53951E-05   -0.47527E-07    84   0.663E-03    0.107E-03
DAV:   4    -0.366843715018E+02   -0.63745E-05   -0.22690E-07    64   0.420E-03    0.396E-04
DAV:   5    -0.366843744143E+02   -0.29124E-05   -0.53808E-08    88   0.197E-03    0.248E-04
DAV:   6    -0.366843777656E+02   -0.33514E-05   -0.20610E-08    64   0.105E-03
   2 F= -.36684378E+02 E0= -.36684378E+02  d E =-.551666E-04
       N       E                     dE             d eps       ncg     rms          rms(c)
DAV:   1    -0.366844007668E+02   -0.26352E-04   -0.19482E-04    96   0.129E-01    0.370E-03
DAV:   2    -0.366844015049E+02   -0.73813E-06   -0.24438E-06    48   0.133E-02    0.207E-03
DAV:   3    -0.366844025586E+02   -0.10537E-05   -0.41883E-07    64   0.587E-03    0.822E-04
DAV:   4    -0.366844034372E+02   -0.87864E-06   -0.13070E-07    64   0.294E-03    0.329E-04
DAV:   5    -0.366844040082E+02   -0.57097E-06   -0.32556E-08    48   0.134E-03    0.138E-04
DAV:   6    -0.366844046090E+02   -0.60082E-06   -0.18182E-08    96   0.709E-04
   3 F= -.36684405E+02 E0= -.36684405E+02  d E =-.268434E-04
       N       E                     dE             d eps       ncg     rms          rms(c)
DAV:   1    -0.366844641032E+02   -0.60095E-04   -0.34581E-04    96   0.175E-01    0.423E-03
DAV:   2    -0.366844642426E+02   -0.13945E-06   -0.36967E-06    48   0.169E-02    0.238E-03
DAV:   3    -0.366844645747E+02   -0.33210E-06   -0.55076E-07    48   0.668E-03    0.931E-04
DAV:   4    -0.366844648144E+02   -0.23967E-06   -0.15169E-07    48   0.316E-03    0.342E-04
DAV:   5    -0.366844649499E+02   -0.13553E-06   -0.43804E-08    60   0.153E-03    0.185E-04
DAV:   6    -0.366844651454E+02   -0.19547E-06   -0.21650E-08    88   0.889E-04
   4 F= -.36684465E+02 E0= -.36684465E+02  d E =-.605364E-04
       N       E                     dE             d eps       ncg     rms          rms(c)
DAV:   1    -0.366845873840E+02   -0.12243E-03   -0.59601E-04    96   0.230E-01    0.637E-03
DAV:   2    -0.366845872039E+02    0.18014E-06   -0.51869E-06    64   0.222E-02    0.343E-03
DAV:   3    -0.366845873673E+02   -0.16342E-06   -0.86488E-07    48   0.817E-03    0.152E-03
DAV:   4    -0.366845875220E+02   -0.15471E-06   -0.26280E-07    48   0.444E-03    0.340E-04
DAV:   5    -0.366845875804E+02   -0.58449E-07   -0.71630E-08    48   0.213E-03    0.208E-04
DAV:   6    -0.366845876321E+02   -0.51618E-07   -0.27541E-08    48   0.114E-03
   5 F= -.36684588E+02 E0= -.36684588E+02  d E =-.122487E-03
       N       E                     dE             d eps       ncg     rms          rms(c)
DAV:   1    -0.366847950545E+02   -0.20747E-03   -0.10213E-03    96   0.297E-01    0.698E-03
DAV:   2    -0.366847949039E+02    0.15062E-06   -0.89555E-06    48   0.258E-02    0.424E-03
DAV:   3    -0.366847952880E+02   -0.38416E-06   -0.15234E-06    64   0.109E-02    0.170E-03
DAV:   4    -0.366847954097E+02   -0.12163E-06   -0.43118E-07    48   0.527E-03    0.719E-04
DAV:   5    -0.366847954424E+02   -0.32706E-07   -0.11381E-07    80   0.268E-03    0.366E-04
DAV:   6    -0.366847954824E+02   -0.40071E-07   -0.52521E-08    64   0.164E-03
   6 F= -.36684795E+02 E0= -.36684795E+02  d E =-.207850E-03
       N       E                     dE             d eps       ncg     rms          rms(c)
DAV:   1    -0.366851030404E+02   -0.30760E-03   -0.16091E-03    96   0.373E-01    0.836E-03
DAV:   2    -0.366851029254E+02    0.11497E-06   -0.11536E-05    60   0.297E-02    0.526E-03
DAV:   3    -0.366851035348E+02   -0.60934E-06   -0.21138E-06    52   0.122E-02    0.156E-03
DAV:   4    -0.366851036313E+02   -0.96526E-07   -0.56822E-07    48   0.569E-03    0.681E-04
DAV:   5    -0.366851036596E+02   -0.28326E-07   -0.18090E-07    48   0.308E-03    0.425E-04
DAV:   6    -0.366851037035E+02   -0.43864E-07   -0.81184E-08    60   0.189E-03
   7 F= -.36685104E+02 E0= -.36685104E+02  d E =-.308221E-03
       N       E                     dE             d eps       ncg     rms          rms(c)
DAV:   1    -0.366855664462E+02   -0.46279E-03   -0.31975E-03    96   0.527E-01    0.120E-02
DAV:   2    -0.366855665055E+02   -0.59239E-07   -0.23432E-05    64   0.430E-02    0.776E-03
DAV:   3    -0.366855674427E+02   -0.93725E-06   -0.43431E-06    64   0.171E-02    0.199E-03
DAV:   4    -0.366855676249E+02   -0.18216E-06   -0.10639E-06    48   0.772E-03    0.677E-04
DAV:   5    -0.366855676688E+02   -0.43914E-07   -0.34784E-07    48   0.397E-03    0.378E-04
DAV:   6    -0.366855677197E+02   -0.50930E-07   -0.14566E-07    48   0.228E-03
   8 F= -.36685568E+02 E0= -.36685568E+02  d E =-.464016E-03
       N       E                     dE             d eps       ncg     rms          rms(c)
DAV:   1    -0.366861743947E+02   -0.60673E-03   -0.52299E-03    96   0.674E-01    0.157E-02
DAV:   2    -0.366861744457E+02   -0.50994E-07   -0.45503E-05    96   0.587E-02    0.104E-02
DAV:   3    -0.366861758208E+02   -0.13751E-05   -0.83879E-06    64   0.249E-02    0.365E-03
DAV:   4    -0.366861763355E+02   -0.51466E-06   -0.22937E-06    48   0.121E-02    0.146E-03
DAV:   5    -0.366861764076E+02   -0.72155E-07   -0.58878E-07    48   0.594E-03    0.699E-04
DAV:   6    -0.366861765049E+02   -0.97274E-07   -0.27213E-07    48   0.366E-03
   9 F= -.36686177E+02 E0= -.36686177E+02  d E =-.608785E-03
       N       E                     dE             d eps       ncg     rms          rms(c)
DAV:   1    -0.366868343005E+02   -0.65789E-03   -0.83626E-03    96   0.867E-01    0.250E-02
DAV:   2    -0.366868321736E+02    0.21269E-05   -0.10089E-04    64   0.901E-02    0.156E-02
DAV:   3    -0.366868318317E+02    0.34187E-06   -0.17515E-05    64   0.370E-02    0.766E-03
DAV:   4    -0.366868329312E+02   -0.10995E-05   -0.63322E-06    84   0.219E-02    0.229E-03
DAV:   5    -0.366868330192E+02   -0.88047E-07   -0.12913E-06    60   0.963E-03    0.854E-04
DAV:   6    -0.366868331383E+02   -0.11906E-06   -0.37372E-07    48   0.454E-03
  10 F= -.36686833E+02 E0= -.36686833E+02  d E =-.656633E-03
       N       E                     dE             d eps       ncg     rms          rms(c)
DAV:   1    -0.366868635827E+02   -0.30563E-04   -0.13309E-03    96   0.327E-01    0.180E-02
DAV:   2    -0.366868584731E+02    0.51095E-05   -0.21822E-05    64   0.459E-02    0.859E-03
DAV:   3    -0.366868577301E+02    0.74303E-06   -0.63676E-06    64   0.231E-02    0.365E-03
DAV:   4    -0.366868579932E+02   -0.26312E-06   -0.25753E-06    80   0.138E-02    0.133E-03
DAV:   5    -0.366868580936E+02   -0.10040E-06   -0.40633E-07    64   0.587E-03    0.572E-04
DAV:   6    -0.366868581894E+02   -0.95740E-07   -0.13083E-07    60   0.309E-03
  11 F= -.36686858E+02 E0= -.36686858E+02  d E =-.250511E-04
       N       E                     dE             d eps       ncg     rms          rms(c)
DAV:   1    -0.366868564515E+02    0.16421E-05   -0.13652E-06    48   0.107E-02    0.416E-04
DAV:   2    -0.366868565070E+02   -0.55460E-07   -0.91998E-08    48   0.272E-03    0.264E-04
DAV:   3    -0.366868565666E+02   -0.59617E-07   -0.24737E-08    48   0.892E-04    0.156E-04
DAV:   4    -0.366868566568E+02   -0.90214E-07   -0.19712E-08    48   0.540E-04    0.418E-05
DAV:   5    -0.366868566908E+02   -0.34043E-07   -0.16801E-08    48   0.269E-04    0.325E-05
DAV:   6    -0.366868567443E+02   -0.53413E-07   -0.15868E-08    48   0.153E-04
  12 F= -.36686857E+02 E0= -.36686857E+02  d E =0.144511E-05
       N       E                     dE             d eps       ncg     rms          rms(c)
DAV:   1    -0.366868530872E+02    0.36036E-05   -0.44114E-06    48   0.194E-02    0.627E-04
DAV:   2    -0.366868531257E+02   -0.38414E-07   -0.22319E-07    48   0.449E-03    0.384E-04
DAV:   3    -0.366868531506E+02   -0.24933E-07   -0.35982E-08    48   0.136E-03    0.241E-04
DAV:   4    -0.366868531834E+02   -0.32788E-07   -0.24310E-08    48   0.887E-04    0.868E-05
DAV:   5    -0.366868531912E+02   -0.78045E-08   -0.16629E-08    48   0.413E-04    0.653E-05
DAV:   6    -0.366868532040E+02   -0.12854E-07   -0.14810E-08    48   0.205E-04
  13 F= -.36686853E+02 E0= -.36686853E+02  d E =0.354022E-05
       N       E                     dE             d eps       ncg     rms          rms(c)
DAV:   1    -0.366868473708E+02    0.58204E-05   -0.74202E-06    48   0.255E-02    0.751E-04
DAV:   2    -0.366868474050E+02   -0.34193E-07   -0.35226E-07    48   0.578E-03    0.458E-04
DAV:   3    -0.366868474160E+02   -0.10948E-07   -0.49360E-08    48   0.177E-03    0.286E-04
DAV:   4    -0.366868474261E+02   -0.10104E-07   -0.27040E-08    48   0.103E-03    0.108E-04
DAV:   5    -0.366868474274E+02   -0.13812E-08   -0.16822E-08    48   0.483E-04    0.771E-05
DAV:   6    -0.366868474300E+02   -0.26039E-08   -0.14303E-08    48   0.237E-04
  14 F= -.36686847E+02 E0= -.36686847E+02  d E =0.577399E-05
       N       E                     dE             d eps       ncg     rms          rms(c)
DAV:   1    -0.366868394238E+02    0.80037E-05   -0.93977E-06    48   0.293E-02    0.765E-04
DAV:   2    -0.366868394608E+02   -0.37004E-07   -0.41873E-07    48   0.648E-03    0.445E-04
DAV:   3    -0.366868394702E+02   -0.93744E-08   -0.59973E-08    48   0.202E-03    0.271E-04
DAV:   4    -0.366868394753E+02   -0.51115E-08   -0.26198E-08    48   0.985E-04    0.125E-04
DAV:   5    -0.366868394757E+02   -0.46794E-09   -0.16921E-08    48   0.478E-04    0.617E-05
DAV:   6    -0.366868394767E+02   -0.96657E-09   -0.14387E-08    48   0.256E-04
  15 F= -.36686839E+02 E0= -.36686839E+02  d E =0.795334E-05
       N       E                     dE             d eps       ncg     rms          rms(c)
DAV:   1    -0.366868294631E+02    0.10013E-04   -0.11420E-05    48   0.330E-02    0.793E-04
DAV:   2    -0.366868295041E+02   -0.40956E-07   -0.47779E-07    48   0.705E-03    0.440E-04
DAV:   3    -0.366868295153E+02   -0.11178E-07   -0.71319E-08    48   0.223E-03    0.254E-04
DAV:   4    -0.366868295200E+02   -0.47005E-08   -0.27483E-08    48   0.989E-04    0.129E-04
DAV:   5    -0.366868295219E+02   -0.19418E-08   -0.17336E-08    48   0.497E-04    0.413E-05
DAV:   6    -0.366868295229E+02   -0.99249E-09   -0.14589E-08    48   0.268E-04
  16 F= -.36686830E+02 E0= -.36686830E+02  d E =0.995382E-05
       N       E                     dE             d eps       ncg     rms          rms(c)
DAV:   1    -0.366868176102E+02    0.11912E-04   -0.14874E-05    48   0.380E-02    0.968E-04
DAV:   2    -0.366868176544E+02   -0.44208E-07   -0.60175E-07    48   0.797E-03    0.532E-04
DAV:   3    -0.366868176660E+02   -0.11663E-07   -0.88054E-08    48   0.254E-03    0.298E-04
DAV:   4    -0.366868176721E+02   -0.60370E-08   -0.30809E-08    48   0.110E-03    0.118E-04
DAV:   5    -0.366868176744E+02   -0.22944E-08   -0.18316E-08    48   0.552E-04    0.431E-05
DAV:   6    -0.366868176762E+02   -0.18133E-08   -0.14869E-08    48   0.298E-04
  17 F= -.36686818E+02 E0= -.36686818E+02  d E =0.118467E-04
       N       E                     dE             d eps       ncg     rms          rms(c)
DAV:   1    -0.366868022713E+02    0.15403E-04   -0.24067E-05    48   0.484E-02    0.133E-03
DAV:   2    -0.366868023337E+02   -0.62328E-07   -0.96939E-07    48   0.102E-02    0.732E-04
DAV:   3    -0.366868023469E+02   -0.13275E-07   -0.13314E-07    48   0.324E-03    0.417E-04
DAV:   4    -0.366868023562E+02   -0.92057E-08   -0.41479E-08    48   0.143E-03    0.130E-04
DAV:   5    -0.366868023591E+02   -0.29586E-08   -0.21349E-08    48   0.708E-04    0.576E-05
DAV:   6    -0.366868023618E+02   -0.27076E-08   -0.15686E-08    48   0.374E-04
  18 F= -.36686802E+02 E0= -.36686802E+02  d E =0.153144E-04
       N       E                     dE             d eps       ncg     rms          rms(c)
DAV:   1    -0.366867829253E+02    0.19434E-04   -0.35667E-05    48   0.590E-02    0.161E-03
DAV:   2    -0.366867830204E+02   -0.95136E-07   -0.14302E-06    48   0.124E-02    0.882E-04
DAV:   3    -0.366867830413E+02   -0.20907E-07   -0.19159E-07    48   0.395E-03    0.499E-04
DAV:   4    -0.366867830534E+02   -0.12006E-07   -0.54965E-08    48   0.173E-03    0.161E-04
DAV:   5    -0.366867830573E+02   -0.39697E-08   -0.25231E-08    48   0.859E-04    0.688E-05
DAV:   6    -0.366867830610E+02   -0.36496E-08   -0.16919E-08    48   0.456E-04
  19 F= -.36686783E+02 E0= -.36686783E+02  d E =0.193008E-04
       N       E                     dE             d eps       ncg     rms          rms(c)
DAV:   1    -0.366867605112E+02    0.22546E-04   -0.46608E-05    48   0.672E-02    0.166E-03
DAV:   2    -0.366867606551E+02   -0.14382E-06   -0.18771E-06    48   0.141E-02    0.919E-04
DAV:   3    -0.366867606929E+02   -0.37861E-07   -0.24991E-07    48   0.451E-03    0.513E-04
DAV:   4    -0.366867607080E+02   -0.15095E-07   -0.69607E-08    48   0.196E-03    0.225E-04
DAV:   5    -0.366867607130E+02   -0.49527E-08   -0.29332E-08    48   0.986E-04    0.780E-05
DAV:   6    -0.366867607168E+02   -0.37799E-08   -0.18286E-08    48   0.536E-04
  20 F= -.36686761E+02 E0= -.36686761E+02  d E =0.223442E-04
       N       E                     dE             d eps       ncg     rms          rms(c)
DAV:   1    -0.366867382156E+02    0.22497E-04   -0.58148E-05    48   0.743E-02    0.185E-03
DAV:   2    -0.366867384054E+02   -0.18978E-06   -0.24449E-06    48   0.160E-02    0.104E-03
DAV:   3    -0.366867384548E+02   -0.49448E-07   -0.31367E-07    48   0.510E-03    0.611E-04
DAV:   4    -0.366867384733E+02   -0.18422E-07   -0.88745E-08    48   0.232E-03    0.311E-04
DAV:   5    -0.366867384786E+02   -0.53494E-08   -0.34255E-08    48   0.116E-03    0.111E-04
DAV:   6    -0.366867384824E+02   -0.37949E-08   -0.19563E-08    48   0.623E-04
  21 F= -.36686738E+02 E0= -.36686738E+02  d E =0.222343E-04
       N       E                     dE             d eps       ncg     rms          rms(c)
DAV:   1    -0.366867232792E+02    0.15199E-04   -0.51884E-05    48   0.710E-02    0.180E-03
DAV:   2    -0.366867234480E+02   -0.16886E-06   -0.22175E-06    48   0.153E-02    0.102E-03
DAV:   3    -0.366867234945E+02   -0.46524E-07   -0.29098E-07    48   0.496E-03    0.576E-04
DAV:   4    -0.366867235112E+02   -0.16652E-07   -0.83119E-08    48   0.227E-03    0.295E-04
DAV:   5    -0.366867235167E+02   -0.54786E-08   -0.31651E-08    48   0.112E-03    0.107E-04
DAV:   6    -0.366867235226E+02   -0.58826E-08   -0.18813E-08    48   0.604E-04
  22 F= -.36686724E+02 E0= -.36686724E+02  d E =0.149599E-04
       N       E                     dE             d eps       ncg     rms          rms(c)
DAV:   1    -0.366867255736E+02   -0.20569E-05   -0.20899E-07    48   0.417E-03    0.130E-04
DAV:   2    -0.366867255772E+02   -0.36625E-08   -0.21740E-08    48   0.933E-04    0.844E-05
DAV:   3    -0.366867255818E+02   -0.45777E-08   -0.14005E-08    48   0.278E-04    0.501E-05
DAV:   4    -0.366867255898E+02   -0.79585E-08   -0.13542E-08    48   0.183E-04    0.156E-05
DAV:   5    -0.366867255932E+02   -0.34252E-08   -0.13140E-08    48   0.831E-05    0.113E-05
DAV:   6    -0.366867255988E+02   -0.55694E-08   -0.13119E-08    48   0.435E-05
  23 F= -.36686726E+02 E0= -.36686726E+02  d E =-.207622E-05
       N       E                     dE             d eps       ncg     rms          rms(c)
DAV:   1    -0.366867312523E+02   -0.56591E-05   -0.11079E-06    48   0.980E-03    0.271E-04
DAV:   2    -0.366867312539E+02   -0.15982E-08   -0.60040E-08    48   0.217E-03    0.172E-04
DAV:   3    -0.366867312546E+02   -0.79444E-09   -0.17941E-08    48   0.643E-04    0.104E-04
DAV:   4    -0.366867312562E+02   -0.15616E-08   -0.14742E-08    48   0.366E-04    0.359E-05
DAV:   5    -0.366867312577E+02   -0.14938E-08   -0.13447E-08    48   0.167E-04    0.260E-05
DAV:   6    -0.366867312591E+02   -0.13790E-08   -0.13126E-08    48   0.829E-05
  24 F= -.36686731E+02 E0= -.36686731E+02  d E =-.566031E-05
       N       E                     dE             d eps       ncg     rms          rms(c)
DAV:   1    -0.366867426148E+02   -0.11357E-04   -0.35335E-06    48   0.175E-02    0.444E-04
DAV:   2    -0.366867426200E+02   -0.52726E-08   -0.15767E-07    48   0.385E-03    0.281E-04
DAV:   3    -0.366867426190E+02    0.99885E-09   -0.28926E-08    48   0.114E-03    0.166E-04
DAV:   4    -0.366867426186E+02    0.44042E-09   -0.17824E-08    48   0.586E-04    0.634E-05
DAV:   5    -0.366867426193E+02   -0.74033E-09   -0.14405E-08    48   0.274E-04    0.402E-05
DAV:   6    -0.366867426195E+02   -0.21896E-09   -0.13434E-08    48   0.144E-04
  25 F= -.36686743E+02 E0= -.36686743E+02  d E =-.113605E-04
       N       E                     dE             d eps       ncg     rms          rms(c)
DAV:   1    -0.366867624250E+02   -0.19806E-04   -0.91714E-06    48   0.282E-02    0.674E-04
DAV:   2    -0.366867624452E+02   -0.20212E-07   -0.37509E-07    48   0.615E-03    0.419E-04
DAV:   3    -0.366867624461E+02   -0.89119E-09   -0.54220E-08    48   0.181E-03    0.239E-04
DAV:   4    -0.366867624459E+02    0.14415E-09   -0.24405E-08    48   0.867E-04    0.984E-05
DAV:   5    -0.366867624467E+02   -0.73851E-09   -0.16428E-08    48   0.417E-04    0.537E-05
DAV:   6    -0.366867624471E+02   -0.42382E-09   -0.14083E-08    48   0.229E-04
  26 F= -.36686762E+02 E0= -.36686762E+02  d E =-.198276E-04
       N       E                     dE             d eps       ncg     rms          rms(c)
DAV:   1    -0.366867940727E+02   -0.31626E-04   -0.21135E-05    48   0.427E-02    0.993E-04
DAV:   2    -0.366867941276E+02   -0.54891E-07   -0.82803E-07    48   0.927E-03    0.607E-04
DAV:   3    -0.366867941354E+02   -0.77990E-08   -0.10856E-07    48   0.275E-03    0.331E-04
DAV:   4    -0.366867941371E+02   -0.17214E-08   -0.38470E-08    48   0.126E-03    0.139E-04
DAV:   5    -0.366867941381E+02   -0.10461E-08   -0.20863E-08    48   0.614E-04    0.696E-05
DAV:   6    -0.366867941384E+02   -0.31241E-09   -0.15620E-08    48   0.345E-04
  27 F= -.36686794E+02 E0= -.36686794E+02  d E =-.316913E-04
       N       E                     dE             d eps       ncg     rms          rms(c)
DAV:   1    -0.366868418784E+02   -0.47740E-04   -0.45201E-05    48   0.623E-02    0.144E-03
DAV:   2    -0.366868420050E+02   -0.12657E-06   -0.17377E-06    48   0.135E-02    0.870E-04
DAV:   3    -0.366868420285E+02   -0.23509E-07   -0.21925E-07    48   0.403E-03    0.458E-04
DAV:   4    -0.366868420346E+02   -0.60886E-08   -0.67207E-08    48   0.181E-03    0.188E-04
DAV:   5    -0.366868420363E+02   -0.16555E-08   -0.29914E-08    48   0.886E-04    0.922E-05
DAV:   6    -0.366868420367E+02   -0.40882E-09   -0.18848E-08    48   0.503E-04
  28 F= -.36686842E+02 E0= -.36686842E+02  d E =-.478982E-04
       N       E                     dE             d eps       ncg     rms          rms(c)
DAV:   1    -0.366869139653E+02   -0.71929E-04   -0.10190E-04    96   0.920E-02    0.201E-03
DAV:   2    -0.366869139412E+02    0.24110E-07   -0.78977E-07    48   0.754E-03    0.132E-03
DAV:   3    -0.366869139703E+02   -0.29102E-07   -0.15456E-07    48   0.311E-03    0.420E-04
DAV:   4    -0.366869139780E+02   -0.77748E-08   -0.50385E-08    48   0.143E-03    0.189E-04
DAV:   5    -0.366869139796E+02   -0.15880E-08   -0.24405E-08    48   0.744E-04    0.109E-04
DAV:   6    -0.366869139820E+02   -0.23651E-08   -0.17857E-08    48   0.435E-04
  29 F= -.36686914E+02 E0= -.36686914E+02  d E =-.719453E-04
       N       E                     dE             d eps       ncg     rms          rms(c)
DAV:   1    -0.366870157332E+02   -0.10175E-03   -0.19976E-04    96   0.129E-01    0.281E-03
DAV:   2    -0.366870157043E+02    0.28922E-07   -0.14812E-06    48   0.104E-02    0.184E-03
DAV:   3    -0.366870157660E+02   -0.61686E-07   -0.28122E-07    48   0.425E-03    0.531E-04
DAV:   4    -0.366870157780E+02   -0.12033E-07   -0.81138E-08    48   0.192E-03    0.244E-04
DAV:   5    -0.366870157807E+02   -0.27646E-08   -0.34565E-08    48   0.100E-03    0.145E-04
DAV:   6    -0.366870157855E+02   -0.47398E-08   -0.22121E-08    48   0.574E-04
  30 F= -.36687016E+02 E0= -.36687016E+02  d E =-.101804E-03
       N       E                     dE             d eps       ncg     rms          rms(c)
DAV:   1    -0.366871538114E+02   -0.13803E-03   -0.36499E-04    96   0.175E-01    0.382E-03
DAV:   2    -0.366871537774E+02    0.34050E-07   -0.26817E-06    48   0.142E-02    0.250E-03
DAV:   3    -0.366871538918E+02   -0.11438E-06   -0.50354E-07    48   0.571E-03    0.691E-04
DAV:   4    -0.366871539126E+02   -0.20808E-07   -0.13545E-07    48   0.256E-03    0.308E-04
DAV:   5    -0.366871539174E+02   -0.48037E-08   -0.52327E-08    48   0.133E-03    0.181E-04
DAV:   6    -0.366871539258E+02   -0.84506E-08   -0.29694E-08    48   0.758E-04
  31 F= -.36687154E+02 E0= -.36687154E+02  d E =-.138140E-03
       N       E                     dE             d eps       ncg     rms          rms(c)
DAV:   1    -0.366873353624E+02   -0.18144E-03   -0.62933E-04    96   0.229E-01    0.503E-03
DAV:   2    -0.366873353368E+02    0.25564E-07   -0.46478E-06    48   0.187E-02    0.330E-03
DAV:   3    -0.366873355236E+02   -0.18682E-06   -0.86429E-07    48   0.751E-03    0.899E-04
DAV:   4    -0.366873355589E+02   -0.35275E-07   -0.22333E-07    48   0.336E-03    0.388E-04
DAV:   5    -0.366873355679E+02   -0.90320E-08   -0.80467E-08    48   0.173E-03    0.223E-04
DAV:   6    -0.366873355820E+02   -0.14039E-07   -0.41448E-08    48   0.991E-04
  32 F= -.36687336E+02 E0= -.36687336E+02  d E =-.181656E-03
       N       E                     dE             d eps       ncg     rms          rms(c)
DAV:   1    -0.366875680517E+02   -0.23248E-03   -0.10294E-03    96   0.294E-01    0.641E-03
DAV:   2    -0.366875680641E+02   -0.12401E-07   -0.76743E-06    48   0.239E-02    0.423E-03
DAV:   3    -0.366875683698E+02   -0.30574E-06   -0.14076E-06    48   0.964E-03    0.110E-03
DAV:   4    -0.366875684254E+02   -0.55583E-07   -0.35687E-07    48   0.428E-03    0.480E-04
DAV:   5    -0.366875684405E+02   -0.15077E-07   -0.12318E-07    48   0.221E-03    0.280E-04
DAV:   6    -0.366875684626E+02   -0.22135E-07   -0.58693E-08    48   0.127E-03
  33 F= -.36687568E+02 E0= -.36687568E+02  d E =-.232881E-03
       N       E                     dE             d eps       ncg     rms          rms(c)
DAV:   1    -0.366878600011E+02   -0.29156E-03   -0.16037E-03    96   0.366E-01    0.793E-03
DAV:   2    -0.366878600944E+02   -0.93269E-07   -0.12134E-05    48   0.299E-02    0.529E-03
DAV:   3    -0.366878605779E+02   -0.48349E-06   -0.21884E-06    48   0.121E-02    0.131E-03
DAV:   4    -0.366878606563E+02   -0.78393E-07   -0.55049E-07    48   0.532E-03    0.580E-04
DAV:   5    -0.366878606804E+02   -0.24110E-07   -0.18377E-07    48   0.277E-03    0.346E-04
DAV:   6    -0.366878607150E+02   -0.34632E-07   -0.82847E-08    48   0.160E-03
  34 F= -.36687861E+02 E0= -.36687861E+02  d E =-.292252E-03
       N       E                     dE             d eps       ncg     rms          rms(c)
DAV:   1    -0.366882184352E+02   -0.35775E-03   -0.23891E-03    96   0.448E-01    0.966E-03
DAV:   2    -0.366882186667E+02   -0.23150E-06   -0.18450E-05    64   0.367E-02    0.649E-03
DAV:   3    -0.366882193876E+02   -0.72095E-06   -0.32850E-06    48   0.149E-02    0.156E-03
DAV:   4    -0.366882195035E+02   -0.11589E-06   -0.82047E-07    48   0.654E-03    0.685E-04
DAV:   5    -0.366882195418E+02   -0.38351E-07   -0.26466E-07    48   0.340E-03    0.407E-04
DAV:   6    -0.366882195965E+02   -0.54667E-07   -0.11613E-07    48   0.200E-03
  35 F= -.36688220E+02 E0= -.36688220E+02  d E =-.358882E-03
       N       E                     dE             d eps       ncg     rms          rms(c)
DAV:   1    -0.366886480168E+02   -0.42847E-03   -0.33760E-03    96   0.534E-01    0.115E-02
DAV:   2    -0.366886484975E+02   -0.48069E-06   -0.26434E-05    88   0.440E-02    0.776E-03
DAV:   3    -0.366886494999E+02   -0.10024E-05   -0.46732E-06    48   0.179E-02    0.173E-03
DAV:   4    -0.366886496599E+02   -0.15999E-06   -0.11464E-06    48   0.775E-03    0.746E-04
DAV:   5    -0.366886497167E+02   -0.56849E-07   -0.36529E-07    48   0.401E-03    0.435E-04
DAV:   6    -0.366886497951E+02   -0.78337E-07   -0.15818E-07    48   0.238E-03
  36 F= -.36688650E+02 E0= -.36688650E+02  d E =-.430199E-03
       N       E                     dE             d eps       ncg     rms          rms(c)
DAV:   1    -0.366891507404E+02   -0.50102E-03   -0.45033E-03    96   0.619E-01    0.134E-02
DAV:   2    -0.366891515806E+02   -0.84020E-06   -0.35767E-05    72   0.514E-02    0.906E-03
DAV:   3    -0.366891528932E+02   -0.13126E-05   -0.62786E-06    56   0.208E-02    0.179E-03
DAV:   4    -0.366891530984E+02   -0.20522E-06   -0.14986E-06    48   0.885E-03    0.747E-04
DAV:   5    -0.366891531774E+02   -0.78985E-07   -0.47947E-07    48   0.452E-03    0.408E-04
DAV:   6    -0.366891532759E+02   -0.98433E-07   -0.20362E-07    48   0.265E-03
  37 F= -.36689153E+02 E0= -.36689153E+02  d E =-.503481E-03
       N       E                     dE             d eps       ncg     rms          rms(c)
DAV:   1    -0.366897192765E+02   -0.56610E-03   -0.55525E-03    96   0.690E-01    0.151E-02
DAV:   2    -0.366897205014E+02   -0.12249E-05   -0.45003E-05    88   0.577E-02    0.102E-02
DAV:   3    -0.366897221269E+02   -0.16255E-05   -0.78509E-06    64   0.234E-02    0.187E-03
DAV:   4    -0.366897223771E+02   -0.25018E-06   -0.18360E-06    48   0.986E-03    0.779E-04
DAV:   5    -0.366897224775E+02   -0.10044E-06   -0.58121E-07    48   0.498E-03    0.392E-04
DAV:   6    -0.366897225932E+02   -0.11569E-06   -0.24628E-07    48   0.293E-03
  38 F= -.36689723E+02 E0= -.36689723E+02  d E =-.569317E-03
       N       E                     dE             d eps       ncg     rms          rms(c)
DAV:   1    -0.366903283749E+02   -0.60590E-03   -0.60443E-03    96   0.726E-01    0.162E-02
DAV:   2    -0.366903297434E+02   -0.13685E-05   -0.49971E-05    88   0.613E-02    0.109E-02
DAV:   3    -0.366903315883E+02   -0.18449E-05   -0.87921E-06    64   0.252E-02    0.195E-03
DAV:   4    -0.366903318780E+02   -0.28971E-06   -0.20325E-06    48   0.106E-02    0.901E-04
DAV:   5    -0.366903319941E+02   -0.11606E-06   -0.62051E-07    48   0.529E-03    0.432E-04
DAV:   6    -0.366903321338E+02   -0.13973E-06   -0.27723E-07    48   0.328E-03
  39 F= -.36690332E+02 E0= -.36690332E+02  d E =-.609541E-03
       N       E                     dE             d eps       ncg     rms          rms(c)
DAV:   1    -0.366909223893E+02   -0.59040E-03   -0.55130E-03    96   0.701E-01    0.163E-02
DAV:   2    -0.366909237142E+02   -0.13249E-05   -0.46430E-05    96   0.596E-02    0.108E-02
DAV:   3    -0.366909254918E+02   -0.17776E-05   -0.80658E-06    64   0.243E-02    0.193E-03
DAV:   4    -0.366909257820E+02   -0.29024E-06   -0.18337E-06    48   0.102E-02    0.892E-04
DAV:   5    -0.366909259246E+02   -0.14255E-06   -0.57227E-07    48   0.506E-03    0.354E-04
DAV:   6    -0.366909260758E+02   -0.15117E-06   -0.24140E-07    48   0.300E-03
  40 F= -.36690926E+02 E0= -.36690926E+02  d E =-.593942E-03
       N       E                     dE             d eps       ncg     rms          rms(c)
DAV:   1    -0.366909194323E+02    0.64923E-05   -0.36266E-06    48   0.181E-02    0.514E-04
DAV:   2    -0.366909195195E+02   -0.87140E-07   -0.18377E-07    48   0.422E-03    0.306E-04
DAV:   3    -0.366909196082E+02   -0.88726E-07   -0.40095E-08    48   0.136E-03    0.183E-04
DAV:   4    -0.366909197529E+02   -0.14474E-06   -0.26677E-08    48   0.685E-04    0.548E-05
DAV:   5    -0.366909198423E+02   -0.89365E-07   -0.21799E-08    48   0.378E-04    0.360E-05
DAV:   6    -0.366909199535E+02   -0.11126E-06   -0.20227E-08    48   0.250E-04
  41 F= -.36690920E+02 E0= -.36690920E+02  d E =0.612220E-05
       N       E                     dE             d eps       ncg     rms          rms(c)
DAV:   1    -0.366909068097E+02    0.13033E-04   -0.12129E-05    64   0.331E-02    0.874E-04
DAV:   2    -0.366909068723E+02   -0.62532E-07   -0.50909E-07    48   0.724E-03    0.542E-04
DAV:   3    -0.366909069105E+02   -0.38193E-07   -0.76165E-08    48   0.223E-03    0.324E-04
DAV:   4    -0.366909069693E+02   -0.58836E-07   -0.31857E-08    48   0.107E-03    0.779E-05
DAV:   5    -0.366909069980E+02   -0.28692E-07   -0.20182E-08    48   0.512E-04    0.516E-05
DAV:   6    -0.366909070338E+02   -0.35783E-07   -0.16874E-08    48   0.272E-04
  42 F= -.36690907E+02 E0= -.36690907E+02  d E =0.129198E-04
       N       E                     dE             d eps       ncg     rms          rms(c)
DAV:   1    -0.366908879364E+02    0.19062E-04   -0.22254E-05    48   0.445E-02    0.107E-03
DAV:   2    -0.366908880059E+02   -0.69533E-07   -0.89618E-07    48   0.964E-03    0.654E-04
DAV:   3    -0.366908880267E+02   -0.20794E-07   -0.12486E-07    48   0.299E-03    0.368E-04
DAV:   4    -0.366908880458E+02   -0.19095E-07   -0.41242E-08    48   0.133E-03    0.955E-05
DAV:   5    -0.366908880548E+02   -0.89893E-08   -0.22182E-08    48   0.639E-04    0.522E-05
DAV:   6    -0.366908880642E+02   -0.94019E-08   -0.16468E-08    48   0.339E-04
  43 F= -.36690888E+02 E0= -.36690888E+02  d E =0.189696E-04
       N       E                     dE             d eps       ncg     rms          rms(c)
DAV:   1    -0.366908644606E+02    0.23594E-04   -0.33019E-05    48   0.538E-02    0.121E-03
DAV:   2    -0.366908645629E+02   -0.10224E-06   -0.13117E-06    48   0.116E-02    0.725E-04
DAV:   3    -0.366908645865E+02   -0.23675E-07   -0.17647E-07    48   0.360E-03    0.387E-04
DAV:   4    -0.366908645968E+02   -0.10299E-07   -0.53498E-08    48   0.158E-03    0.132E-04
DAV:   5    -0.366908646000E+02   -0.32137E-08   -0.25449E-08    48   0.761E-04    0.615E-05
DAV:   6    -0.366908646025E+02   -0.24718E-08   -0.17205E-08    48   0.427E-04
  44 F= -.36690865E+02 E0= -.36690865E+02  d E =0.234617E-04
       N       E                     dE             d eps       ncg     rms          rms(c)
DAV:   1    -0.366908384373E+02    0.26163E-04   -0.44374E-05    48   0.620E-02    0.142E-03
DAV:   2    -0.366908385781E+02   -0.14079E-06   -0.17885E-06    48   0.136E-02    0.842E-04
DAV:   3    -0.366908386088E+02   -0.30690E-07   -0.23193E-07    48   0.417E-03    0.466E-04
DAV:   4    -0.366908386216E+02   -0.12865E-07   -0.69136E-08    48   0.188E-03    0.193E-04
DAV:   5    -0.366908386243E+02   -0.26344E-08   -0.30032E-08    48   0.918E-04    0.903E-05
DAV:   6    -0.366908386265E+02   -0.22920E-08   -0.18553E-08    48   0.517E-04
  45 F= -.36690839E+02 E0= -.36690839E+02  d E =0.259760E-04
       N       E                     dE             d eps       ncg     rms          rms(c)
DAV:   1    -0.366908124918E+02    0.26132E-04   -0.51833E-05    48   0.671E-02    0.157E-03
DAV:   2    -0.366908126578E+02   -0.16598E-06   -0.21229E-06    48   0.148E-02    0.926E-04
DAV:   3    -0.366908126924E+02   -0.34647E-07   -0.27111E-07    48   0.454E-03    0.528E-04
DAV:   4    -0.366908127072E+02   -0.14787E-07   -0.80413E-08    48   0.210E-03    0.226E-04
DAV:   5    -0.366908127107E+02   -0.35202E-08   -0.33406E-08    48   0.103E-03    0.108E-04
DAV:   6    -0.366908127138E+02   -0.30514E-08   -0.19459E-08    48   0.572E-04
  46 F= -.36690813E+02 E0= -.36690813E+02  d E =0.259128E-04
       N       E                     dE             d eps       ncg     rms          rms(c)
DAV:   1    -0.366907891405E+02    0.23570E-04   -0.57155E-05    48   0.714E-02    0.163E-03
DAV:   2    -0.366907893259E+02   -0.18541E-06   -0.23679E-06    48   0.157E-02    0.954E-04
DAV:   3    -0.366907893655E+02   -0.39539E-07   -0.31013E-07    48   0.490E-03    0.529E-04
DAV:   4    -0.366907893810E+02   -0.15574E-07   -0.87958E-08    48   0.222E-03    0.214E-04
DAV:   5    -0.366907893858E+02   -0.47153E-08   -0.35423E-08    48   0.108E-03    0.971E-05
DAV:   6    -0.366907893909E+02   -0.51302E-08   -0.20297E-08    48   0.603E-04
  47 F= -.36690789E+02 E0= -.36690789E+02  d E =0.233229E-04
       N       E                     dE             d eps       ncg     rms          rms(c)
DAV:   1    -0.366907756445E+02    0.13741E-04   -0.49689E-05    48   0.683E-02    0.156E-03
DAV:   2    -0.366907758079E+02   -0.16336E-06   -0.21808E-06    48   0.152E-02    0.943E-04
DAV:   3    -0.366907758391E+02   -0.31238E-07   -0.29545E-07    48   0.482E-03    0.551E-04
DAV:   4    -0.366907758528E+02   -0.13692E-07   -0.81527E-08    48   0.219E-03    0.173E-04
DAV:   5    -0.366907758588E+02   -0.59965E-08   -0.33201E-08    48   0.107E-03    0.843E-05
DAV:   6    -0.366907758663E+02   -0.74799E-08   -0.19529E-08    48   0.574E-04
  48 F= -.36690776E+02 E0= -.36690776E+02  d E =0.135246E-04
       N       E                     dE             d eps       ncg     rms          rms(c)
DAV:   1    -0.366907803957E+02   -0.45369E-05   -0.35543E-05    48   0.592E-02    0.143E-03
DAV:   2    -0.366907805176E+02   -0.12195E-06   -0.17299E-06    48   0.136E-02    0.898E-04
DAV:   3    -0.366907805364E+02   -0.18795E-07   -0.23860E-07    48   0.440E-03    0.552E-04
DAV:   4    -0.366907805463E+02   -0.98767E-08   -0.68574E-08    48   0.211E-03    0.144E-04
DAV:   5    -0.366907805528E+02   -0.64622E-08   -0.28179E-08    48   0.101E-03    0.894E-05
DAV:   6    -0.366907805619E+02   -0.91095E-08   -0.17532E-08    48   0.539E-04
  49 F= -.36690781E+02 E0= -.36690781E+02  d E =-.469558E-05
       N       E                     dE             d eps       ncg     rms          rms(c)
DAV:   1    -0.366908144036E+02   -0.33851E-04   -0.32984E-05    48   0.551E-02    0.138E-03
DAV:   2    -0.366908145263E+02   -0.12268E-06   -0.15959E-06    48   0.127E-02    0.868E-04
DAV:   3    -0.366908145492E+02   -0.22862E-07   -0.21791E-07    48   0.418E-03    0.434E-04
DAV:   4    -0.366908145575E+02   -0.83530E-08   -0.62879E-08    48   0.193E-03    0.153E-04
DAV:   5    -0.366908145657E+02   -0.81106E-08   -0.25491E-08    48   0.926E-04    0.931E-05
DAV:   6    -0.366908145753E+02   -0.96436E-08   -0.17006E-08    48   0.541E-04
  50 F= -.36690815E+02 E0= -.36690815E+02  d E =-.340134E-04
       N       E                     dE             d eps       ncg     rms          rms(c)
DAV:   1    -0.366908939962E+02   -0.79431E-04   -0.10598E-04    64   0.987E-02    0.232E-03
DAV:   2    -0.366908943485E+02   -0.35230E-06   -0.42805E-06    48   0.218E-02    0.144E-03
DAV:   3    -0.366908944305E+02   -0.81975E-07   -0.54892E-07    48   0.678E-03    0.606E-04
DAV:   4    -0.366908944495E+02   -0.18973E-07   -0.15114E-07    48   0.307E-03    0.174E-04
DAV:   5    -0.366908944568E+02   -0.72991E-08   -0.52227E-08    48   0.147E-03    0.123E-04
DAV:   6    -0.366908944636E+02   -0.68765E-08   -0.26652E-08    48   0.895E-04
  51 F= -.36690894E+02 E0= -.36690894E+02  d E =-.798883E-04
       N       E                     dE             d eps       ncg     rms          rms(c)
DAV:   1    -0.366910436559E+02   -0.14920E-03   -0.40862E-04    96   0.188E-01    0.423E-03
DAV:   2    -0.366910436449E+02    0.11005E-07   -0.26459E-06    48   0.142E-02    0.276E-03
DAV:   3    -0.366910437860E+02   -0.14102E-06   -0.57255E-07    48   0.605E-03    0.410E-04
DAV:   4    -0.366910437998E+02   -0.13878E-07   -0.14663E-07    48   0.267E-03    0.255E-04
DAV:   5    -0.366910438038E+02   -0.40100E-08   -0.55362E-08    48   0.137E-03    0.137E-04
DAV:   6    -0.366910438075E+02   -0.36550E-08   -0.31147E-08    48   0.862E-04
  52 F= -.36691044E+02 E0= -.36691044E+02  d E =-.149344E-03
       N       E                     dE             d eps       ncg     rms          rms(c)
DAV:   1    -0.366912927365E+02   -0.24893E-03   -0.12421E-03    96   0.326E-01    0.710E-03
DAV:   2    -0.366912927777E+02   -0.41186E-07   -0.86078E-06    48   0.253E-02    0.474E-03
DAV:   3    -0.366912931745E+02   -0.39678E-06   -0.16572E-06    64   0.105E-02    0.924E-04
DAV:   4    -0.366912932153E+02   -0.40817E-07   -0.42114E-07    48   0.461E-03    0.478E-04
DAV:   5    -0.366912932264E+02   -0.11167E-07   -0.14285E-07    48   0.240E-03    0.290E-04
DAV:   6    -0.366912932364E+02   -0.99517E-08   -0.66535E-08    48   0.144E-03
  53 F= -.36691293E+02 E0= -.36691293E+02  d E =-.249429E-03
       N       E                     dE             d eps       ncg     rms          rms(c)
DAV:   1    -0.366916756950E+02   -0.38247E-03   -0.31453E-03    96   0.517E-01    0.112E-02
DAV:   2    -0.366916759861E+02   -0.29108E-06   -0.22811E-05    64   0.410E-02    0.749E-03
DAV:   3    -0.366916769454E+02   -0.95933E-06   -0.42220E-06    64   0.169E-02    0.154E-03
DAV:   4    -0.366916770593E+02   -0.11385E-06   -0.10497E-06    48   0.735E-03    0.731E-04
DAV:   5    -0.366916770918E+02   -0.32489E-07   -0.33883E-07    48   0.382E-03    0.432E-04
DAV:   6    -0.366916771263E+02   -0.34540E-07   -0.14661E-07    48   0.229E-03
  54 F= -.36691677E+02 E0= -.36691677E+02  d E =-.383890E-03
       N       E                     dE             d eps       ncg     rms          rms(c)
DAV:   1    -0.366921964602E+02   -0.51937E-03   -0.60903E-03    96   0.720E-01    0.156E-02
DAV:   2    -0.366921973112E+02   -0.85102E-06   -0.45235E-05    96   0.580E-02    0.105E-02
DAV:   3    -0.366921990436E+02   -0.17324E-05   -0.82562E-06    64   0.236E-02    0.202E-03
DAV:   4    -0.366921992858E+02   -0.24220E-06   -0.19857E-06    48   0.101E-02    0.859E-04
DAV:   5    -0.366921993645E+02   -0.78653E-07   -0.64397E-07    48   0.517E-03    0.458E-04
DAV:   6    -0.366921994491E+02   -0.84665E-07   -0.26654E-07    48   0.301E-03
  55 F= -.36692199E+02 E0= -.36692199E+02  d E =-.522323E-03
       N       E                     dE             d eps       ncg     rms          rms(c)
DAV:   1    -0.366928416011E+02   -0.64224E-03   -0.94694E-03    96   0.899E-01    0.195E-02
DAV:   2    -0.366928430843E+02   -0.14832E-05   -0.73542E-05    96   0.738E-02    0.132E-02
DAV:   3    -0.366928459300E+02   -0.28457E-05   -0.13346E-05    64   0.305E-02    0.284E-03
DAV:   4    -0.366928463579E+02   -0.42790E-06   -0.32382E-06    48   0.133E-02    0.128E-03
DAV:   5    -0.366928464944E+02   -0.13644E-06   -0.97273E-07    48   0.675E-03    0.721E-04
DAV:   6    -0.366928466611E+02   -0.16678E-06   -0.43205E-07    48   0.429E-03
  56 F= -.36692847E+02 E0= -.36692847E+02  d E =-.647212E-03
       N       E                     dE             d eps       ncg     rms          rms(c)
DAV:   1    -0.366935522865E+02   -0.70579E-03   -0.11827E-02    96   0.102E+00    0.230E-02
DAV:   2    -0.366935543864E+02   -0.20999E-05   -0.98719E-05    96   0.867E-02    0.155E-02
DAV:   3    -0.366935570158E+02   -0.26294E-05   -0.17427E-05    64   0.348E-02    0.424E-03
DAV:   4    -0.366935578379E+02   -0.82212E-06   -0.41549E-06    48   0.157E-02    0.133E-03
DAV:   5    -0.366935580558E+02   -0.21786E-06   -0.12449E-06    48   0.745E-03    0.530E-04
DAV:   6    -0.366935582625E+02   -0.20673E-06   -0.49257E-07    48   0.419E-03
  57 F= -.36693558E+02 E0= -.36693558E+02  d E =-.711601E-03
       N       E                     dE             d eps       ncg     rms          rms(c)
DAV:   1    -0.366935624045E+02   -0.43487E-05   -0.15692E-04    80   0.113E-01    0.610E-03
DAV:   2    -0.366935618878E+02    0.51671E-06   -0.25706E-06    48   0.159E-02    0.292E-03
DAV:   3    -0.366935618853E+02    0.24821E-08   -0.75476E-07    48   0.789E-03    0.124E-03
DAV:   4    -0.366935620431E+02   -0.15775E-06   -0.32503E-07    48   0.477E-03    0.446E-04
DAV:   5    -0.366935621642E+02   -0.12112E-06   -0.66789E-08    48   0.204E-03    0.191E-04
DAV:   6    -0.366935623041E+02   -0.13990E-06   -0.34078E-08    48   0.109E-03
  58 F= -.36693562E+02 E0= -.36693562E+02  d E =-.404159E-05
       N       E                     dE             d eps       ncg     rms          rms(c)
DAV:   1    -0.366935552446E+02    0.69195E-05   -0.18295E-04    80   0.124E-01    0.638E-03
DAV:   2    -0.366935546457E+02    0.59894E-06   -0.30937E-06    64   0.175E-02    0.311E-03
DAV:   3    -0.366935545683E+02    0.77434E-07   -0.83703E-07    64   0.827E-03    0.132E-03
DAV:   4    -0.366935546543E+02   -0.85982E-07   -0.34754E-07    48   0.496E-03    0.462E-04
DAV:   5    -0.366935547151E+02   -0.60828E-07   -0.65324E-08    48   0.209E-03    0.207E-04
DAV:   6    -0.366935547819E+02   -0.66840E-07   -0.31307E-08    48   0.111E-03
  59 F= -.36693555E+02 E0= -.36693555E+02  d E =0.752216E-05
       N       E                     dE             d eps       ncg     rms          rms(c)
DAV:   1    -0.366935561313E+02   -0.14162E-05   -0.63985E-06    48   0.229E-02    0.108E-03
DAV:   2    -0.366935561804E+02   -0.49068E-07   -0.32390E-07    48   0.552E-03    0.585E-04
DAV:   3    -0.366935562197E+02   -0.39366E-07   -0.45236E-08    48   0.166E-03    0.328E-04
DAV:   4    -0.366935562761E+02   -0.56383E-07   -0.33937E-08    48   0.124E-03    0.113E-04
DAV:   5    -0.366935562887E+02   -0.12603E-07   -0.18229E-08    48   0.550E-04    0.766E-05
DAV:   6    -0.366935563112E+02   -0.22448E-07   -0.15615E-08    48   0.272E-04
  60 F= -.36693556E+02 E0= -.36693556E+02  d E =-.152924E-05
       N       E                     dE             d eps       ncg     rms          rms(c)
DAV:   1    -0.366935581936E+02   -0.19049E-05   -0.19969E-05    48   0.405E-02    0.189E-03
DAV:   2    -0.366935582454E+02   -0.51832E-07   -0.97316E-07    48   0.970E-03    0.102E-03
DAV:   3    -0.366935582559E+02   -0.10480E-07   -0.10867E-07    48   0.291E-03    0.575E-04
DAV:   4    -0.366935582751E+02   -0.19182E-07   -0.74229E-08    48   0.219E-03    0.198E-04
DAV:   5    -0.366935582754E+02   -0.29149E-09   -0.24862E-08    48   0.963E-04    0.134E-04
DAV:   6    -0.366935582788E+02   -0.34044E-08   -0.17102E-08    48   0.469E-04
  61 F= -.36693558E+02 E0= -.36693558E+02  d E =-.196760E-05
       N       E                     dE             d eps       ncg     rms          rms(c)
DAV:   1    -0.366935600791E+02   -0.18038E-05   -0.28936E-05    48   0.488E-02    0.225E-03
DAV:   2    -0.366935601398E+02   -0.60657E-07   -0.14239E-06    48   0.118E-02    0.123E-03
DAV:   3    -0.366935601359E+02    0.38636E-08   -0.15281E-07    48   0.355E-03    0.691E-04
DAV:   4    -0.366935601407E+02   -0.48399E-08   -0.10161E-07    48   0.266E-03    0.239E-04
DAV:   5    -0.366935601385E+02    0.22712E-08   -0.29619E-08    48   0.117E-03    0.163E-04
DAV:   6    -0.366935601380E+02    0.48453E-09   -0.18411E-08    48   0.570E-04
  62 F= -.36693560E+02 E0= -.36693560E+02  d E =-.185922E-05
       N       E                     dE             d eps       ncg     rms          rms(c)
DAV:   1    -0.366935630473E+02   -0.29088E-05   -0.20932E-05    48   0.420E-02    0.184E-03
DAV:   2    -0.366935630988E+02   -0.51510E-07   -0.10558E-06    48   0.102E-02    0.103E-03
DAV:   3    -0.366935630968E+02    0.19999E-08   -0.11801E-07    48   0.311E-03    0.585E-04
DAV:   4    -0.366935631002E+02   -0.33672E-08   -0.76566E-08    48   0.227E-03    0.200E-04
DAV:   5    -0.366935630988E+02    0.13449E-08   -0.25540E-08    48   0.994E-04    0.139E-04
DAV:   6    -0.366935630991E+02   -0.30309E-09   -0.17359E-08    48   0.488E-04
  63 F= -.36693563E+02 E0= -.36693563E+02  d E =-.296117E-05
       N       E                     dE             d eps       ncg     rms          rms(c)
DAV:   1    -0.366935637643E+02   -0.66546E-06   -0.10550E-07    48   0.283E-03    0.124E-04
DAV:   2    -0.366935637650E+02   -0.69076E-09   -0.18424E-08    48   0.684E-04    0.671E-05
DAV:   3    -0.366935637665E+02   -0.15157E-08   -0.14425E-08    48   0.202E-04    0.388E-05
DAV:   4    -0.366935637696E+02   -0.30512E-08   -0.14085E-08    48   0.128E-04    0.921E-06
DAV:   5    -0.366935637712E+02   -0.16623E-08   -0.13877E-08    48   0.565E-05    0.683E-06
DAV:   6    -0.366935637723E+02   -0.11087E-08   -0.13793E-08    48   0.274E-05
  64 F= -.36693564E+02 E0= -.36693564E+02  d E =-.673181E-06
       N       E                     dE             d eps       ncg     rms          rms(c)
DAV:   1    -0.366935653701E+02   -0.15989E-05   -0.38024E-07    48   0.563E-03    0.259E-04
DAV:   2    -0.366935653686E+02    0.14975E-08   -0.31518E-08    48   0.136E-03    0.141E-04
DAV:   3    -0.366935653681E+02    0.51318E-09   -0.15415E-08    48   0.412E-04    0.785E-05
DAV:   4    -0.366935653682E+02   -0.10687E-09   -0.14580E-08    48   0.298E-04    0.246E-05
DAV:   5    -0.366935653689E+02   -0.74533E-09   -0.13729E-08    48   0.130E-04    0.169E-05
DAV:   6    -0.366935653695E+02   -0.50318E-09   -0.13542E-08    48   0.618E-05
  65 F= -.36693565E+02 E0= -.36693565E+02  d E =-.159713E-05
       N       E                     dE             d eps       ncg     rms          rms(c)
DAV:   1    -0.366935682199E+02   -0.28510E-05   -0.82096E-07    48   0.840E-03    0.372E-04
DAV:   2    -0.366935682174E+02    0.24975E-08   -0.52884E-08    48   0.202E-03    0.205E-04
DAV:   3    -0.366935682155E+02    0.19327E-08   -0.17437E-08    48   0.613E-04    0.115E-04
DAV:   4    -0.366935682144E+02    0.10567E-08   -0.15541E-08    48   0.436E-04    0.358E-05
DAV:   5    -0.366935682151E+02   -0.66939E-09   -0.13713E-08    48   0.191E-04    0.248E-05
DAV:   6    -0.366935682155E+02   -0.42564E-09   -0.13395E-08    48   0.914E-05
  66 F= -.36693568E+02 E0= -.36693568E+02  d E =-.284607E-05
       N       E                     dE             d eps       ncg     rms          rms(c)
DAV:   1    -0.366935726814E+02   -0.44663E-05   -0.14062E-06    48   0.111E-02    0.460E-04
DAV:   2    -0.366935726791E+02    0.22203E-08   -0.81057E-08    48   0.264E-03    0.261E-04
DAV:   3    -0.366935726763E+02    0.28338E-08   -0.20270E-08    48   0.804E-04    0.149E-04
DAV:   4    -0.366935726747E+02    0.16546E-08   -0.16865E-08    48   0.560E-04    0.462E-05
DAV:   5    -0.366935726754E+02   -0.75488E-09   -0.13872E-08    48   0.246E-04    0.322E-05
DAV:   6    -0.366935726758E+02   -0.39631E-09   -0.13332E-08    48   0.119E-04
  67 F= -.36693573E+02 E0= -.36693573E+02  d E =-.446029E-05
       N       E                     dE             d eps       ncg     rms          rms(c)
DAV:   1    -0.366935787101E+02   -0.60347E-05   -0.20065E-06    48   0.133E-02    0.517E-04
DAV:   2    -0.366935787086E+02    0.15320E-08   -0.10948E-07    48   0.315E-03    0.301E-04
DAV:   3    -0.366935787053E+02    0.32642E-08   -0.23234E-08    48   0.959E-04    0.174E-04
DAV:   4    -0.366935787034E+02    0.19210E-08   -0.18097E-08    48   0.655E-04    0.541E-05
DAV:   5    -0.366935787043E+02   -0.86970E-09   -0.14106E-08    48   0.289E-04    0.382E-05
DAV:   6    -0.366935787047E+02   -0.41314E-09   -0.13369E-08    48   0.141E-04
  68 F= -.36693579E+02 E0= -.36693579E+02  d E =-.602887E-05
       N       E                     dE             d eps       ncg     rms          rms(c)
DAV:   1    -0.366935862727E+02   -0.75685E-05   -0.25252E-06    48   0.151E-02    0.538E-04
DAV:   2    -0.366935862727E+02    0.57412E-10   -0.13297E-07    48   0.352E-03    0.323E-04
DAV:   3    -0.366935862695E+02    0.31971E-08   -0.25828E-08    48   0.107E-03    0.190E-04
DAV:   4    -0.366935862674E+02    0.20357E-08   -0.18974E-08    48   0.710E-04    0.588E-05
DAV:   5    -0.366935862685E+02   -0.10639E-08   -0.14357E-08    48   0.315E-04    0.423E-05
DAV:   6    -0.366935862690E+02   -0.51932E-09   -0.13402E-08    48   0.154E-04
  69 F= -.36693586E+02 E0= -.36693586E+02  d E =-.756434E-05
       N       E                     dE             d eps       ncg     rms          rms(c)
DAV:   1    -0.366935964084E+02   -0.10140E-04   -0.35971E-06    48   0.181E-02    0.580E-04
DAV:   2    -0.366935964111E+02   -0.26896E-08   -0.18047E-07    48   0.418E-03    0.360E-04
DAV:   3    -0.366935964081E+02    0.29345E-08   -0.31161E-08    48   0.127E-03    0.217E-04
DAV:   4    -0.366935964067E+02    0.14547E-08   -0.20495E-08    48   0.795E-04    0.662E-05
DAV:   5    -0.366935964079E+02   -0.12296E-08   -0.14783E-08    48   0.356E-04    0.493E-05
DAV:   6    -0.366935964085E+02   -0.61209E-09   -0.13506E-08    48   0.174E-04
  70 F= -.36693596E+02 E0= -.36693596E+02  d E =-.101395E-04
       N       E                     dE             d eps       ncg     rms          rms(c)
DAV:   1    -0.366936097106E+02   -0.13303E-04   -0.49214E-06    48   0.212E-02    0.599E-04
DAV:   2    -0.366936097183E+02   -0.76856E-08   -0.23467E-07    48   0.485E-03    0.382E-04
DAV:   3    -0.366936097166E+02    0.16780E-08   -0.37567E-08    48   0.146E-03    0.235E-04
DAV:   4    -0.366936097156E+02    0.96179E-09   -0.21556E-08    48   0.832E-04    0.709E-05
DAV:   5    -0.366936097170E+02   -0.13238E-08   -0.15233E-08    48   0.378E-04    0.538E-05
DAV:   6    -0.366936097176E+02   -0.63801E-09   -0.13658E-08    48   0.188E-04
  71 F= -.36693610E+02 E0= -.36693610E+02  d E =-.133091E-04
       N       E                     dE             d eps       ncg     rms          rms(c)
DAV:   1    -0.366936268886E+02   -0.17172E-04   -0.68193E-06    48   0.249E-02    0.636E-04
DAV:   2    -0.366936269047E+02   -0.16037E-07   -0.30713E-07    48   0.566E-03    0.400E-04
DAV:   3    -0.366936269055E+02   -0.81923E-09   -0.46941E-08    48   0.171E-03    0.240E-04
DAV:   4    -0.366936269054E+02    0.55138E-10   -0.22814E-08    48   0.853E-04    0.751E-05
DAV:   5    -0.366936269066E+02   -0.12037E-08   -0.15887E-08    48   0.400E-04    0.519E-05
DAV:   6    -0.366936269072E+02   -0.57275E-09   -0.13944E-08    48   0.210E-04
  72 F= -.36693627E+02 E0= -.36693627E+02  d E =-.171896E-04
       N       E                     dE             d eps       ncg     rms          rms(c)
DAV:   1    -0.366936487947E+02   -0.21888E-04   -0.99741E-06    48   0.300E-02    0.726E-04
DAV:   2    -0.366936488241E+02   -0.29428E-07   -0.42720E-07    48   0.680E-03    0.441E-04
DAV:   3    -0.366936488291E+02   -0.49638E-08   -0.62636E-08    48   0.207E-03    0.231E-04
DAV:   4    -0.366936488304E+02   -0.13317E-08   -0.25981E-08    48   0.938E-04    0.660E-05
DAV:   5    -0.366936488312E+02   -0.78262E-09   -0.17149E-08    48   0.449E-04    0.444E-05
DAV:   6    -0.366936488315E+02   -0.29468E-09   -0.14555E-08    48   0.251E-04
  73 F= -.36693649E+02 E0= -.36693649E+02  d E =-.219243E-04
       N       E                     dE             d eps       ncg     rms          rms(c)
DAV:   1    -0.366936764461E+02   -0.27615E-04   -0.15719E-05    48   0.377E-02    0.898E-04
DAV:   2    -0.366936764989E+02   -0.52870E-07   -0.66114E-07    48   0.854E-03    0.544E-04
DAV:   3    -0.366936765099E+02   -0.11016E-07   -0.92439E-08    48   0.261E-03    0.272E-04
DAV:   4    -0.366936765126E+02   -0.26209E-08   -0.33337E-08    48   0.117E-03    0.653E-05
DAV:   5    -0.366936765132E+02   -0.65620E-09   -0.19542E-08    48   0.565E-04    0.452E-05
DAV:   6    -0.366936765134E+02   -0.17712E-09   -0.15508E-08    48   0.319E-04
  74 F= -.36693677E+02 E0= -.36693677E+02  d E =-.276819E-04
       N       E                     dE             d eps       ncg     rms          rms(c)
DAV:   1    -0.366937110399E+02   -0.34527E-04   -0.25798E-05    48   0.484E-02    0.117E-03
DAV:   2    -0.366937111298E+02   -0.89965E-07   -0.10915E-06    48   0.110E-02    0.721E-04
DAV:   3    -0.366937111477E+02   -0.17899E-07   -0.14562E-07    48   0.337E-03    0.399E-04
DAV:   4    -0.366937111525E+02   -0.48096E-08   -0.47520E-08    48   0.156E-03    0.100E-04
DAV:   5    -0.366937111532E+02   -0.62141E-09   -0.23885E-08    48   0.749E-04    0.696E-05
DAV:   6    -0.366937111530E+02    0.12506E-09   -0.17075E-08    48   0.420E-04
  75 F= -.36693711E+02 E0= -.36693711E+02  d E =-.346396E-04
       N       E                     dE             d eps       ncg     rms          rms(c)
DAV:   1    -0.366937540172E+02   -0.42864E-04   -0.41551E-05    48   0.616E-02    0.150E-03
DAV:   2    -0.366937541623E+02   -0.14505E-06   -0.17648E-06    48   0.140E-02    0.937E-04
DAV:   3    -0.366937541896E+02   -0.27329E-07   -0.22767E-07    48   0.429E-03    0.541E-04
DAV:   4    -0.366937541980E+02   -0.84292E-08   -0.69968E-08    48   0.203E-03    0.139E-04
DAV:   5    -0.366937541989E+02   -0.83423E-09   -0.30701E-08    48   0.972E-04    0.977E-05
DAV:   6    -0.366937541989E+02   -0.49113E-10   -0.19449E-08    48   0.541E-04
  76 F= -.36693754E+02 E0= -.36693754E+02  d E =-.430459E-04
       N       E                     dE             d eps       ncg     rms          rms(c)
DAV:   1    -0.366938072022E+02   -0.53003E-04   -0.63231E-05    48   0.759E-02    0.183E-03
DAV:   2    -0.366938074216E+02   -0.21939E-06   -0.26576E-06    48   0.172E-02    0.114E-03
DAV:   3    -0.366938074637E+02   -0.42056E-07   -0.33750E-07    48   0.527E-03    0.638E-04
DAV:   4    -0.366938074767E+02   -0.12994E-07   -0.98122E-08    48   0.246E-03    0.162E-04
DAV:   5    -0.366938074785E+02   -0.18013E-08   -0.39566E-08    48   0.118E-03    0.113E-04
DAV:   6    -0.366938074789E+02   -0.42428E-09   -0.22684E-08    48   0.660E-04
  77 F= -.36693807E+02 E0= -.36693807E+02  d E =-.532800E-04
       N       E                     dE             d eps       ncg     rms          rms(c)
DAV:   1    -0.366938727495E+02   -0.65271E-04   -0.92513E-05    48   0.915E-02    0.217E-03
DAV:   2    -0.366938730665E+02   -0.31708E-06   -0.38196E-06    48   0.207E-02    0.132E-03
DAV:   3    -0.366938731328E+02   -0.66226E-07   -0.48047E-07    48   0.633E-03    0.680E-04
DAV:   4    -0.366938731510E+02   -0.18248E-07   -0.13318E-07    48   0.285E-03    0.163E-04
DAV:   5    -0.366938731543E+02   -0.32562E-08   -0.51054E-08    48   0.138E-03    0.113E-04
DAV:   6    -0.366938731558E+02   -0.15156E-08   -0.26944E-08    48   0.778E-04
  78 F= -.36693873E+02 E0= -.36693873E+02  d E =-.656769E-04
       N       E                     dE             d eps       ncg     rms          rms(c)
DAV:   1    -0.366939535823E+02   -0.80428E-04   -0.14202E-04    96   0.111E-01    0.252E-03
DAV:   2    -0.366939535918E+02   -0.95043E-08   -0.12214E-06    48   0.954E-03    0.168E-03
DAV:   3    -0.366939536383E+02   -0.46550E-07   -0.22124E-07    48   0.389E-03    0.327E-04
DAV:   4    -0.366939536449E+02   -0.65702E-08   -0.63293E-08    48   0.166E-03    0.142E-04
DAV:   5    -0.366939536475E+02   -0.25971E-08   -0.29617E-08    48   0.828E-04    0.732E-05
DAV:   6    -0.366939536516E+02   -0.41600E-08   -0.20729E-08    48   0.490E-04
  79 F= -.36693954E+02 E0= -.36693954E+02  d E =-.804959E-04
       N       E                     dE             d eps       ncg     rms          rms(c)
DAV:   1    -0.366940516771E+02   -0.98030E-04   -0.21500E-04    96   0.137E-01    0.314E-03
DAV:   2    -0.366940516788E+02   -0.16984E-08   -0.18591E-06    48   0.118E-02    0.210E-03
DAV:   3    -0.366940517395E+02   -0.60715E-07   -0.32977E-07    48   0.483E-03    0.545E-04
DAV:   4    -0.366940517535E+02   -0.13962E-07   -0.90332E-08    48   0.214E-03    0.218E-04
DAV:   5    -0.366940517583E+02   -0.48440E-08   -0.36287E-08    48   0.104E-03    0.107E-04
DAV:   6    -0.366940517651E+02   -0.68143E-08   -0.23821E-08    48   0.630E-04
  80 F= -.36694052E+02 E0= -.36694052E+02  d E =-.981135E-04
       N       E                     dE             d eps       ncg     rms          rms(c)
DAV:   1    -0.366941705366E+02   -0.11878E-03   -0.32033E-04    96   0.167E-01    0.379E-03
DAV:   2    -0.366941705555E+02   -0.18947E-07   -0.26987E-06    48   0.143E-02    0.254E-03
DAV:   3    -0.366941706498E+02   -0.94298E-07   -0.47593E-07    48   0.582E-03    0.590E-04
DAV:   4    -0.366941706682E+02   -0.18351E-07   -0.12418E-07    48   0.254E-03    0.242E-04
DAV:   5    -0.366941706750E+02   -0.68062E-08   -0.47034E-08    48   0.124E-03    0.122E-04
DAV:   6    -0.366941706852E+02   -0.10168E-07   -0.28609E-08    48   0.757E-04
  81 F= -.36694171E+02 E0= -.36694171E+02  d E =-.118920E-03
       N       E                     dE             d eps       ncg     rms          rms(c)
DAV:   1    -0.366943136970E+02   -0.14302E-03   -0.47126E-04    96   0.203E-01    0.452E-03
DAV:   2    -0.366943137691E+02   -0.72142E-07   -0.38309E-06    48   0.170E-02    0.304E-03
DAV:   3    -0.366943139210E+02   -0.15193E-06   -0.67183E-07    48   0.688E-03    0.516E-04
DAV:   4    -0.366943139408E+02   -0.19803E-07   -0.16736E-07    48   0.288E-03    0.226E-04
DAV:   5    -0.366943139495E+02   -0.86188E-08   -0.63073E-08    48   0.143E-03    0.107E-04
DAV:   6    -0.366943139630E+02   -0.13546E-07   -0.34787E-08    48   0.838E-04
  82 F= -.36694314E+02 E0= -.36694314E+02  d E =-.143278E-03
       N       E                     dE             d eps       ncg     rms          rms(c)
DAV:   1    -0.366944856806E+02   -0.17173E-03   -0.70728E-04    96   0.248E-01    0.559E-03
DAV:   2    -0.366944858013E+02   -0.12070E-06   -0.58013E-06    48   0.209E-02    0.377E-03
DAV:   3    -0.366944860128E+02   -0.21150E-06   -0.10215E-06    48   0.847E-03    0.798E-04
DAV:   4    -0.366944860486E+02   -0.35857E-07   -0.25119E-07    48   0.365E-03    0.308E-04
DAV:   5    -0.366944860597E+02   -0.11090E-07   -0.88521E-08    48   0.178E-03    0.131E-04
DAV:   6    -0.366944860763E+02   -0.16570E-07   -0.45074E-08    48   0.103E-03
  83 F= -.36694486E+02 E0= -.36694486E+02  d E =-.172113E-03
       N       E                     dE             d eps       ncg     rms          rms(c)
DAV:   1    -0.366946919409E+02   -0.20588E-03   -0.10254E-03    96   0.299E-01    0.664E-03
DAV:   2    -0.366946921086E+02   -0.16770E-06   -0.80842E-06    48   0.246E-02    0.448E-03
DAV:   3    -0.366946924345E+02   -0.32590E-06   -0.14340E-06    48   0.100E-02    0.712E-04
DAV:   4    -0.366946924724E+02   -0.37915E-07   -0.34488E-07    48   0.419E-03    0.320E-04
DAV:   5    -0.366946924883E+02   -0.15918E-07   -0.12020E-07    48   0.210E-03    0.147E-04
DAV:   6    -0.366946925110E+02   -0.22675E-07   -0.58386E-08    48   0.123E-03
  84 F= -.36694693E+02 E0= -.36694693E+02  d E =-.206435E-03
       N       E                     dE             d eps       ncg     rms          rms(c)
DAV:   1    -0.366949326806E+02   -0.24019E-03   -0.14164E-03    96   0.351E-01    0.788E-03
DAV:   2    -0.366949328417E+02   -0.16106E-06   -0.11092E-05    48   0.290E-02    0.530E-03
DAV:   3    -0.366949332844E+02   -0.44267E-06   -0.20263E-06    48   0.120E-02    0.101E-03
DAV:   4    -0.366949333468E+02   -0.62420E-07   -0.48900E-07    48   0.513E-03    0.467E-04
DAV:   5    -0.366949333692E+02   -0.22441E-07   -0.15835E-07    48   0.256E-03    0.230E-04
DAV:   6    -0.366949334016E+02   -0.32368E-07   -0.77283E-08    48   0.160E-03
  85 F= -.36694933E+02 E0= -.36694933E+02  d E =-.240891E-03
       N       E                     dE             d eps       ncg     rms          rms(c)
DAV:   1    -0.366952025096E+02   -0.26914E-03   -0.18188E-03    96   0.399E-01    0.890E-03
DAV:   2    -0.366952027964E+02   -0.28688E-06   -0.13736E-05    48   0.322E-02    0.599E-03
DAV:   3    -0.366952033723E+02   -0.57586E-06   -0.25099E-06    48   0.132E-02    0.897E-04
DAV:   4    -0.366952034416E+02   -0.69315E-07   -0.59778E-07    48   0.553E-03    0.419E-04
DAV:   5    -0.366952034768E+02   -0.35142E-07   -0.20135E-07    48   0.278E-03    0.182E-04
DAV:   6    -0.366952035196E+02   -0.42890E-07   -0.90354E-08    48   0.163E-03
  86 F= -.36695204E+02 E0= -.36695204E+02  d E =-.270118E-03
       N       E                     dE             d eps       ncg     rms          rms(c)
DAV:   1    -0.366954927057E+02   -0.28923E-03   -0.20734E-03    96   0.428E-01    0.962E-03
DAV:   2    -0.366954930081E+02   -0.30240E-06   -0.15011E-05    80   0.340E-02    0.644E-03
DAV:   3    -0.366954937058E+02   -0.69771E-06   -0.28500E-06    48   0.141E-02    0.757E-04
DAV:   4    -0.366954937788E+02   -0.72930E-07   -0.68084E-07    48   0.584E-03    0.430E-04
DAV:   5    -0.366954938203E+02   -0.41546E-07   -0.23039E-07    48   0.302E-03    0.194E-04
DAV:   6    -0.366954938710E+02   -0.50734E-07   -0.10190E-07    48   0.181E-03
  87 F= -.36695494E+02 E0= -.36695494E+02  d E =-.290351E-03
       N       E                     dE             d eps       ncg     rms          rms(c)
DAV:   1    -0.366954930473E+02    0.77299E-06   -0.28789E-07    48   0.475E-03    0.124E-04
DAV:   2    -0.366954930787E+02   -0.31389E-07   -0.40131E-08    48   0.136E-03    0.802E-05
DAV:   3    -0.366954931115E+02   -0.32779E-07   -0.22255E-08    48   0.533E-04    0.585E-05
DAV:   4    -0.366954931642E+02   -0.52711E-07   -0.18945E-08    48   0.304E-04    0.245E-05
DAV:   5    -0.366954932082E+02   -0.44051E-07   -0.17513E-08    48   0.197E-04    0.147E-05
DAV:   6    -0.366954932623E+02   -0.54066E-07   -0.16924E-08    48   0.144E-04
  88 F= -.36695493E+02 E0= -.36695493E+02  d E =0.608731E-06
       N       E                     dE             d eps       ncg     rms          rms(c)
DAV:   1    -0.366954921688E+02    0.10395E-05   -0.73812E-07    48   0.794E-03    0.193E-04
DAV:   2    -0.366954921816E+02   -0.12800E-07   -0.49732E-08    48   0.185E-03    0.132E-04
DAV:   3    -0.366954921921E+02   -0.10556E-07   -0.19353E-08    48   0.557E-04    0.851E-05
DAV:   4    -0.366954922095E+02   -0.17332E-07   -0.16169E-08    48   0.298E-04    0.211E-05
DAV:   5    -0.366954922167E+02   -0.72934E-08   -0.15134E-08    48   0.144E-04    0.163E-05
DAV:   6    -0.366954922248E+02   -0.80904E-08   -0.14612E-08    48   0.770E-05
  89 F= -.36695492E+02 E0= -.36695492E+02  d E =0.103747E-05
       N       E                     dE             d eps       ncg     rms          rms(c)
DAV:   1    -0.366954909411E+02    0.12757E-05   -0.12835E-06    48   0.104E-02    0.232E-04
DAV:   2    -0.366954909467E+02   -0.56098E-08   -0.73489E-08    48   0.242E-03    0.159E-04
DAV:   3    -0.366954909492E+02   -0.24977E-08   -0.20998E-08    48   0.726E-04    0.997E-05
DAV:   4    -0.366954909526E+02   -0.34624E-08   -0.15586E-08    48   0.363E-04    0.241E-05
DAV:   5    -0.366954909541E+02   -0.14421E-08   -0.14295E-08    48   0.172E-04    0.182E-05
DAV:   6    -0.366954909558E+02   -0.17337E-08   -0.13815E-08    48   0.904E-05
  90 F= -.36695491E+02 E0= -.36695491E+02  d E =0.126903E-05
       N       E                     dE             d eps       ncg     rms          rms(c)
DAV:   1    -0.366954896886E+02    0.12655E-05   -0.18751E-06    48   0.124E-02    0.265E-04
DAV:   2    -0.366954896953E+02   -0.67237E-08   -0.99205E-08    48   0.289E-03    0.172E-04
DAV:   3    -0.366954896967E+02   -0.13658E-08   -0.23485E-08    48   0.853E-04    0.998E-05
DAV:   4    -0.366954896977E+02   -0.94815E-09   -0.15842E-08    48   0.410E-04    0.251E-05
DAV:   5    -0.366954896982E+02   -0.52319E-09   -0.14108E-08    48   0.193E-04    0.187E-05
DAV:   6    -0.366954896985E+02   -0.28740E-09   -0.13574E-08    48   0.105E-04
  91 F= -.36695490E+02 E0= -.36695490E+02  d E =0.125734E-05
       N       E                     dE             d eps       ncg     rms          rms(c)
DAV:   1    -0.366954887068E+02    0.99134E-06   -0.25973E-06    48   0.144E-02    0.312E-04
DAV:   2    -0.366954887172E+02   -0.10315E-07   -0.13182E-07    48   0.337E-03    0.201E-04
DAV:   3    -0.366954887191E+02   -0.19688E-08   -0.26815E-08    48   0.989E-04    0.112E-04
DAV:   4    -0.366954887200E+02   -0.83674E-09   -0.16606E-08    48   0.485E-04    0.301E-05
DAV:   5    -0.366954887203E+02   -0.30332E-09   -0.14271E-08    48   0.229E-04    0.244E-05
DAV:   6    -0.366954887203E+02   -0.77080E-10   -0.13503E-08    48   0.122E-04
  92 F= -.36695489E+02 E0= -.36695489E+02  d E =0.978123E-06
       N       E                     dE             d eps       ncg     rms          rms(c)
DAV:   1    -0.366954883492E+02    0.37105E-06   -0.33300E-06    48   0.164E-02    0.354E-04
DAV:   2    -0.366954883629E+02   -0.13678E-07   -0.16681E-07    48   0.384E-03    0.231E-04
DAV:   3    -0.366954883657E+02   -0.27549E-08   -0.30611E-08    48   0.113E-03    0.133E-04
DAV:   4    -0.366954883668E+02   -0.11780E-08   -0.17715E-08    48   0.566E-04    0.364E-05
DAV:   5    -0.366954883670E+02   -0.21191E-09   -0.14559E-08    48   0.267E-04    0.310E-05
DAV:   6    -0.366954883671E+02   -0.88221E-10   -0.13595E-08    48   0.141E-04
  93 F= -.36695488E+02 E0= -.36695488E+02  d E =0.353212E-06
       N       E                     dE             d eps       ncg     rms          rms(c)
DAV:   1    -0.366954892160E+02   -0.84893E-06   -0.47465E-06    48   0.196E-02    0.411E-04
DAV:   2    -0.366954892355E+02   -0.19478E-07   -0.23421E-07    48   0.462E-03    0.270E-04
DAV:   3    -0.366954892391E+02   -0.36359E-08   -0.38558E-08    48   0.136E-03    0.151E-04
DAV:   4    -0.366954892404E+02   -0.13285E-08   -0.19553E-08    48   0.668E-04    0.378E-05
DAV:   5    -0.366954892407E+02   -0.30241E-09   -0.15146E-08    48   0.315E-04    0.338E-05
DAV:   6    -0.366954892407E+02    0.20691E-10   -0.13746E-08    48   0.172E-04
  94 F= -.36695489E+02 E0= -.36695489E+02  d E =-.873563E-06
       N       E                     dE             d eps       ncg     rms          rms(c)
DAV:   1    -0.366954923686E+02   -0.31279E-05   -0.65634E-06    48   0.233E-02    0.474E-04
DAV:   2    -0.366954923950E+02   -0.26440E-07   -0.32287E-07    48   0.552E-03    0.315E-04
DAV:   3    -0.366954923995E+02   -0.44718E-08   -0.49278E-08    48   0.163E-03    0.169E-04
DAV:   4    -0.366954924005E+02   -0.10170E-08   -0.21918E-08    48   0.780E-04    0.380E-05
DAV:   5    -0.366954924008E+02   -0.31878E-09   -0.15884E-08    48   0.370E-04    0.356E-05
DAV:   6    -0.366954924012E+02   -0.38540E-09   -0.14034E-08    48   0.209E-04
  95 F= -.36695492E+02 E0= -.36695492E+02  d E =-.316051E-05
       N       E                     dE             d eps       ncg     rms          rms(c)
DAV:   1    -0.366954993880E+02   -0.69871E-05   -0.93381E-06    48   0.281E-02    0.581E-04
DAV:   2    -0.366954994255E+02   -0.37487E-07   -0.45801E-07    48   0.666E-03    0.389E-04
DAV:   3    -0.366954994302E+02   -0.47692E-08   -0.64990E-08    48   0.198E-03    0.204E-04
DAV:   4    -0.366954994311E+02   -0.90745E-09   -0.25815E-08    48   0.945E-04    0.464E-05
DAV:   5    -0.366954994320E+02   -0.86061E-09   -0.17038E-08    48   0.451E-04    0.431E-05
DAV:   6    -0.366954994325E+02   -0.51296E-09   -0.14359E-08    48   0.255E-04
  96 F= -.36695499E+02 E0= -.36695499E+02  d E =-.703130E-05
       N       E                     dE             d eps       ncg     rms          rms(c)
DAV:   1    -0.366955125151E+02   -0.13083E-04   -0.13627E-05    48   0.342E-02    0.716E-04
DAV:   2    -0.366955125706E+02   -0.55495E-07   -0.65298E-07    48   0.805E-03    0.472E-04
DAV:   3    -0.366955125788E+02   -0.82191E-08   -0.87522E-08    48   0.240E-03    0.224E-04
DAV:   4    -0.366955125802E+02   -0.14406E-08   -0.31275E-08    48   0.111E-03    0.516E-05
DAV:   5    -0.366955125813E+02   -0.10648E-08   -0.18673E-08    48   0.537E-04    0.483E-05
DAV:   6    -0.366955125819E+02   -0.61186E-09   -0.14878E-08    48   0.303E-04
  97 F= -.36695513E+02 E0= -.36695513E+02  d E =-.131494E-04
       N       E                     dE             d eps       ncg     rms          rms(c)
DAV:   1    -0.366955348623E+02   -0.22281E-04   -0.22283E-05    48   0.438E-02    0.955E-04
DAV:   2    -0.366955349514E+02   -0.89057E-07   -0.10128E-06    48   0.100E-02    0.615E-04
DAV:   3    -0.366955349677E+02   -0.16349E-07   -0.13284E-07    48   0.304E-03    0.283E-04
DAV:   4    -0.366955349709E+02   -0.31525E-08   -0.42557E-08    48   0.139E-03    0.661E-05
DAV:   5    -0.366955349717E+02   -0.87380E-09   -0.21957E-08    48   0.677E-04    0.601E-05
DAV:   6    -0.366955349717E+02    0.68212E-12   -0.15923E-08    48   0.382E-04
  98 F= -.36695535E+02 E0= -.36695535E+02  d E =-.223898E-04
       N       E                     dE             d eps       ncg     rms          rms(c)
DAV:   1    -0.366955708080E+02   -0.35836E-04   -0.42078E-05    48   0.606E-02    0.137E-03
DAV:   2    -0.366955709679E+02   -0.15989E-06   -0.18333E-06    48   0.137E-02    0.868E-04
DAV:   3    -0.366955710007E+02   -0.32762E-07   -0.23700E-07    48   0.419E-03    0.405E-04
DAV:   4    -0.366955710070E+02   -0.63101E-08   -0.68489E-08    48   0.191E-03    0.928E-05
DAV:   5    -0.366955710082E+02   -0.12731E-08   -0.29609E-08    48   0.941E-04    0.776E-05
DAV:   6    -0.366955710077E+02    0.53456E-09   -0.18546E-08    48   0.537E-04
  99 F= -.36695571E+02 E0= -.36695571E+02  d E =-.360360E-04
       N       E                     dE             d eps       ncg     rms          rms(c)
DAV:   1    -0.366956263771E+02   -0.55369E-04   -0.85930E-05    48   0.877E-02    0.201E-03
DAV:   2    -0.366956266834E+02   -0.30632E-06   -0.36048E-06    48   0.196E-02    0.124E-03
DAV:   3    -0.366956267472E+02   -0.63741E-07   -0.45778E-07    48   0.602E-03    0.561E-04
DAV:   4    -0.366956267607E+02   -0.13518E-07   -0.12427E-07    48   0.273E-03    0.164E-04
DAV:   5    -0.366956267645E+02   -0.37849E-08   -0.46357E-08    48   0.136E-03    0.103E-04
DAV:   6    -0.366956267654E+02   -0.96338E-09   -0.24310E-08    48   0.774E-04
 100 F= -.36695627E+02 E0= -.36695627E+02  d E =-.557577E-04
       N       E                     dE             d eps       ncg     rms          rms(c)
DAV:   1    -0.366957100363E+02   -0.83272E-04   -0.18915E-04    96   0.128E-01    0.299E-03
DAV:   2    -0.366957100354E+02    0.88278E-09   -0.13183E-06    48   0.104E-02    0.188E-03
DAV:   3    -0.366957101054E+02   -0.70034E-07   -0.25724E-07    48   0.424E-03    0.370E-04
DAV:   4    -0.366957101145E+02   -0.90640E-08   -0.77642E-08    48   0.195E-03    0.187E-04
DAV:   5    -0.366957101168E+02   -0.22753E-08   -0.33258E-08    48   0.104E-03    0.122E-04
DAV:   6    -0.366957101191E+02   -0.22701E-08   -0.21569E-08    48   0.639E-04
 101 F= -.36695710E+02 E0= -.36695710E+02  d E =-.833536E-04
       N       E                     dE             d eps       ncg     rms          rms(c)
DAV:   1    -0.366958300448E+02   -0.11993E-03   -0.38663E-04    96   0.184E-01    0.423E-03
DAV:   2    -0.366958300501E+02   -0.52988E-08   -0.25431E-06    48   0.143E-02    0.270E-03
DAV:   3    -0.366958301917E+02   -0.14161E-06   -0.49593E-07    48   0.586E-03    0.419E-04
DAV:   4    -0.366958302044E+02   -0.12702E-07   -0.13587E-07    48   0.263E-03    0.209E-04
DAV:   5    -0.366958302080E+02   -0.35943E-08   -0.53406E-08    48   0.141E-03    0.139E-04
DAV:   6    -0.366958302118E+02   -0.37749E-08   -0.29231E-08    48   0.819E-04
 102 F= -.36695830E+02 E0= -.36695830E+02  d E =-.120093E-03
       N       E                     dE             d eps       ncg     rms          rms(c)
DAV:   1    -0.366959963001E+02   -0.16609E-03   -0.74112E-04    96   0.255E-01    0.578E-03
DAV:   2    -0.366959963255E+02   -0.25356E-07   -0.50328E-06    48   0.199E-02    0.375E-03
DAV:   3    -0.366959965868E+02   -0.26135E-06   -0.98076E-07    48   0.831E-03    0.629E-04
DAV:   4    -0.366959966098E+02   -0.22982E-07   -0.25846E-07    48   0.369E-03    0.339E-04
DAV:   5    -0.366959966178E+02   -0.79704E-08   -0.91493E-08    48   0.197E-03    0.216E-04
DAV:   6    -0.366959966277E+02   -0.99678E-08   -0.46356E-08    48   0.121E-03
 103 F= -.36695997E+02 E0= -.36695997E+02  d E =-.166416E-03
       N       E                     dE             d eps       ncg     rms          rms(c)
DAV:   1    -0.366962155524E+02   -0.21893E-03   -0.12882E-03    96   0.337E-01    0.763E-03
DAV:   2    -0.366962156323E+02   -0.79864E-07   -0.88895E-06    48   0.264E-02    0.500E-03
DAV:   3    -0.366962160806E+02   -0.44830E-06   -0.17108E-06    64   0.110E-02    0.694E-04
DAV:   4    -0.366962161197E+02   -0.39140E-07   -0.42936E-07    48   0.475E-03    0.373E-04
DAV:   5    -0.366962161353E+02   -0.15528E-07   -0.14961E-07    48   0.251E-03    0.217E-04
DAV:   6    -0.366962161556E+02   -0.20387E-07   -0.69257E-08    48   0.150E-03
 104 F= -.36696216E+02 E0= -.36696216E+02  d E =-.219528E-03
       N       E                     dE             d eps       ncg     rms          rms(c)
DAV:   1    -0.366964710103E+02   -0.25488E-03   -0.16771E-03    96   0.386E-01    0.889E-03
DAV:   2    -0.366964711127E+02   -0.10235E-06   -0.11961E-05    48   0.308E-02    0.584E-03
DAV:   3    -0.366964717037E+02   -0.59099E-06   -0.23606E-06    64   0.131E-02    0.921E-04
DAV:   4    -0.366964717633E+02   -0.59605E-07   -0.58706E-07    48   0.571E-03    0.525E-04
DAV:   5    -0.366964717865E+02   -0.23245E-07   -0.18807E-07    48   0.295E-03    0.303E-04
DAV:   6    -0.366964718231E+02   -0.36570E-07   -0.95709E-08    48   0.196E-03
 105 F= -.36696472E+02 E0= -.36696472E+02  d E =-.255667E-03
       N       E                     dE             d eps       ncg     rms          rms(c)
DAV:   1    -0.366967076074E+02   -0.23582E-03   -0.18706E-03    96   0.413E-01    0.116E-02
DAV:   2    -0.366967071517E+02    0.45572E-06   -0.19075E-05    64   0.402E-02    0.726E-03
DAV:   3    -0.366967073549E+02   -0.20320E-06   -0.35220E-06    64   0.168E-02    0.322E-03
DAV:   4    -0.366967076424E+02   -0.28744E-06   -0.12535E-06    64   0.950E-03    0.100E-03
DAV:   5    -0.366967076578E+02   -0.15397E-07   -0.28734E-07    48   0.440E-03    0.389E-04
DAV:   6    -0.366967076988E+02   -0.41024E-07   -0.10167E-07    48   0.215E-03
 106 F= -.36696708E+02 E0= -.36696708E+02  d E =-.235876E-03
       N       E                     dE             d eps       ncg     rms          rms(c)
DAV:   1    -0.366967080510E+02   -0.39329E-06   -0.41084E-04    80   0.181E-01    0.983E-03
DAV:   2    -0.366967064724E+02    0.15787E-05   -0.67428E-06    72   0.253E-02    0.473E-03
DAV:   3    -0.366967062483E+02    0.22410E-06   -0.19868E-06    64   0.128E-02    0.201E-03
DAV:   4    -0.366967063291E+02   -0.80831E-07   -0.79603E-07    64   0.763E-03    0.744E-04
DAV:   5    -0.366967063624E+02   -0.33242E-07   -0.13486E-07    48   0.324E-03    0.315E-04
DAV:   6    -0.366967063910E+02   -0.28649E-07   -0.51661E-08    56   0.171E-03
 107 F= -.36696706E+02 E0= -.36696706E+02  d E =0.130776E-05
       N       E                     dE             d eps       ncg     rms          rms(c)
DAV:   1    -0.366967047878E+02    0.15746E-05   -0.21194E-06    48   0.132E-02    0.609E-04
DAV:   2    -0.366967048109E+02   -0.23086E-07   -0.12130E-07    48   0.322E-03    0.334E-04
DAV:   3    -0.366967048312E+02   -0.20376E-07   -0.26154E-08    48   0.982E-04    0.192E-04
DAV:   4    -0.366967048593E+02   -0.28092E-07   -0.20719E-08    48   0.684E-04    0.611E-05
DAV:   5    -0.366967048674E+02   -0.80902E-08   -0.16224E-08    48   0.307E-04    0.434E-05
DAV:   6    -0.366967048801E+02   -0.12693E-07   -0.15131E-08    48   0.150E-04
 108 F= -.36696705E+02 E0= -.36696705E+02  d E =0.151089E-05
       N       E                     dE             d eps       ncg     rms          rms(c)
DAV:   1    -0.366967014052E+02    0.34623E-05   -0.60664E-06    48   0.224E-02    0.976E-04
DAV:   2    -0.366967014285E+02   -0.23362E-07   -0.30227E-07    48   0.530E-03    0.541E-04
DAV:   3    -0.366967014376E+02   -0.90332E-08   -0.43146E-08    48   0.159E-03    0.312E-04
DAV:   4    -0.366967014483E+02   -0.10728E-07   -0.30809E-08    48   0.116E-03    0.110E-04
DAV:   5    -0.366967014486E+02   -0.28558E-09   -0.17219E-08    48   0.519E-04    0.757E-05
DAV:   6    -0.366967014503E+02   -0.17717E-08   -0.14893E-08    48   0.262E-04
 109 F= -.36696701E+02 E0= -.36696701E+02  d E =0.342977E-05
       N       E                     dE             d eps       ncg     rms          rms(c)
DAV:   1    -0.366966957780E+02    0.56706E-05   -0.74028E-06    48   0.248E-02    0.974E-04
DAV:   2    -0.366966958021E+02   -0.24110E-07   -0.36649E-07    48   0.586E-03    0.568E-04
DAV:   3    -0.366966958055E+02   -0.33709E-08   -0.49585E-08    48   0.176E-03    0.337E-04
DAV:   4    -0.366966958093E+02   -0.38490E-08   -0.33261E-08    48   0.126E-03    0.120E-04
DAV:   5    -0.366966958080E+02    0.13467E-08   -0.17522E-08    48   0.568E-04    0.850E-05
DAV:   6    -0.366966958075E+02    0.45497E-09   -0.14940E-08    48   0.300E-04
 110 F= -.36696696E+02 E0= -.36696696E+02  d E =0.564282E-05
       N       E                     dE             d eps       ncg     rms          rms(c)
DAV:   1    -0.366966954926E+02    0.31540E-06   -0.40944E-08    48   0.157E-03    0.564E-05
DAV:   2    -0.366966954927E+02   -0.73669E-10   -0.15090E-08    48   0.380E-04    0.330E-05
DAV:   3    -0.366966954930E+02   -0.31037E-09   -0.13764E-08    48   0.123E-04    0.212E-05
DAV:   4    -0.366966954934E+02   -0.43474E-09   -0.13604E-08    48   0.684E-05    0.461E-06
DAV:   5    -0.366966954937E+02   -0.29490E-09   -0.13559E-08    48   0.322E-05    0.364E-06
DAV:   6    -0.366966954940E+02   -0.25943E-09   -0.13484E-08    48   0.162E-05
 111 F= -.36696695E+02 E0= -.36696695E+02  d E =0.313570E-06
       N       E                     dE             d eps       ncg     rms          rms(c)
DAV:   1    -0.366966949331E+02    0.56056E-06   -0.11209E-07    48   0.296E-03    0.115E-04
DAV:   2    -0.366966949324E+02    0.77603E-09   -0.18100E-08    48   0.685E-04    0.676E-05
DAV:   3    -0.366966949319E+02    0.44315E-09   -0.13922E-08    48   0.207E-04    0.404E-05
DAV:   4    -0.366966949317E+02    0.24897E-09   -0.13619E-08    48   0.142E-04    0.118E-05
DAV:   5    -0.366966949321E+02   -0.39313E-09   -0.13433E-08    48   0.623E-05    0.858E-06
DAV:   6    -0.366966949323E+02   -0.23647E-09   -0.13378E-08    48   0.307E-05
 112 F= -.36696695E+02 E0= -.36696695E+02  d E =0.561655E-06
       N       E                     dE             d eps       ncg     rms          rms(c)
DAV:   1    -0.366966942149E+02    0.71716E-06   -0.20786E-07    48   0.416E-03    0.163E-04
DAV:   2    -0.366966942137E+02    0.12370E-08   -0.22605E-08    48   0.962E-04    0.954E-05
DAV:   3    -0.366966942128E+02    0.87539E-09   -0.14266E-08    48   0.291E-04    0.565E-05
DAV:   4    -0.366966942125E+02    0.25852E-09   -0.13739E-08    48   0.200E-04    0.166E-05
DAV:   5    -0.366966942129E+02   -0.36198E-09   -0.13326E-08    48   0.879E-05    0.120E-05
DAV:   6    -0.366966942128E+02    0.90949E-10   -0.13260E-08    48   0.432E-05
 113 F= -.36696694E+02 E0= -.36696694E+02  d E =0.719496E-06
       N       E                     dE             d eps       ncg     rms          rms(c)
DAV:   1    -0.366966934665E+02    0.74640E-06   -0.30028E-07    48   0.504E-03    0.201E-04
DAV:   2    -0.366966934649E+02    0.16219E-08   -0.27050E-08    48   0.117E-03    0.116E-04
DAV:   3    -0.366966934640E+02    0.85834E-09   -0.14687E-08    48   0.356E-04    0.680E-05
DAV:   4    -0.366966934634E+02    0.63460E-09   -0.13936E-08    48   0.244E-04    0.200E-05
DAV:   5    -0.366966934638E+02   -0.44361E-09   -0.13338E-08    48   0.107E-04    0.144E-05
DAV:   6    -0.366966934640E+02   -0.13051E-09   -0.13216E-08    48   0.521E-05
 114 F= -.36696693E+02 E0= -.36696693E+02  d E =0.748854E-06
       N       E                     dE             d eps       ncg     rms          rms(c)
DAV:   1    -0.366966928862E+02    0.57766E-06   -0.35227E-07    48   0.548E-03    0.221E-04
DAV:   2    -0.366966928843E+02    0.18963E-08   -0.29674E-08    48   0.128E-03    0.126E-04
DAV:   3    -0.366966928832E+02    0.11078E-08   -0.14960E-08    48   0.390E-04    0.725E-05
DAV:   4    -0.366966928825E+02    0.68485E-09   -0.13940E-08    48   0.263E-04    0.213E-05
DAV:   5    -0.366966928828E+02   -0.33265E-09   -0.13320E-08    48   0.116E-04    0.152E-05
DAV:   6    -0.366966928829E+02   -0.13983E-09   -0.13185E-08    48   0.555E-05
 115 F= -.36696693E+02 E0= -.36696693E+02  d E =0.581003E-06
       N       E                     dE             d eps       ncg     rms          rms(c)
DAV:   1    -0.366966927089E+02    0.17389E-06   -0.33363E-07    48   0.533E-03    0.216E-04
DAV:   2    -0.366966927072E+02    0.17683E-08   -0.28865E-08    48   0.125E-03    0.122E-04
DAV:   3    -0.366966927060E+02    0.11098E-08   -0.14807E-08    48   0.384E-04    0.682E-05
DAV:   4    -0.366966927055E+02    0.51000E-09   -0.13874E-08    48   0.250E-04    0.200E-05
DAV:   5    -0.366966927058E+02   -0.29900E-09   -0.13295E-08    48   0.110E-04    0.142E-05
DAV:   6    -0.366966927059E+02   -0.78899E-10   -0.13177E-08    48   0.522E-05
 116 F= -.36696693E+02 E0= -.36696693E+02  d E =0.177036E-06
       N       E                     dE             d eps       ncg     rms          rms(c)
DAV:   1    -0.366966931746E+02   -0.46881E-06   -0.33434E-07    48   0.538E-03    0.205E-04
DAV:   2    -0.366966931731E+02    0.15860E-08   -0.28945E-08    48   0.126E-03    0.117E-04
DAV:   3    -0.366966931718E+02    0.12819E-08   -0.14854E-08    48   0.394E-04    0.643E-05
DAV:   4    -0.366966931712E+02    0.61095E-09   -0.13804E-08    48   0.242E-04    0.193E-05
DAV:   5    -0.366966931717E+02   -0.49886E-09   -0.13278E-08    48   0.107E-04    0.132E-05
DAV:   6    -0.366966931717E+02    0.56843E-11   -0.13175E-08    48   0.513E-05
 117 F= -.36696693E+02 E0= -.36696693E+02  d E =-.465749E-06
       N       E                     dE             d eps       ncg     rms          rms(c)
DAV:   1    -0.366966946460E+02   -0.14743E-05   -0.34347E-07    48   0.555E-03    0.169E-04
DAV:   2    -0.366966946448E+02    0.12367E-08   -0.29314E-08    48   0.128E-03    0.105E-04
DAV:   3    -0.366966946438E+02    0.92541E-09   -0.14923E-08    48   0.399E-04    0.603E-05
DAV:   4    -0.366966946431E+02    0.69872E-09   -0.13758E-08    48   0.235E-04    0.186E-05
DAV:   5    -0.366966946434E+02   -0.32037E-09   -0.13275E-08    48   0.106E-04    0.128E-05
DAV:   6    -0.366966946437E+02   -0.23260E-09   -0.13151E-08    48   0.508E-05
 118 F= -.36696695E+02 E0= -.36696695E+02  d E =-.147202E-05
       N       E                     dE             d eps       ncg     rms          rms(c)
DAV:   1    -0.366966972491E+02   -0.26056E-05   -0.43301E-07    48   0.626E-03    0.144E-04
DAV:   2    -0.366966972490E+02    0.11232E-09   -0.32495E-08    48   0.143E-03    0.936E-05
DAV:   3    -0.366966972483E+02    0.67212E-09   -0.15378E-08    48   0.436E-04    0.502E-05
DAV:   4    -0.366966972479E+02    0.43656E-09   -0.13769E-08    48   0.214E-04    0.147E-05
DAV:   5    -0.366966972481E+02   -0.29104E-09   -0.13302E-08    48   0.102E-04    0.108E-05
DAV:   6    -0.366966972485E+02   -0.33333E-09   -0.13221E-08    48   0.550E-05
 119 F= -.36696697E+02 E0= -.36696697E+02  d E =-.260479E-05
       N       E                     dE             d eps       ncg     rms          rms(c)
DAV:   1    -0.366967010923E+02   -0.38441E-05   -0.73038E-07    48   0.811E-03    0.178E-04
DAV:   2    -0.366967010937E+02   -0.14691E-08   -0.44449E-08    48   0.185E-03    0.114E-04
DAV:   3    -0.366967010938E+02   -0.45929E-10   -0.16922E-08    48   0.563E-04    0.557E-05
DAV:   4    -0.366967010937E+02    0.51159E-10   -0.14191E-08    48   0.265E-04    0.145E-05
DAV:   5    -0.366967010938E+02   -0.45475E-10   -0.13501E-08    48   0.127E-04    0.117E-05
DAV:   6    -0.366967010939E+02   -0.14256E-09   -0.13298E-08    48   0.776E-05
 120 F= -.36696701E+02 E0= -.36696701E+02  d E =-.384544E-05
       N       E                     dE             d eps       ncg     rms          rms(c)
DAV:   1    -0.366967062296E+02   -0.51358E-05   -0.13810E-06    48   0.112E-02    0.270E-04
DAV:   2    -0.366967062345E+02   -0.48512E-08   -0.72962E-08    48   0.257E-03    0.174E-04
DAV:   3    -0.366967062353E+02   -0.89403E-09   -0.20364E-08    48   0.783E-04    0.100E-04
DAV:   4    -0.366967062354E+02   -0.47748E-11   -0.15436E-08    48   0.406E-04    0.260E-05
DAV:   5    -0.366967062352E+02    0.11164E-09   -0.13815E-08    48   0.190E-04    0.217E-05
DAV:   6    -0.366967062353E+02   -0.18645E-10   -0.13465E-08    48   0.112E-04
 121 F= -.36696706E+02 E0= -.36696706E+02  d E =-.514134E-05
       N       E                     dE             d eps       ncg     rms          rms(c)
DAV:   1    -0.366967126289E+02   -0.63936E-05   -0.23938E-06    48   0.149E-02    0.379E-04
DAV:   2    -0.366967126379E+02   -0.90313E-08   -0.11869E-07    48   0.340E-03    0.245E-04
DAV:   3    -0.366967126395E+02   -0.15566E-08   -0.25686E-08    48   0.104E-03    0.147E-04
DAV:   4    -0.366967126401E+02   -0.63119E-09   -0.17537E-08    48   0.573E-04    0.399E-05
DAV:   5    -0.366967126397E+02    0.36698E-09   -0.14358E-08    48   0.266E-04    0.327E-05
DAV:   6    -0.366967126395E+02    0.22305E-09   -0.13661E-08    48   0.151E-04
 122 F= -.36696713E+02 E0= -.36696713E+02  d E =-.640425E-05
       N       E                     dE             d eps       ncg     rms          rms(c)
DAV:   1    -0.366967201302E+02   -0.74905E-05   -0.34074E-06    48   0.177E-02    0.433E-04
DAV:   2    -0.366967201431E+02   -0.12903E-07   -0.16501E-07    48   0.406E-03    0.282E-04
DAV:   3    -0.366967201453E+02   -0.22079E-08   -0.31282E-08    48   0.124E-03    0.166E-04
DAV:   4    -0.366967201459E+02   -0.64892E-09   -0.19105E-08    48   0.668E-04    0.450E-05
DAV:   5    -0.366967201459E+02    0.92314E-10   -0.14865E-08    48   0.312E-04    0.375E-05
DAV:   6    -0.366967201456E+02    0.22260E-09   -0.13839E-08    48   0.177E-04
 123 F= -.36696720E+02 E0= -.36696720E+02  d E =-.750612E-05
       N       E                     dE             d eps       ncg     rms          rms(c)
DAV:   1    -0.366967283467E+02   -0.82008E-05   -0.41014E-06    48   0.192E-02    0.414E-04
DAV:   2    -0.366967283622E+02   -0.15514E-07   -0.19806E-07    48   0.445E-03    0.272E-04
DAV:   3    -0.366967283650E+02   -0.28640E-08   -0.35407E-08    48   0.135E-03    0.139E-04
DAV:   4    -0.366967283657E+02   -0.68167E-09   -0.19269E-08    48   0.650E-04    0.355E-05
DAV:   5    -0.366967283660E+02   -0.32628E-09   -0.15084E-08    48   0.314E-04    0.316E-05
DAV:   6    -0.366967283662E+02   -0.19077E-09   -0.13968E-08    48   0.184E-04
 124 F= -.36696728E+02 E0= -.36696728E+02  d E =-.822061E-05
       N       E                     dE             d eps       ncg     rms          rms(c)
DAV:   1    -0.366967374777E+02   -0.91116E-05   -0.56775E-06    48   0.225E-02    0.480E-04
DAV:   2    -0.366967374981E+02   -0.20412E-07   -0.27573E-07    48   0.525E-03    0.319E-04
DAV:   3    -0.366967375002E+02   -0.21101E-08   -0.44299E-08    48   0.158E-03    0.158E-04
DAV:   4    -0.366967375007E+02   -0.50773E-09   -0.21160E-08    48   0.747E-04    0.369E-05
DAV:   5    -0.366967375014E+02   -0.75829E-09   -0.15708E-08    48   0.365E-04    0.328E-05
DAV:   6    -0.366967375020E+02   -0.50977E-09   -0.14159E-08    48   0.207E-04
 125 F= -.36696738E+02 E0= -.36696738E+02  d E =-.913572E-05
       N       E                     dE             d eps       ncg     rms          rms(c)
DAV:   1    -0.366967479001E+02   -0.10399E-04   -0.88655E-06    48   0.282E-02    0.642E-04
DAV:   2    -0.366967479313E+02   -0.31240E-07   -0.43139E-07    48   0.658E-03    0.426E-04
DAV:   3    -0.366967479339E+02   -0.25566E-08   -0.62454E-08    48   0.198E-03    0.237E-04
DAV:   4    -0.366967479339E+02   -0.61391E-11   -0.26319E-08    48   0.992E-04    0.551E-05
DAV:   5    -0.366967479354E+02   -0.15580E-08   -0.17090E-08    48   0.472E-04    0.457E-05
DAV:   6    -0.366967479360E+02   -0.58822E-09   -0.14519E-08    48   0.260E-04
 126 F= -.36696748E+02 E0= -.36696748E+02  d E =-.104341E-04
       N       E                     dE             d eps       ncg     rms          rms(c)
DAV:   1    -0.366967600603E+02   -0.12125E-04   -0.12376E-05    48   0.331E-02    0.699E-04
DAV:   2    -0.366967601095E+02   -0.49210E-07   -0.59353E-07    48   0.777E-03    0.467E-04
DAV:   3    -0.366967601169E+02   -0.73155E-08   -0.81549E-08    48   0.232E-03    0.238E-04
DAV:   4    -0.366967601185E+02   -0.16410E-08   -0.30347E-08    48   0.110E-03    0.527E-05
DAV:   5    -0.366967601196E+02   -0.11039E-08   -0.18603E-08    48   0.538E-04    0.489E-05
DAV:   6    -0.366967601201E+02   -0.49727E-09   -0.15099E-08    48   0.306E-04
 127 F= -.36696760E+02 E0= -.36696760E+02  d E =-.121841E-04
       N       E                     dE             d eps       ncg     rms          rms(c)
DAV:   1    -0.366967744795E+02   -0.14360E-04   -0.18106E-05    48   0.399E-02    0.838E-04
DAV:   2    -0.366967745562E+02   -0.76731E-07   -0.85836E-07    48   0.939E-03    0.557E-04
DAV:   3    -0.366967745717E+02   -0.15451E-07   -0.11215E-07    48   0.281E-03    0.287E-04
DAV:   4    -0.366967745758E+02   -0.40914E-08   -0.38373E-08    48   0.134E-03    0.718E-05
DAV:   5    -0.366967745763E+02   -0.53728E-09   -0.21257E-08    48   0.652E-04    0.655E-05
DAV:   6    -0.366967745765E+02   -0.19600E-09   -0.16011E-08    48   0.369E-04
 128 F= -.36696775E+02 E0= -.36696775E+02  d E =-.144564E-04
       N       E                     dE             d eps       ncg     rms          rms(c)
DAV:   1    -0.366967922030E+02   -0.17627E-04   -0.27575E-05    48   0.492E-02    0.106E-03
DAV:   2    -0.366967923199E+02   -0.11692E-06   -0.13046E-06    48   0.116E-02    0.703E-04
DAV:   3    -0.366967923425E+02   -0.22672E-07   -0.16434E-07    48   0.347E-03    0.381E-04
DAV:   4    -0.366967923497E+02   -0.71968E-08   -0.52392E-08    48   0.169E-03    0.968E-05
DAV:   5    -0.366967923497E+02    0.73214E-10   -0.25591E-08    48   0.815E-04    0.856E-05
DAV:   6    -0.366967923497E+02   -0.50022E-10   -0.17468E-08    48   0.455E-04
 129 F= -.36696792E+02 E0= -.36696792E+02  d E =-.177732E-04
       N       E                     dE             d eps       ncg     rms          rms(c)
DAV:   1    -0.366968137593E+02   -0.21410E-04   -0.38008E-05    48   0.576E-02    0.119E-03
DAV:   2    -0.366968139202E+02   -0.16089E-06   -0.17971E-06    48   0.136E-02    0.799E-04
DAV:   3    -0.366968139493E+02   -0.29145E-07   -0.22022E-07    48   0.405E-03    0.391E-04
DAV:   4    -0.366968139559E+02   -0.65997E-08   -0.64723E-08    48   0.190E-03    0.873E-05
DAV:   5    -0.366968139574E+02   -0.14347E-08   -0.29917E-08    48   0.934E-04    0.835E-05
DAV:   6    -0.366968139578E+02   -0.45338E-09   -0.19080E-08    48   0.532E-04
 130 F= -.36696814E+02 E0= -.36696814E+02  d E =-.216081E-04
       N       E                     dE             d eps       ncg     rms          rms(c)
DAV:   1    -0.366968399985E+02   -0.26041E-04   -0.56983E-05    48   0.706E-02    0.150E-03
DAV:   2    -0.366968402349E+02   -0.23633E-06   -0.27000E-06    48   0.167E-02    0.100E-03
DAV:   3    -0.366968402727E+02   -0.37844E-07   -0.32273E-07    48   0.496E-03    0.510E-04
DAV:   4    -0.366968402806E+02   -0.79286E-08   -0.92085E-08    48   0.239E-03    0.119E-04
DAV:   5    -0.366968402835E+02   -0.28949E-08   -0.37958E-08    48   0.116E-03    0.108E-04
DAV:   6    -0.366968402838E+02   -0.24329E-09   -0.21642E-08    48   0.654E-04
 131 F= -.36696840E+02 E0= -.36696840E+02  d E =-.263259E-04
       N       E                     dE             d eps       ncg     rms          rms(c)
DAV:   1    -0.366968712402E+02   -0.30957E-04   -0.80310E-05    48   0.837E-02    0.176E-03
DAV:   2    -0.366968715795E+02   -0.33935E-06   -0.37904E-06    48   0.198E-02    0.118E-03
DAV:   3    -0.366968716416E+02   -0.62061E-07   -0.45454E-07    48   0.590E-03    0.625E-04
DAV:   4    -0.366968716575E+02   -0.15901E-07   -0.12368E-07    48   0.283E-03    0.141E-04
DAV:   5    -0.366968716590E+02   -0.15473E-08   -0.48440E-08    48   0.137E-03    0.132E-04
DAV:   6    -0.366968716586E+02    0.40768E-09   -0.25232E-08    48   0.777E-04
 132 F= -.36696872E+02 E0= -.36696872E+02  d E =-.313749E-04
       N       E                     dE             d eps       ncg     rms          rms(c)
DAV:   1    -0.366969088725E+02   -0.37213E-04   -0.11561E-04    48   0.100E-01    0.207E-03
DAV:   2    -0.366969093610E+02   -0.48849E-06   -0.54424E-06    48   0.237E-02    0.138E-03
DAV:   3    -0.366969094452E+02   -0.84216E-07   -0.64278E-07    48   0.705E-03    0.694E-04
DAV:   4    -0.366969094637E+02   -0.18542E-07   -0.16861E-07    48   0.333E-03    0.155E-04
DAV:   5    -0.366969094677E+02   -0.39311E-08   -0.63279E-08    48   0.163E-03    0.150E-04
DAV:   6    -0.366969094674E+02    0.26466E-09   -0.30273E-08    48   0.926E-04
 133 F= -.36696909E+02 E0= -.36696909E+02  d E =-.378088E-04
       N       E                     dE             d eps       ncg     rms          rms(c)
DAV:   1    -0.366969544992E+02   -0.45032E-04   -0.17968E-04    80   0.122E-01    0.279E-03
DAV:   2    -0.366969545540E+02   -0.54820E-07   -0.19233E-06    48   0.118E-02    0.178E-03
DAV:   3    -0.366969545793E+02   -0.25281E-07   -0.28084E-07    48   0.467E-03    0.543E-04
DAV:   4    -0.366969545926E+02   -0.13328E-07   -0.88846E-08    48   0.220E-03    0.189E-04
DAV:   5    -0.366969545969E+02   -0.42940E-08   -0.33895E-08    48   0.107E-03    0.838E-05
DAV:   6    -0.366969546023E+02   -0.54133E-08   -0.22299E-08    48   0.584E-04
 134 F= -.36696955E+02 E0= -.36696955E+02  d E =-.451350E-04
       N       E                     dE             d eps       ncg     rms          rms(c)
DAV:   1    -0.366970060315E+02   -0.51435E-04   -0.25793E-04    96   0.147E-01    0.356E-03
DAV:   2    -0.366970060841E+02   -0.52509E-07   -0.28543E-06    48   0.147E-02    0.225E-03
DAV:   3    -0.366970061295E+02   -0.45449E-07   -0.42568E-07    48   0.580E-03    0.915E-04
DAV:   4    -0.366970061634E+02   -0.33920E-07   -0.14244E-07    48   0.303E-03    0.300E-04
DAV:   5    -0.366970061686E+02   -0.52030E-08   -0.45678E-08    48   0.141E-03    0.113E-04
DAV:   6    -0.366970061763E+02   -0.77049E-08   -0.25642E-08    48   0.709E-04
 135 F= -.36697006E+02 E0= -.36697006E+02  d E =-.515740E-04
