 vasp.5.4.1 24Jun15 (build Jan 13 2020 12:58:22) complex                        
  
 executed on           IFC91_ompi date 2020.02.03  09:53:44
 running on   15 total cores
 each image running on    1 cores
 distrk:  each k-point on    1 cores,    1 groups
 distr:  one band on NCORES_PER_BAND=   1 cores,    1 groups


--------------------------------------------------------------------------------------------------------


 INCAR:
 POTCAR:    PAW_PBE H 15Jun2001                   
 POTCAR:    PAW_PBE C 08Apr2002                   
 POTCAR:    PAW_PBE N 08Apr2002                   
 POTCAR:    PAW_PBE H 15Jun2001                   
   VRHFIN =H: ultrasoft test                                                    
   LEXCH  = PE                                                                  
   EATOM  =    12.4884 eV,    0.9179 Ry                                         
                                                                                
   TITEL  = PAW_PBE H 15Jun2001                                                 
   LULTRA =        F    use ultrasoft PP ?                                      
   IUNSCR =        0    unscreen: 0-lin 1-nonlin 2-no                           
   RPACOR =    0.000    partial core radius                                     
   POMASS =    1.000; ZVAL   =    1.000    mass and valenz                      
   RCORE  =    1.100    outmost cutoff radius                                   
   RWIGS  =    0.700; RWIGS  =    0.370    wigner-seitz radius (au A)           
   ENMAX  =  250.000; ENMIN  =  200.000 eV                                      
   RCLOC  =    0.701    cutoff for local pot                                    
   LCOR   =        T    correct aug charges                                     
   LPAW   =        T    paw PP                                                  
   EAUG   =  400.000                                                            
   RMAX   =    1.123    core radius for proj-oper                               
   RAUG   =    1.200    factor for augmentation sphere                          
   RDEP   =    1.112    radius for radial grids                                 
   RDEPT  =    0.926    core radius for aug-charge                              
                                                                                
   Atomic configuration                                                         
    2 entries                                                                   
     n  l   j            E        occ.                                          
     1  0  0.50        -6.4927   1.0000                                         
     2  1  0.50        -3.4015   0.0000                                         
   Description                                                                  
     l       E           TYP  RCUT    TYP  RCUT                                 
     0     -6.4927494     23  1.100                                             
     0      6.8029130     23  1.100                                             
     1     -4.0817478     23  1.100                                             
  local pseudopotential read in
  atomic valenz-charges read in
  non local Contribution for L=           0  read in
    real space projection operators read in
  non local Contribution for L=           0  read in
    real space projection operators read in
  non local Contribution for L=           1  read in
    real space projection operators read in
    PAW grid and wavefunctions read in
 
   number of l-projection  operators is LMAX  =           3
   number of lm-projection operators is LMMAX =           5
 
 POTCAR:    PAW_PBE C 08Apr2002                   
   VRHFIN =C: s2p2                                                              
   LEXCH  = PE                                                                  
   EATOM  =   147.1560 eV,   10.8157 Ry                                         
                                                                                
   TITEL  = PAW_PBE C 08Apr2002                                                 
   LULTRA =        F    use ultrasoft PP ?                                      
   IUNSCR =        1    unscreen: 0-lin 1-nonlin 2-no                           
   RPACOR =    1.200    partial core radius                                     
   POMASS =   12.011; ZVAL   =    4.000    mass and valenz                      
   RCORE  =    1.500    outmost cutoff radius                                   
   RWIGS  =    1.630; RWIGS  =    0.863    wigner-seitz radius (au A)           
   ENMAX  =  400.000; ENMIN  =  300.000 eV                                      
   ICORE  =        2    local potential                                         
   LCOR   =        T    correct aug charges                                     
   LPAW   =        T    paw PP                                                  
   EAUG   =  644.873                                                            
   DEXC   =    0.000                                                            
   RMAX   =    1.529    core radius for proj-oper                               
   RAUG   =    1.300    factor for augmentation sphere                          
   RDEP   =    1.501    radius for radial grids                                 
   RDEPT  =    1.300    core radius for aug-charge                              
                                                                                
   Atomic configuration                                                         
    4 entries                                                                   
     n  l   j            E        occ.                                          
     1  0  0.50      -273.3789   2.0000                                         
     2  0  0.50       -13.7508   2.0000                                         
     2  1  0.50        -5.2854   2.0000                                         
     3  2  1.50        -5.4423   0.0000                                         
   Description                                                                  
     l       E           TYP  RCUT    TYP  RCUT                                 
     0    -13.7508458     23  1.200                                             
     0     -8.2022199     23  1.200                                             
     1     -5.2854383     23  1.500                                             
     1     34.0145650     23  1.500                                             
     2     -5.4423304      7  1.500                                             
  local pseudopotential read in
  partial core-charges read in
  partial kinetic energy density read in
  atomic valenz-charges read in
  non local Contribution for L=           0  read in
    real space projection operators read in
  non local Contribution for L=           0  read in
    real space projection operators read in
  non local Contribution for L=           1  read in
    real space projection operators read in
  non local Contribution for L=           1  read in
    real space projection operators read in
    PAW grid and wavefunctions read in
 
   number of l-projection  operators is LMAX  =           4
   number of lm-projection operators is LMMAX =           8
 
 POTCAR:    PAW_PBE N 08Apr2002                   
   VRHFIN =N: s2p3                                                              
   LEXCH  = PE                                                                  
   EATOM  =   264.5486 eV,   19.4438 Ry                                         
                                                                                
   TITEL  = PAW_PBE N 08Apr2002                                                 
   LULTRA =        F    use ultrasoft PP ?                                      
   IUNSCR =        1    unscreen: 0-lin 1-nonlin 2-no                           
   RPACOR =    1.200    partial core radius                                     
   POMASS =   14.001; ZVAL   =    5.000    mass and valenz                      
   RCORE  =    1.500    outmost cutoff radius                                   
   RWIGS  =    1.400; RWIGS  =    0.741    wigner-seitz radius (au A)           
   ENMAX  =  400.000; ENMIN  =  300.000 eV                                      
   ICORE  =        2    local potential                                         
   LCOR   =        T    correct aug charges                                     
   LPAW   =        T    paw PP                                                  
   EAUG   =  627.112                                                            
   DEXC   =    0.000                                                            
   RMAX   =    1.529    core radius for proj-oper                               
   RAUG   =    1.300    factor for augmentation sphere                          
   RDEP   =    1.514    radius for radial grids                                 
   RDEPT  =    1.338    core radius for aug-charge                              
                                                                                
   Atomic configuration                                                         
    4 entries                                                                   
     n  l   j            E        occ.                                          
     1  0  0.50      -384.7179   2.0000                                         
     2  0  0.50       -18.5828   2.0000                                         
     2  1  0.50        -7.0898   3.0000                                         
     3  2  1.50        -6.8029   0.0000                                         
   Description                                                                  
     l       E           TYP  RCUT    TYP  RCUT                                 
     0    -18.5828119     23  1.200                                             
     0    -13.5018863     23  1.200                                             
     1     -7.0897853     23  1.500                                             
     1      9.5240782     23  1.500                                             
     2     -6.8029130      7  1.500                                             
  local pseudopotential read in
  partial core-charges read in
  partial kinetic energy density read in
  atomic valenz-charges read in
  non local Contribution for L=           0  read in
    real space projection operators read in
  non local Contribution for L=           0  read in
    real space projection operators read in
  non local Contribution for L=           1  read in
    real space projection operators read in
  non local Contribution for L=           1  read in
    real space projection operators read in
    PAW grid and wavefunctions read in
 
   number of l-projection  operators is LMAX  =           4
   number of lm-projection operators is LMMAX =           8
 

 ----------------------------------------------------------------------------- 
|                                                                             |
|  ADVICE TO THIS USER RUNNING 'VASP/VAMP'   (HEAR YOUR MASTER'S VOICE ...):  |
|                                                                             |
|      You have a (more or less) 'small supercell' and for smaller cells      |
|      it is recommended  to use the reciprocal-space projection scheme!      |
|      The real space optimization is not  efficient for small cells and it   |
|      is also less accurate ...                                              |
|      Therefore set LREAL=.FALSE. in the  INCAR file                         |
|                                                                             |
 ----------------------------------------------------------------------------- 

 Optimization of the real space projectors (new method)

 maximal supplied QI-value         = 34.20
 optimisation between [QCUT,QGAM] = [  9.92, 20.18] = [ 27.55,114.04] Ry 
 Optimized for a Real-space Cutoff    1.26 Angstroem

   l    n(q)    QCUT    max X(q) W(low)/X(q) W(high)/X(q)  e(spline) 
   0      8     9.919    19.460    0.50E-03    0.23E-03    0.29E-06
   0      8     9.919    12.209    0.48E-03    0.23E-03    0.28E-06
   1      7     9.919     4.655    0.17E-03    0.75E-03    0.30E-06
 Optimization of the real space projectors (new method)

 maximal supplied QI-value         = 25.13
 optimisation between [QCUT,QGAM] = [ 10.05, 20.36] = [ 28.30,116.06] Ry 
 Optimized for a Real-space Cutoff    1.30 Angstroem

   l    n(q)    QCUT    max X(q) W(low)/X(q) W(high)/X(q)  e(spline) 
   0      8    10.053   115.676    0.49E-03    0.72E-03    0.18E-06
   0      8    10.053    87.132    0.49E-03    0.71E-03    0.18E-06
   1      7    10.053     4.429    0.32E-03    0.31E-03    0.18E-06
   1      7    10.053     2.733    0.23E-03    0.19E-03    0.20E-06
 Optimization of the real space projectors (new method)

 maximal supplied QI-value         = 25.13
 optimisation between [QCUT,QGAM] = [ 10.05, 20.36] = [ 28.30,116.06] Ry 
 Optimized for a Real-space Cutoff    1.65 Angstroem

   l    n(q)    QCUT    max X(q) W(low)/X(q) W(high)/X(q)  e(spline) 
   0     10    10.053    79.467    0.76E-04    0.72E-04    0.56E-06
   0     10    10.053    66.151    0.76E-04    0.72E-04    0.55E-06
   1     10    10.053     8.350    0.25E-03    0.92E-03    0.41E-05
   1     10    10.053     5.531    0.27E-03    0.10E-02    0.45E-05
  PAW_PBE H 15Jun2001                   :
 energy of atom  1       EATOM=  -12.4884
 kinetic energy error for atom=    0.0098 (will be added to EATOM!!)
  PAW_PBE C 08Apr2002                   :
 energy of atom  2       EATOM= -147.1560
 kinetic energy error for atom=    0.0288 (will be added to EATOM!!)
  PAW_PBE N 08Apr2002                   :
 energy of atom  3       EATOM= -264.5486
 kinetic energy error for atom=    0.0736 (will be added to EATOM!!)
 
 
 POSCAR: H3 C2 N1                                
  positions in direct lattice
  velocities in cartesian coordinates
 exchange correlation table for  LEXCH =        8
   RHO(1)=    0.500       N(1)  =     2000
   RHO(2)=  100.500       N(2)  =     4000

 VTST: version 3.2, (02/03/18)

 CHAIN: initializing optimizer
 
 OPT: Using FIRE optimizer
 OPT: FIRE, Init
 OPT: FIRE, MAXMOVE       0.20000
 OPT: FIRE, TIMESTEP      0.10000
 OPT: FIRE, FTIMEMAX      1.00000
 OPT: FIRE, FTIMEINC      1.10000
 OPT: FIRE, FTIMEDEC      0.50000
 OPT: FIRE, FALPHADEC     0.99000
 OPT: FIRE, FALPHA        0.10000
 OPT: FIRE, FNMIN         5
 
 CHAIN: Read ICHAIN            0
 CHAIN: Running the NEB
 NEB:          SPRING     -5.000000
 NEB:          LCLIMB      T
 NEB:     LTANGENTOLD      F
 NEB:           LDNEB      F
 NEB:        LDNEBORG      F
 NEB:        LNEBCELL      F
 NEB:          EFIRST      0.000000
 NEB:           ELAST      0.000000
 
 POSCAR: H3 C2 N1                                
  positions in direct lattice
  No initial velocities read in
 
 POSCAR: H3 C2 N1                                
  positions in direct lattice
  No initial velocities read in
 


--------------------------------------------------------------------------------------------------------


 ion  position               nearest neighbor table
   1  0.476  0.461  0.496-   4 1.10
   2  0.466  0.516  0.474-   4 1.10
   3  0.472  0.509  0.532-   4 1.10
   4  0.484  0.497  0.500-   3 1.10   1 1.10   2 1.10   5 1.45
   5  0.532  0.505  0.498-   6 1.17   4 1.45
   6  0.570  0.512  0.501-   5 1.17
 
  LATTYP: Found a simple cubic cell.
 ALAT       =    30.0000000000
  
  Lattice vectors:
  
 A1 = (  30.0000000000,   0.0000000000,   0.0000000000)
 A2 = (   0.0000000000,  30.0000000000,   0.0000000000)
 A3 = (   0.0000000000,   0.0000000000,  30.0000000000)


Analysis of symmetry for initial positions (statically):
=====================================================================
 Subroutine PRICEL returns:
 Original cell was already a primitive cell.
 

 Routine SETGRP: Setting up the symmetry group for a 
 simple cubic supercell.


 Subroutine GETGRP returns: Found  1 space group operations
 (whereof  1 operations were pure point group operations)
 out of a pool of 48 trial point group operations.


The static configuration has the point symmetry C_1 .


Analysis of symmetry for dynamics (positions and initial velocities):
=====================================================================
 Subroutine PRICEL returns:
 Original cell was already a primitive cell.
 

 Routine SETGRP: Setting up the symmetry group for a 
 simple cubic supercell.


 Subroutine GETGRP returns: Found  1 space group operations
 (whereof  1 operations were pure point group operations)
 out of a pool of 48 trial point group operations.


The dynamic configuration has the point symmetry C_1 .
 
 
 KPOINTS: Mo2C                                    

Automatic generation of k-mesh.
Space group operators:
 irot       det(A)        alpha          n_x          n_y          n_z        tau_x        tau_y        tau_z
    1     1.000000     0.000000     1.000000     0.000000     0.000000     0.000000     0.000000     0.000000
 
 Subroutine IBZKPT returns following result:
 ===========================================
 
 Found      4 irreducible k-points:
 
 Following reciprocal coordinates:
            Coordinates               Weight
  0.250000  0.250000  0.250000      2.000000
 -0.250000  0.250000  0.250000      2.000000
  0.250000 -0.250000  0.250000      2.000000
 -0.250000 -0.250000  0.250000      2.000000
 
 Following cartesian coordinates:
            Coordinates               Weight
  0.008333  0.008333  0.008333      2.000000
 -0.008333  0.008333  0.008333      2.000000
  0.008333 -0.008333  0.008333      2.000000
 -0.008333 -0.008333  0.008333      2.000000
 


--------------------------------------------------------------------------------------------------------




 Dimension of arrays:
   k-points           NKPTS =      4   k-points in BZ     NKDIM =      4   number of bands    NBANDS=     12
   number of dos      NEDOS =    301   number of ions     NIONS =      6
   non local maximal  LDIM  =      4   non local SUM 2l+1 LMDIM =      8
   total plane-waves  NPLWV = ******
   max r-space proj   IRMAX =   2395   max aug-charges    IRDMAX=   1738
   dimension x,y,z NGX =   150 NGY =  150 NGZ =  150
   dimension x,y,z NGXF=   300 NGYF=  300 NGZF=  300
   support grid    NGXF=   300 NGYF=  300 NGZF=  300
   ions per type =               3   2   1
 NGX,Y,Z   is equivalent  to a cutoff of   8.31,  8.31,  8.31 a.u.
 NGXF,Y,Z  is equivalent  to a cutoff of  16.62, 16.62, 16.62 a.u.


 I would recommend the setting:
   dimension x,y,z NGX =   147 NGY =  147 NGZ =  147
 SYSTEM =  unknown system                          
 POSCAR =  H3 C2 N1                                

 Startparameter for this run:
   NWRITE =      2    write-flag & timer
   PREC   = normal    normal or accurate (medium, high low for compatibility)
   ISTART =      0    job   : 0-new  1-cont  2-samecut
   ICHARG =      2    charge: 1-file 2-atom 10-const
   ISPIN  =      1    spin polarized calculation?
   LNONCOLLINEAR =      F non collinear calculations
   LSORBIT =      F    spin-orbit coupling
   INIWAV =      1    electr: 0-lowe 1-rand  2-diag
   LASPH  =      F    aspherical Exc in radial PAW
   METAGGA=      F    non-selfconsistent MetaGGA calc.

 Electronic Relaxation 1
   ENCUT  =  400.0 eV  29.40 Ry    5.42 a.u.  48.92 48.92 48.92*2*pi/ulx,y,z
   ENINI  =  400.0     initial cutoff
   ENAUG  =  644.9 eV  augmentation charge cutoff
   NELM   =    500;   NELMIN=  6; NELMDL= -5     # of ELM steps 
   EDIFF  = 0.1E-03   stopping-criterion for ELM
   LREAL  =      T    real-space projection
   NLSPLINE    = F    spline interpolate recip. space projectors
   LCOMPAT=      F    compatible to vasp.4.4
   GGA_COMPAT  = T    GGA compatible to vasp.4.4-vasp.4.6
   LMAXPAW     = -100 max onsite density
   LMAXMIX     =    2 max onsite mixed and CHGCAR
   VOSKOWN=      0    Vosko Wilk Nusair interpolation
   ROPT   =   -0.00050  -0.00050  -0.00050
 Ionic relaxation
   EDIFFG = -.1E+00   stopping-criterion for IOM
   NSW    =    300    number of steps for IOM
   NBLOCK =      1;   KBLOCK =    300    inner block; outer block 
   IBRION =      3    ionic relax: 0-MD 1-quasi-New 2-CG
   NFREE  =      0    steps in history (QN), initial steepest desc. (CG)
   ISIF   =      2    stress and relaxation
   IWAVPR =     11    prediction:  0-non 1-charg 2-wave 3-comb
   ISYM   =      2    0-nonsym 1-usesym 2-fastsym
   LCORR  =      T    Harris-Foulkes like correction to forces

   POTIM  = 0.0000    time-step for ionic-motion
   TEIN   =    0.0    initial temperature
   TEBEG  =    0.0;   TEEND  =   0.0 temperature during run
   SMASS  =   2.00    Nose mass-parameter (am)
   estimated Nose-frequenzy (Omega)   =  0.12E+10 period in steps =  0.00 mass=   0.137E-25a.u.
   SCALEE = 1.0000    scale energy and forces
   NPACO  =    256;   APACO  = 16.0  distance and # of slots for P.C.
   PSTRESS=    0.0 pullay stress

  Mass of Ions in am
   POMASS =   1.00 12.01 14.00
  Ionic Valenz
   ZVAL   =   1.00  4.00  5.00
  Atomic Wigner-Seitz radii
   RWIGS  =  -1.00 -1.00 -1.00
  virtual crystal weights 
   VCA    =   1.00  1.00  1.00
   NELECT =      16.0000    total number of electrons
   NUPDOWN=      -1.0000    fix difference up-down

 DOS related values:
   EMIN   =  10.00;   EMAX   =-10.00  energy-range for DOS
   EFERMI =   0.00
   ISMEAR =     0;   SIGMA  =   0.20  broadening in eV -4-tet -1-fermi 0-gaus

 Electronic relaxation 2 (details)
   IALGO  =     38    algorithm
   LDIAG  =      T    sub-space diagonalisation (order eigenvalues)
   LSUBROT=      F    optimize rotation matrix (better conditioning)
   TURBO    =      0    0=normal 1=particle mesh
   IRESTART =      0    0=no restart 2=restart with 2 vectors
   NREBOOT  =      0    no. of reboots
   NMIN     =      0    reboot dimension
   EREF     =   0.00    reference energy to select bands
   IMIX   =      4    mixing-type and parameters
     AMIX     =   0.40;   BMIX     =  1.00
     AMIX_MAG =   1.60;   BMIX_MAG =  1.00
     AMIN     =   0.10
     WC   =   100.;   INIMIX=   1;  MIXPRE=   1;  MAXMIX= -45

 Intra band minimization:
   WEIMIN = 0.0010     energy-eigenvalue tresh-hold
   EBREAK =  0.21E-05  absolut break condition
   DEPER  =   0.30     relativ break condition  

   TIME   =   0.40     timestep for ELM

  volume/ion in A,a.u.               =    4500.00     30367.50
  Fermi-wavevector in a.u.,A,eV,Ry     =   0.137508  0.259852  0.257264  0.018908
  Thomas-Fermi vector in A             =   0.790710
 
 Write flags
   LWAVE  =      F    write WAVECAR
   LCHARG =      F    write CHGCAR
   LVTOT  =      F    write LOCPOT, total local potential
   LVHAR  =      F    write LOCPOT, Hartree potential only
   LELF   =      F    write electronic localiz. function (ELF)
   LORBIT =      0    0 simple, 1 ext, 2 COOP (PROOUT)


 Dipole corrections
   LMONO  =      F    monopole corrections only (constant potential shift)
   LDIPOL =      F    correct potential (dipole corrections)
   IDIPOL =      0    1-x, 2-y, 3-z, 4-all directions 
   EPSILON=  1.0000000 bulk dielectric constant

 Exchange correlation treatment:
   GGA     =    PE    GGA type
   LEXCH   =     8    internal setting for exchange type
   VOSKOWN=      0    Vosko Wilk Nusair interpolation
   LHFCALC =     F    Hartree Fock is set to
   LHFONE  =     F    Hartree Fock one center treatment
   AEXX    =    0.0000 exact exchange contribution

 Linear response parameters
   LEPSILON=     F    determine dielectric tensor
   LRPA    =     F    only Hartree local field effects (RPA)
   LNABLA  =     F    use nabla operator in PAW spheres
   LVEL    =     F    velocity operator in full k-point grid
   LINTERFAST=   F  fast interpolation
   KINTER  =     0    interpolate to denser k-point grid
   CSHIFT  =0.1000    complex shift for real part using Kramers Kronig
   OMEGAMAX=  -1.0    maximum frequency
   DEG_THRESHOLD= 0.2000000E-02 threshold for treating states as degnerate
   RTIME   =    0.100 relaxation time in fs

 Orbital magnetization related:
   ORBITALMAG=     F  switch on orbital magnetization
   LCHIMAG   =     F  perturbation theory with respect to B field
   DQ        =  0.001000  dq finite difference perturbation B field



--------------------------------------------------------------------------------------------------------


 quickmin algorithm: (dynamic with friction)
 charge density and potential will be updated during run
 non-spin polarized calculation
 Variant of blocked Davidson
 Davidson routine will perform the subspace rotation
 perform sub-space diagonalisation
    after iterative eigenvector-optimisation
 modified Broyden-mixing scheme, WC =      100.0
 initial mixing is a Kerker type mixing with AMIX =  0.4000 and BMIX =      1.0000
 Hartree-type preconditioning will be used
 using additional bands            4
 real space projection scheme for non local part
 use partial core corrections
 calculate Harris-corrections to forces 
   (improved forces if not selfconsistent)
 use gradient corrections 
 use of overlap-Matrix (Vanderbilt PP)
 Gauss-broadening in eV      SIGMA  =   0.20


--------------------------------------------------------------------------------------------------------


  energy-cutoff  :      400.00
  volume of cell :    27000.00
      direct lattice vectors                 reciprocal lattice vectors
    30.000000000  0.000000000  0.000000000     0.033333333  0.000000000  0.000000000
     0.000000000 30.000000000  0.000000000     0.000000000  0.033333333  0.000000000
     0.000000000  0.000000000 30.000000000     0.000000000  0.000000000  0.033333333

  length of vectors
    30.000000000 30.000000000 30.000000000     0.033333333  0.033333333  0.033333333


 
 k-points in units of 2pi/SCALE and weight: Mo2C                                    
   0.00833333  0.00833333  0.00833333       0.250
  -0.00833333  0.00833333  0.00833333       0.250
   0.00833333 -0.00833333  0.00833333       0.250
  -0.00833333 -0.00833333  0.00833333       0.250
 
 k-points in reciprocal lattice and weights: Mo2C                                    
   0.25000000  0.25000000  0.25000000       0.250
  -0.25000000  0.25000000  0.25000000       0.250
   0.25000000 -0.25000000  0.25000000       0.250
  -0.25000000 -0.25000000  0.25000000       0.250
 
 position of ions in fractional coordinates (direct lattice) 
   0.47576805  0.46149374  0.49610488
   0.46645928  0.51599830  0.47352414
   0.47248401  0.50866033  0.53231472
   0.48394028  0.49703206  0.49953088
   0.53168734  0.50454104  0.49785323
   0.56967105  0.51229367  0.50067205
 
 position of ions in cartesian coordinates  (Angst):
  14.27304163 13.84481220 14.88314647
  13.99377848 15.47994903 14.20572431
  14.17452023 15.25980999 15.96944156
  14.51820825 14.91096191 14.98592645
  15.95062017 15.13623119 14.93559690
  17.09013145 15.36881000 15.02016153
 


--------------------------------------------------------------------------------------------------------


 k-point  1 :   0.2500 0.2500 0.2500  plane waves:  490454
 k-point  2 :  -0.2500 0.2500 0.2500  plane waves:  490454
 k-point  3 :   0.2500-0.2500 0.2500  plane waves:  490454
 k-point  4 :  -0.2500-0.2500 0.2500  plane waves:  490454

 maximum and minimum number of plane-waves per node :    490454   490454

 maximum number of plane-waves:    490454
 maximum index in each direction: 
   IXMAX=   49   IYMAX=   49   IZMAX=   48
   IXMIN=  -49   IYMIN=  -49   IZMIN=  -49

 WARNING: aliasing errors must be expected set NGX to 198 to avoid them
 WARNING: aliasing errors must be expected set NGY to 198 to avoid them
 WARNING: aliasing errors must be expected set NGZ to 196 to avoid them
 aliasing errors are usually negligible using standard VASP settings
 and one can safely disregard these warnings

 serial   3D FFT for wavefunctions
 parallel 3D FFT for charge:
    minimum data exchange during FFTs selected (reduces bandwidth)


 total amount of memory used by VASP on root node  3203886. kBytes
========================================================================

   base      :      30000. kBytes
   nonlr-proj:        690. kBytes
   fftplans  :     924480. kBytes
   grid      :    1872000. kBytes
   one-center:         18. kBytes
   wavefun   :     376698. kBytes
 
     INWAV:  cpu time    0.0000: real time    0.0003
 Broyden mixing: mesh for mixing (old mesh)
   NGX = 97   NGY = 97   NGZ = 97
  (NGX  =300   NGY  =300   NGZ  =300)
  gives a total of 912673 points

 initial charge density was supplied:
 charge density of overlapping atoms calculated
 number of electron      16.0000000 magnetization 
 keeping initial charge density in first step


--------------------------------------------------------------------------------------------------------


 Maximum index for non-local projection operator         2266
 Maximum index for augmentation-charges         1492 (set IRDMAX)


--------------------------------------------------------------------------------------------------------


 First call to EWALD:  gamma=   0.059
 Maximum number of real-space cells 3x 3x 3
 Maximum number of reciprocal cells 3x 3x 3

 FEWALD executed in parallel
    FEWALD:  cpu time    0.0020: real time    0.0021


----------------------------------------- Iteration    1(   1)  ---------------------------------------


    POTLOK:  cpu time   19.1811: real time   19.1657
    SETDIJ:  cpu time    0.0080: real time    0.0081
     EDDAV:  cpu time   88.0056: real time   87.9320
       DOS:  cpu time    0.0000: real time    0.0003
    --------------------------------------------
      LOOP:  cpu time  107.1977: real time  107.1108

 eigenvalue-minimisations  :   160
 total energy-change (2. order) : 0.1155411E+03  (-0.2124725E+03)
 number of electron      16.0000000 magnetization 
 augmentation part       16.0000000 magnetization 

 Free energy of the ion-electron system (eV)
  ---------------------------------------------------
  alpha Z        PSCENC =         0.04144063
  Ewald energy   TEWEN  =       674.37241158
  -Hartree energ DENC   =     -1088.23086233
  -exchange      EXHF   =         0.00000000
  -V(xc)+E(xc)   XCENC  =        51.37773329
  PAW double counting   =       428.37890668     -430.73533574
  entropy T*S    EENTRO =        -0.18014070
  eigenvalues    EBANDS =      -115.64843207
  atomic energy  EATOM  =       596.16534815
  Solvation  Ediel_sol  =         0.00000000
  ---------------------------------------------------
  free energy    TOTEN  =       115.54106948 eV

  energy without entropy =      115.72121018  energy(sigma->0) =      115.63113983


--------------------------------------------------------------------------------------------------------




----------------------------------------- Iteration    1(   2)  ---------------------------------------


     EDDAV:  cpu time  112.6539: real time  112.5610
       DOS:  cpu time    0.0000: real time    0.0002
    --------------------------------------------
      LOOP:  cpu time  112.6549: real time  112.5643

 eigenvalue-minimisations  :   192
 total energy-change (2. order) :-0.1163438E+03  (-0.1135699E+03)
 number of electron      16.0000000 magnetization 
 augmentation part       16.0000000 magnetization 

 Free energy of the ion-electron system (eV)
  ---------------------------------------------------
  alpha Z        PSCENC =         0.04144063
  Ewald energy   TEWEN  =       674.37241158
  -Hartree energ DENC   =     -1088.23086233
  -exchange      EXHF   =         0.00000000
  -V(xc)+E(xc)   XCENC  =        51.37773329
  PAW double counting   =       428.37890668     -430.73533574
  entropy T*S    EENTRO =         0.00000000
  eigenvalues    EBANDS =      -232.17232316
  atomic energy  EATOM  =       596.16534815
  Solvation  Ediel_sol  =         0.00000000
  ---------------------------------------------------
  free energy    TOTEN  =        -0.80268091 eV

  energy without entropy =       -0.80268091  energy(sigma->0) =       -0.80268091


--------------------------------------------------------------------------------------------------------




----------------------------------------- Iteration    1(   3)  ---------------------------------------


     EDDAV:  cpu time   85.1181: real time   85.0495
       DOS:  cpu time    0.0000: real time    0.0002
    --------------------------------------------
      LOOP:  cpu time   85.1201: real time   85.0534

 eigenvalue-minimisations  :   124
 total energy-change (2. order) :-0.3650580E+02  (-0.3639904E+02)
 number of electron      16.0000000 magnetization 
 augmentation part       16.0000000 magnetization 

 Free energy of the ion-electron system (eV)
  ---------------------------------------------------
  alpha Z        PSCENC =         0.04144063
  Ewald energy   TEWEN  =       674.37241158
  -Hartree energ DENC   =     -1088.23086233
  -exchange      EXHF   =         0.00000000
  -V(xc)+E(xc)   XCENC  =        51.37773329
  PAW double counting   =       428.37890668     -430.73533574
  entropy T*S    EENTRO =         0.00000000
  eigenvalues    EBANDS =      -268.67812711
  atomic energy  EATOM  =       596.16534815
  Solvation  Ediel_sol  =         0.00000000
  ---------------------------------------------------
  free energy    TOTEN  =       -37.30848485 eV

  energy without entropy =      -37.30848485  energy(sigma->0) =      -37.30848485


--------------------------------------------------------------------------------------------------------




----------------------------------------- Iteration    1(   4)  ---------------------------------------


     EDDAV:  cpu time   88.4626: real time   88.3911
       DOS:  cpu time    0.0000: real time    0.0002
    --------------------------------------------
      LOOP:  cpu time   88.4646: real time   88.3948

 eigenvalue-minimisations  :   128
 total energy-change (2. order) :-0.3443024E+01  (-0.3417747E+01)
 number of electron      16.0000000 magnetization 
 augmentation part       16.0000000 magnetization 

 Free energy of the ion-electron system (eV)
  ---------------------------------------------------
  alpha Z        PSCENC =         0.04144063
  Ewald energy   TEWEN  =       674.37241158
  -Hartree energ DENC   =     -1088.23086233
  -exchange      EXHF   =         0.00000000
  -V(xc)+E(xc)   XCENC  =        51.37773329
  PAW double counting   =       428.37890668     -430.73533574
  entropy T*S    EENTRO =         0.00000000
  eigenvalues    EBANDS =      -272.12115105
  atomic energy  EATOM  =       596.16534815
  Solvation  Ediel_sol  =         0.00000000
  ---------------------------------------------------
  free energy    TOTEN  =       -40.75150879 eV

  energy without entropy =      -40.75150879  energy(sigma->0) =      -40.75150879


--------------------------------------------------------------------------------------------------------




----------------------------------------- Iteration    1(   5)  ---------------------------------------


     EDDAV:  cpu time   88.3356: real time   88.2633
       DOS:  cpu time    0.0000: real time    0.0002
    CHARGE:  cpu time    7.1399: real time    7.1345
    MIXING:  cpu time    0.6879: real time    0.6864
    --------------------------------------------
      LOOP:  cpu time   96.1634: real time   96.0882

 eigenvalue-minimisations  :   124
 total energy-change (2. order) :-0.7460880E-01  (-0.7255210E-01)
 number of electron      16.0000007 magnetization 
 augmentation part        0.5271789 magnetization 

 Broyden mixing:
  rms(total) = 0.10937E+01    rms(broyden)= 0.10930E+01
  rms(prec ) = 0.11370E+01
  weight for this iteration     100.00

 Free energy of the ion-electron system (eV)
  ---------------------------------------------------
  alpha Z        PSCENC =         0.04144063
  Ewald energy   TEWEN  =       674.37241158
  -Hartree energ DENC   =     -1088.23086233
  -exchange      EXHF   =         0.00000000
  -V(xc)+E(xc)   XCENC  =        51.37773329
  PAW double counting   =       428.37890668     -430.73533574
  entropy T*S    EENTRO =         0.00000000
  eigenvalues    EBANDS =      -272.19575985
  atomic energy  EATOM  =       596.16534815
  Solvation  Ediel_sol  =         0.00000000
  ---------------------------------------------------
  free energy    TOTEN  =       -40.82611759 eV

  energy without entropy =      -40.82611759  energy(sigma->0) =      -40.82611759


--------------------------------------------------------------------------------------------------------




----------------------------------------- Iteration    1(   6)  ---------------------------------------


    POTLOK:  cpu time   21.8937: real time   21.8766
    SETDIJ:  cpu time    0.0090: real time    0.0082
     EDDAV:  cpu time   81.1747: real time   81.1097
       DOS:  cpu time    0.0000: real time    0.0002
    CHARGE:  cpu time    6.9329: real time    6.9283
    MIXING:  cpu time    0.7159: real time    0.7143
    --------------------------------------------
      LOOP:  cpu time  110.7282: real time  110.6411

 eigenvalue-minimisations  :   112
 total energy-change (2. order) : 0.3296696E+01  (-0.6497946E+00)
 number of electron      16.0000007 magnetization 
 augmentation part        0.4549692 magnetization 

 Broyden mixing:
  rms(total) = 0.59460E+00    rms(broyden)= 0.59436E+00
  rms(prec ) = 0.61069E+00
  weight for this iteration     100.00

 eigenvalues of (default mixing * dielectric matrix)
  average eigenvalue GAMMA=   1.2629
  1.2629

 Free energy of the ion-electron system (eV)
  ---------------------------------------------------
  alpha Z        PSCENC =         0.04144063
  Ewald energy   TEWEN  =       674.37241158
  -Hartree energ DENC   =     -1120.25284792
  -exchange      EXHF   =         0.00000000
  -V(xc)+E(xc)   XCENC  =        53.17190073
  PAW double counting   =       732.26618709     -734.95100585
  entropy T*S    EENTRO =         0.00000000
  eigenvalues    EBANDS =      -238.34285650
  atomic energy  EATOM  =       596.16534815
  Solvation  Ediel_sol  =         0.00000000
  ---------------------------------------------------
  free energy    TOTEN  =       -37.52942209 eV

  energy without entropy =      -37.52942209  energy(sigma->0) =      -37.52942209


--------------------------------------------------------------------------------------------------------




----------------------------------------- Iteration    1(   7)  ---------------------------------------


    POTLOK:  cpu time   21.5167: real time   21.5000
    SETDIJ:  cpu time    0.0080: real time    0.0084
     EDDAV:  cpu time   80.5518: real time   80.4855
       DOS:  cpu time    0.0000: real time    0.0002
    CHARGE:  cpu time    6.8960: real time    6.8911
    MIXING:  cpu time    0.7629: real time    0.7625
    --------------------------------------------
      LOOP:  cpu time  109.7383: real time  109.6518

 eigenvalue-minimisations  :   112
 total energy-change (2. order) : 0.6654662E+00  (-0.1411628E+00)
 number of electron      16.0000007 magnetization 
 augmentation part        0.4559440 magnetization 

 Broyden mixing:
  rms(total) = 0.30124E+00    rms(broyden)= 0.30119E+00
  rms(prec ) = 0.30927E+00
  weight for this iteration     100.00

 eigenvalues of (default mixing * dielectric matrix)
  average eigenvalue GAMMA=   1.4491
  0.9129  1.9853

 Free energy of the ion-electron system (eV)
  ---------------------------------------------------
  alpha Z        PSCENC =         0.04144063
  Ewald energy   TEWEN  =       674.37241158
  -Hartree energ DENC   =     -1137.33917731
  -exchange      EXHF   =         0.00000000
  -V(xc)+E(xc)   XCENC  =        54.10446808
  PAW double counting   =      1040.32427861    -1043.12285729
  entropy T*S    EENTRO =         0.00000000
  eigenvalues    EBANDS =      -221.40986834
  atomic energy  EATOM  =       596.16534815
  Solvation  Ediel_sol  =         0.00000000
  ---------------------------------------------------
  free energy    TOTEN  =       -36.86395589 eV

  energy without entropy =      -36.86395589  energy(sigma->0) =      -36.86395589


--------------------------------------------------------------------------------------------------------




----------------------------------------- Iteration    1(   8)  ---------------------------------------


    POTLOK:  cpu time   22.0646: real time   22.0481
    SETDIJ:  cpu time    0.0080: real time    0.0082
     EDDAV:  cpu time   89.5564: real time   89.4836
       DOS:  cpu time    0.0000: real time    0.0002
    CHARGE:  cpu time    7.1579: real time    7.1525
    MIXING:  cpu time    0.8429: real time    0.8425
    --------------------------------------------
      LOOP:  cpu time  119.6328: real time  119.5394

 eigenvalue-minimisations  :   128
 total energy-change (2. order) : 0.1730125E+00  (-0.4205323E-01)
 number of electron      16.0000007 magnetization 
 augmentation part        0.4367242 magnetization 

 Broyden mixing:
  rms(total) = 0.10879E+00    rms(broyden)= 0.10875E+00
  rms(prec ) = 0.11330E+00
  weight for this iteration     100.00

 eigenvalues of (default mixing * dielectric matrix)
  average eigenvalue GAMMA=   1.4585
  2.1585  1.4599  0.7570

 Free energy of the ion-electron system (eV)
  ---------------------------------------------------
  alpha Z        PSCENC =         0.04144063
  Ewald energy   TEWEN  =       674.37241158
  -Hartree energ DENC   =     -1148.15127847
  -exchange      EXHF   =         0.00000000
  -V(xc)+E(xc)   XCENC  =        54.79588601
  PAW double counting   =      1297.54662152    -1300.39870982
  entropy T*S    EENTRO =         0.00000000
  eigenvalues    EBANDS =      -211.06266300
  atomic energy  EATOM  =       596.16534815
  Solvation  Ediel_sol  =         0.00000000
  ---------------------------------------------------
  free energy    TOTEN  =       -36.69094341 eV

  energy without entropy =      -36.69094341  energy(sigma->0) =      -36.69094341


--------------------------------------------------------------------------------------------------------




----------------------------------------- Iteration    1(   9)  ---------------------------------------


    POTLOK:  cpu time   21.4177: real time   21.3999
    SETDIJ:  cpu time    0.0080: real time    0.0083
     EDDAV:  cpu time   90.1403: real time   90.0665
       DOS:  cpu time    0.0000: real time    0.0002
    CHARGE:  cpu time    6.5410: real time    6.5357
    MIXING:  cpu time    0.8819: real time    0.8806
    --------------------------------------------
      LOOP:  cpu time  118.9899: real time  118.8947

 eigenvalue-minimisations  :   128
 total energy-change (2. order) : 0.2557753E-01  (-0.3473225E-02)
 number of electron      16.0000007 magnetization 
 augmentation part        0.4379504 magnetization 

 Broyden mixing:
  rms(total) = 0.33175E-01    rms(broyden)= 0.33161E-01
  rms(prec ) = 0.38903E-01
  weight for this iteration     100.00

 eigenvalues of (default mixing * dielectric matrix)
  average eigenvalue GAMMA=   1.4543
  2.2967  1.6604  0.8065  1.0537

 Free energy of the ion-electron system (eV)
  ---------------------------------------------------
  alpha Z        PSCENC =         0.04144063
  Ewald energy   TEWEN  =       674.37241158
  -Hartree energ DENC   =     -1149.89735016
  -exchange      EXHF   =         0.00000000
  -V(xc)+E(xc)   XCENC  =        54.89902261
  PAW double counting   =      1371.81234096    -1374.63515300
  entropy T*S    EENTRO =         0.00000000
  eigenvalues    EBANDS =      -209.42342664
  atomic energy  EATOM  =       596.16534815
  Solvation  Ediel_sol  =         0.00000000
  ---------------------------------------------------
  free energy    TOTEN  =       -36.66536587 eV

  energy without entropy =      -36.66536587  energy(sigma->0) =      -36.66536587


--------------------------------------------------------------------------------------------------------




----------------------------------------- Iteration    1(  10)  ---------------------------------------


    POTLOK:  cpu time   21.8277: real time   21.8101
    SETDIJ:  cpu time    0.0090: real time    0.0084
     EDDAV:  cpu time   91.1111: real time   91.0369
       DOS:  cpu time    0.0000: real time    0.0002
    CHARGE:  cpu time    6.6030: real time    6.5971
    MIXING:  cpu time    0.9639: real time    0.9639
    --------------------------------------------
      LOOP:  cpu time  120.5157: real time  120.4209

 eigenvalue-minimisations  :   128
 total energy-change (2. order) : 0.4517481E-02  (-0.4772730E-03)
 number of electron      16.0000007 magnetization 
 augmentation part        0.4388405 magnetization 

 Broyden mixing:
  rms(total) = 0.14596E-01    rms(broyden)= 0.14591E-01
  rms(prec ) = 0.21024E-01
  weight for this iteration     100.00

 eigenvalues of (default mixing * dielectric matrix)
  average eigenvalue GAMMA=   1.4636
  2.1741  2.1741  1.3406  0.8145  0.8145

 Free energy of the ion-electron system (eV)
  ---------------------------------------------------
  alpha Z        PSCENC =         0.04144063
  Ewald energy   TEWEN  =       674.37241158
  -Hartree energ DENC   =     -1151.17119476
  -exchange      EXHF   =         0.00000000
  -V(xc)+E(xc)   XCENC  =        54.94049798
  PAW double counting   =      1387.64830708    -1390.45953411
  entropy T*S    EENTRO =         0.00000000
  eigenvalues    EBANDS =      -208.19812493
  atomic energy  EATOM  =       596.16534815
  Solvation  Ediel_sol  =         0.00000000
  ---------------------------------------------------
  free energy    TOTEN  =       -36.66084839 eV

  energy without entropy =      -36.66084839  energy(sigma->0) =      -36.66084839


--------------------------------------------------------------------------------------------------------




----------------------------------------- Iteration    1(  11)  ---------------------------------------


    POTLOK:  cpu time   22.2566: real time   22.2391
    SETDIJ:  cpu time    0.0080: real time    0.0082
     EDDAV:  cpu time   90.2753: real time   90.2005
       DOS:  cpu time    0.0000: real time    0.0002
    CHARGE:  cpu time    6.4430: real time    6.4371
    MIXING:  cpu time    0.9559: real time    0.9553
    --------------------------------------------
      LOOP:  cpu time  119.9388: real time  119.8443

 eigenvalue-minimisations  :   128
 total energy-change (2. order) :-0.1131480E-02  (-0.1796227E-03)
 number of electron      16.0000007 magnetization 
 augmentation part        0.4384489 magnetization 

 Broyden mixing:
  rms(total) = 0.95484E-02    rms(broyden)= 0.95470E-02
  rms(prec ) = 0.14705E-01
  weight for this iteration     100.00

 eigenvalues of (default mixing * dielectric matrix)
  average eigenvalue GAMMA=   1.7273
  3.1822  2.4831  1.4982  1.4982  0.8511  0.8511

 Free energy of the ion-electron system (eV)
  ---------------------------------------------------
  alpha Z        PSCENC =         0.04144063
  Ewald energy   TEWEN  =       674.37241158
  -Hartree energ DENC   =     -1152.27600491
  -exchange      EXHF   =         0.00000000
  -V(xc)+E(xc)   XCENC  =        54.96522861
  PAW double counting   =      1384.31262894    -1387.11896158
  entropy T*S    EENTRO =         0.00000000
  eigenvalues    EBANDS =      -207.12407129
  atomic energy  EATOM  =       596.16534815
  Solvation  Ediel_sol  =         0.00000000
  ---------------------------------------------------
  free energy    TOTEN  =       -36.66197987 eV

  energy without entropy =      -36.66197987  energy(sigma->0) =      -36.66197987


--------------------------------------------------------------------------------------------------------




----------------------------------------- Iteration    1(  12)  ---------------------------------------


    POTLOK:  cpu time   22.1176: real time   22.1004
    SETDIJ:  cpu time    0.0100: real time    0.0086
     EDDAV:  cpu time   80.3658: real time   80.3013
       DOS:  cpu time    0.0000: real time    0.0002
    CHARGE:  cpu time    6.8970: real time    6.8925
    MIXING:  cpu time    0.9799: real time    0.9790
    --------------------------------------------
      LOOP:  cpu time  110.3712: real time  110.2855

 eigenvalue-minimisations  :   112
 total energy-change (2. order) :-0.6696849E-02  (-0.4960040E-03)
 number of electron      16.0000007 magnetization 
 augmentation part        0.4378106 magnetization 

 Broyden mixing:
  rms(total) = 0.49687E-02    rms(broyden)= 0.49606E-02
  rms(prec ) = 0.72230E-02
  weight for this iteration     100.00

 eigenvalues of (default mixing * dielectric matrix)
  average eigenvalue GAMMA=   1.7190
  3.7612  2.2675  1.8167  1.4057  0.8140  0.9228  1.0454

 Free energy of the ion-electron system (eV)
  ---------------------------------------------------
  alpha Z        PSCENC =         0.04144063
  Ewald energy   TEWEN  =       674.37241158
  -Hartree energ DENC   =     -1154.06163686
  -exchange      EXHF   =         0.00000000
  -V(xc)+E(xc)   XCENC  =        55.00174646
  PAW double counting   =      1377.71537487    -1380.51679482
  entropy T*S    EENTRO =         0.00000000
  eigenvalues    EBANDS =      -205.38656673
  atomic energy  EATOM  =       596.16534815
  Solvation  Ediel_sol  =         0.00000000
  ---------------------------------------------------
  free energy    TOTEN  =       -36.66867672 eV

  energy without entropy =      -36.66867672  energy(sigma->0) =      -36.66867672


--------------------------------------------------------------------------------------------------------




----------------------------------------- Iteration    1(  13)  ---------------------------------------


    POTLOK:  cpu time   21.5767: real time   21.5604
    SETDIJ:  cpu time    0.0080: real time    0.0083
     EDDAV:  cpu time  107.7586: real time  107.6701
       DOS:  cpu time    0.0000: real time    0.0002
    CHARGE:  cpu time    6.5070: real time    6.5022
    MIXING:  cpu time    1.0958: real time    1.0950
    --------------------------------------------
      LOOP:  cpu time  136.9492: real time  136.8404

 eigenvalue-minimisations  :   160
 total energy-change (2. order) :-0.4141436E-02  (-0.1196366E-03)
 number of electron      16.0000007 magnetization 
 augmentation part        0.4376449 magnetization 

 Broyden mixing:
  rms(total) = 0.36272E-02    rms(broyden)= 0.36248E-02
  rms(prec ) = 0.52985E-02
  weight for this iteration     100.00

 eigenvalues of (default mixing * dielectric matrix)
  average eigenvalue GAMMA=   1.7387
  4.2856  2.3766  1.6054  1.5291  1.5291  0.8789  0.8789  0.8263

 Free energy of the ion-electron system (eV)
  ---------------------------------------------------
  alpha Z        PSCENC =         0.04144063
  Ewald energy   TEWEN  =       674.37241158
  -Hartree energ DENC   =     -1154.47098208
  -exchange      EXHF   =         0.00000000
  -V(xc)+E(xc)   XCENC  =        55.00695900
  PAW double counting   =      1378.73431573    -1381.53659988
  entropy T*S    EENTRO =         0.00000000
  eigenvalues    EBANDS =      -204.98571129
  atomic energy  EATOM  =       596.16534815
  Solvation  Ediel_sol  =         0.00000000
  ---------------------------------------------------
  free energy    TOTEN  =       -36.67281816 eV

  energy without entropy =      -36.67281816  energy(sigma->0) =      -36.67281816


--------------------------------------------------------------------------------------------------------




----------------------------------------- Iteration    1(  14)  ---------------------------------------


    POTLOK:  cpu time   22.5106: real time   22.4926
    SETDIJ:  cpu time    0.0080: real time    0.0084
     EDDAV:  cpu time   88.8855: real time   88.8133
       DOS:  cpu time    0.0000: real time    0.0002
    CHARGE:  cpu time    6.6830: real time    6.6776
    MIXING:  cpu time    1.2488: real time    1.2484
    --------------------------------------------
      LOOP:  cpu time  119.3379: real time  119.2446

 eigenvalue-minimisations  :   128
 total energy-change (2. order) :-0.4275083E-02  (-0.5816997E-04)
 number of electron      16.0000007 magnetization 
 augmentation part        0.4377614 magnetization 

 Broyden mixing:
  rms(total) = 0.25221E-02    rms(broyden)= 0.25216E-02
  rms(prec ) = 0.35443E-02
  weight for this iteration     100.00

 eigenvalues of (default mixing * dielectric matrix)
  average eigenvalue GAMMA=   1.8745
  5.2060  2.8214  2.3204  1.5120  1.4371  0.8475  0.8475  0.9392  0.9392

 Free energy of the ion-electron system (eV)
  ---------------------------------------------------
  alpha Z        PSCENC =         0.04144063
  Ewald energy   TEWEN  =       674.37241158
  -Hartree energ DENC   =     -1154.64038241
  -exchange      EXHF   =         0.00000000
  -V(xc)+E(xc)   XCENC  =        54.99896462
  PAW double counting   =      1376.88342664    -1379.68556796
  entropy T*S    EENTRO =         0.00000000
  eigenvalues    EBANDS =      -204.81273448
  atomic energy  EATOM  =       596.16534815
  Solvation  Ediel_sol  =         0.00000000
  ---------------------------------------------------
  free energy    TOTEN  =       -36.67709324 eV

  energy without entropy =      -36.67709324  energy(sigma->0) =      -36.67709324


--------------------------------------------------------------------------------------------------------




----------------------------------------- Iteration    1(  15)  ---------------------------------------


    POTLOK:  cpu time   23.4894: real time   23.4709
    SETDIJ:  cpu time    0.0080: real time    0.0082
     EDDAV:  cpu time   88.9205: real time   88.8486
       DOS:  cpu time    0.0000: real time    0.0002
    CHARGE:  cpu time    6.7800: real time    6.7739
    MIXING:  cpu time    1.3698: real time    1.3692
    --------------------------------------------
      LOOP:  cpu time  120.5707: real time  120.4746

 eigenvalue-minimisations  :   128
 total energy-change (2. order) :-0.3125700E-02  (-0.3105226E-04)
 number of electron      16.0000007 magnetization 
 augmentation part        0.4377081 magnetization 

 Broyden mixing:
  rms(total) = 0.16093E-02    rms(broyden)= 0.16091E-02
  rms(prec ) = 0.21806E-02
  weight for this iteration     100.00

 eigenvalues of (default mixing * dielectric matrix)
  average eigenvalue GAMMA=   1.9681
  6.0590  3.0945  2.3163  1.5909  1.4809  1.4809  0.8366  0.8763  0.9730  0.9730

 Free energy of the ion-electron system (eV)
  ---------------------------------------------------
  alpha Z        PSCENC =         0.04144063
  Ewald energy   TEWEN  =       674.37241158
  -Hartree energ DENC   =     -1154.75562139
  -exchange      EXHF   =         0.00000000
  -V(xc)+E(xc)   XCENC  =        54.99461979
  PAW double counting   =      1376.77171268    -1379.57448261
  entropy T*S    EENTRO =         0.00000000
  eigenvalues    EBANDS =      -204.69564777
  atomic energy  EATOM  =       596.16534815
  Solvation  Ediel_sol  =         0.00000000
  ---------------------------------------------------
  free energy    TOTEN  =       -36.68021894 eV

  energy without entropy =      -36.68021894  energy(sigma->0) =      -36.68021894


--------------------------------------------------------------------------------------------------------




----------------------------------------- Iteration    1(  16)  ---------------------------------------


    POTLOK:  cpu time   22.6146: real time   22.5967
    SETDIJ:  cpu time    0.0080: real time    0.0082
     EDDAV:  cpu time   89.6364: real time   89.5626
       DOS:  cpu time    0.0000: real time    0.0002
    CHARGE:  cpu time    6.2101: real time    6.2052
    MIXING:  cpu time    1.3118: real time    1.3105
    --------------------------------------------
      LOOP:  cpu time  119.7818: real time  119.9036

 eigenvalue-minimisations  :   128
 total energy-change (2. order) :-0.2151210E-02  (-0.2609695E-04)
 number of electron      16.0000007 magnetization 
 augmentation part        0.4375789 magnetization 

 Broyden mixing:
  rms(total) = 0.11124E-02    rms(broyden)= 0.11113E-02
  rms(prec ) = 0.13826E-02
  weight for this iteration     100.00

 eigenvalues of (default mixing * dielectric matrix)
  average eigenvalue GAMMA=   2.1036
  7.1662  3.6423  2.3336  2.3336  1.4687  1.2811  1.2811  0.8310  0.8762  0.9628
  0.9628

 Free energy of the ion-electron system (eV)
  ---------------------------------------------------
  alpha Z        PSCENC =         0.04144063
  Ewald energy   TEWEN  =       674.37241158
  -Hartree energ DENC   =     -1154.81958109
  -exchange      EXHF   =         0.00000000
  -V(xc)+E(xc)   XCENC  =        54.99223898
  PAW double counting   =      1377.09668320    -1379.89936462
  entropy T*S    EENTRO =         0.00000000
  eigenvalues    EBANDS =      -204.63154698
  atomic energy  EATOM  =       596.16534815
  Solvation  Ediel_sol  =         0.00000000
  ---------------------------------------------------
  free energy    TOTEN  =       -36.68237015 eV

  energy without entropy =      -36.68237015  energy(sigma->0) =      -36.68237015


--------------------------------------------------------------------------------------------------------




----------------------------------------- Iteration    1(  17)  ---------------------------------------


    POTLOK:  cpu time   21.3777: real time   21.3609
    SETDIJ:  cpu time    0.0090: real time    0.0087
     EDDAV:  cpu time   67.9817: real time   67.9258
       DOS:  cpu time    0.0000: real time    0.0002
    CHARGE:  cpu time    6.4220: real time    6.4167
    MIXING:  cpu time    1.4968: real time    1.4963
    --------------------------------------------
      LOOP:  cpu time   97.2882: real time   97.2127

 eigenvalue-minimisations  :    88
 total energy-change (2. order) :-0.1028387E-02  (-0.5361239E-05)
 number of electron      16.0000007 magnetization 
 augmentation part        0.4376333 magnetization 

 Broyden mixing:
  rms(total) = 0.40000E-03    rms(broyden)= 0.39990E-03
  rms(prec ) = 0.58047E-03
  weight for this iteration     100.00

 eigenvalues of (default mixing * dielectric matrix)
  average eigenvalue GAMMA=   2.1535
  7.7569  4.0624  2.5915  2.0046  1.9399  1.3029  1.3029  0.8280  0.8990  0.9531
  1.1002  1.1002

 Free energy of the ion-electron system (eV)
  ---------------------------------------------------
  alpha Z        PSCENC =         0.04144063
  Ewald energy   TEWEN  =       674.37241158
  -Hartree energ DENC   =     -1154.81661046
  -exchange      EXHF   =         0.00000000
  -V(xc)+E(xc)   XCENC  =        54.98922219
  PAW double counting   =      1377.46646508    -1380.26881914
  entropy T*S    EENTRO =         0.00000000
  eigenvalues    EBANDS =      -204.63285655
  atomic energy  EATOM  =       596.16534815
  Solvation  Ediel_sol  =         0.00000000
  ---------------------------------------------------
  free energy    TOTEN  =       -36.68339854 eV

  energy without entropy =      -36.68339854  energy(sigma->0) =      -36.68339854


--------------------------------------------------------------------------------------------------------




----------------------------------------- Iteration    1(  18)  ---------------------------------------


    POTLOK:  cpu time   21.7777: real time   21.7610
    SETDIJ:  cpu time    0.0090: real time    0.0084
     EDDAV:  cpu time   65.9310: real time   65.8768
       DOS:  cpu time    0.0000: real time    0.0002
    CHARGE:  cpu time    6.7080: real time    6.7030
    MIXING:  cpu time    1.6348: real time    1.6327
    --------------------------------------------
      LOOP:  cpu time   96.0624: real time   95.9868

 eigenvalue-minimisations  :    84
 total energy-change (2. order) :-0.4840915E-03  (-0.3055969E-05)
 number of electron      16.0000007 magnetization 
 augmentation part        0.4376176 magnetization 

 Broyden mixing:
  rms(total) = 0.29312E-03    rms(broyden)= 0.29307E-03
  rms(prec ) = 0.38476E-03
  weight for this iteration     100.00

 eigenvalues of (default mixing * dielectric matrix)
  average eigenvalue GAMMA=   2.2498
  8.2859  4.6924  2.8453  2.5923  2.0872  1.5407  1.2870  1.2870  0.8261  0.9089
  0.9089  0.9926  0.9926

 Free energy of the ion-electron system (eV)
  ---------------------------------------------------
  alpha Z        PSCENC =         0.04144063
  Ewald energy   TEWEN  =       674.37241158
  -Hartree energ DENC   =     -1154.82387147
  -exchange      EXHF   =         0.00000000
  -V(xc)+E(xc)   XCENC  =        54.98895526
  PAW double counting   =      1377.50687739    -1380.30933793
  entropy T*S    EENTRO =         0.00000000
  eigenvalues    EBANDS =      -204.62570623
  atomic energy  EATOM  =       596.16534815
  Solvation  Ediel_sol  =         0.00000000
  ---------------------------------------------------
  free energy    TOTEN  =       -36.68388263 eV

  energy without entropy =      -36.68388263  energy(sigma->0) =      -36.68388263


--------------------------------------------------------------------------------------------------------




----------------------------------------- Iteration    1(  19)  ---------------------------------------


    POTLOK:  cpu time   21.5457: real time   21.5282
    SETDIJ:  cpu time    0.0080: real time    0.0083
     EDDAV:  cpu time   58.2441: real time   58.1967
       DOS:  cpu time    0.0000: real time    0.0002
    CHARGE:  cpu time    6.5560: real time    6.5510
    MIXING:  cpu time    1.6248: real time    1.6235
    --------------------------------------------
      LOOP:  cpu time   87.9806: real time   87.9121

 eigenvalue-minimisations  :    72
 total energy-change (2. order) :-0.2817827E-03  (-0.1375608E-05)
 number of electron      16.0000007 magnetization 
 augmentation part        0.4376130 magnetization 

 Broyden mixing:
  rms(total) = 0.17666E-03    rms(broyden)= 0.17656E-03
  rms(prec ) = 0.21705E-03
  weight for this iteration     100.00

 eigenvalues of (default mixing * dielectric matrix)
  average eigenvalue GAMMA=   2.2774
  8.5333  5.1367  3.1860  2.4305  2.0661  1.9942  1.3754  1.2571  1.2571  1.0066
  1.0066  0.8273  0.9032  0.9032

 Free energy of the ion-electron system (eV)
  ---------------------------------------------------
  alpha Z        PSCENC =         0.04144063
  Ewald energy   TEWEN  =       674.37241158
  -Hartree energ DENC   =     -1154.81697876
  -exchange      EXHF   =         0.00000000
  -V(xc)+E(xc)   XCENC  =        54.98825696
  PAW double counting   =      1377.22725522    -1380.02966967
  entropy T*S    EENTRO =         0.00000000
  eigenvalues    EBANDS =      -204.63222852
  atomic energy  EATOM  =       596.16534815
  Solvation  Ediel_sol  =         0.00000000
  ---------------------------------------------------
  free energy    TOTEN  =       -36.68416441 eV

  energy without entropy =      -36.68416441  energy(sigma->0) =      -36.68416441


--------------------------------------------------------------------------------------------------------




----------------------------------------- Iteration    1(  20)  ---------------------------------------


    POTLOK:  cpu time   20.9548: real time   20.9375
    SETDIJ:  cpu time    0.0080: real time    0.0082
     EDDAV:  cpu time   63.6763: real time   63.6248
       DOS:  cpu time    0.0000: real time    0.0002
    CHARGE:  cpu time    6.2211: real time    6.2167
    MIXING:  cpu time    1.7587: real time    1.7568
    --------------------------------------------
      LOOP:  cpu time   92.6209: real time   92.5479

 eigenvalue-minimisations  :    88
 total energy-change (2. order) :-0.1048640E-03  (-0.3489781E-06)
 number of electron      16.0000007 magnetization 
 augmentation part        0.4376182 magnetization 

 Broyden mixing:
  rms(total) = 0.13381E-03    rms(broyden)= 0.13380E-03
  rms(prec ) = 0.15413E-03
  weight for this iteration     100.00

 eigenvalues of (default mixing * dielectric matrix)
  average eigenvalue GAMMA=   2.3152
  8.7136  5.6872  3.3971  2.5237  2.5237  2.1083  1.5800  1.2762  1.2762  1.0184
  1.0184  0.8281  0.8891  0.9436  0.9436

 Free energy of the ion-electron system (eV)
  ---------------------------------------------------
  alpha Z        PSCENC =         0.04144063
  Ewald energy   TEWEN  =       674.37241158
  -Hartree energ DENC   =     -1154.81853049
  -exchange      EXHF   =         0.00000000
  -V(xc)+E(xc)   XCENC  =        54.98811876
  PAW double counting   =      1377.26773619    -1380.07013567
  entropy T*S    EENTRO =         0.00000000
  eigenvalues    EBANDS =      -204.63065841
  atomic energy  EATOM  =       596.16534815
  Solvation  Ediel_sol  =         0.00000000
  ---------------------------------------------------
  free energy    TOTEN  =       -36.68426928 eV

  energy without entropy =      -36.68426928  energy(sigma->0) =      -36.68426928


--------------------------------------------------------------------------------------------------------




----------------------------------------- Iteration    1(  21)  ---------------------------------------


    POTLOK:  cpu time   21.1358: real time   21.1184
    SETDIJ:  cpu time    0.0080: real time    0.0083
     EDDAV:  cpu time   54.5807: real time   54.5359
       DOS:  cpu time    0.0000: real time    0.0002
    --------------------------------------------
      LOOP:  cpu time   75.7255: real time   75.6663

 eigenvalue-minimisations  :    72
 total energy-change (2. order) :-0.5332309E-04  (-0.1437182E-06)
 number of electron      16.0000007 magnetization 
 augmentation part        0.4376182 magnetization 

 Free energy of the ion-electron system (eV)
  ---------------------------------------------------
  alpha Z        PSCENC =         0.04144063
  Ewald energy   TEWEN  =       674.37241158
  -Hartree energ DENC   =     -1154.82017927
  -exchange      EXHF   =         0.00000000
  -V(xc)+E(xc)   XCENC  =        54.98805069
  PAW double counting   =      1377.27382353    -1380.07626710
  entropy T*S    EENTRO =         0.00000000
  eigenvalues    EBANDS =      -204.62895080
  atomic energy  EATOM  =       596.16534815
  Solvation  Ediel_sol  =         0.00000000
  ---------------------------------------------------
  free energy    TOTEN  =       -36.68432260 eV

  energy without entropy =      -36.68432260  energy(sigma->0) =      -36.68432260


--------------------------------------------------------------------------------------------------------




 average (electrostatic) potential at core
  the test charge radii are     0.5201  0.6991  0.7089
  (the norm of the test charge is              1.0000)
       1 -43.1723       2 -43.1731       3 -43.1774       4 -60.0729       5 -60.0655
       6 -73.2202
 
 
 
 E-fermi :  -7.1151     XC(G=0):  -0.0880     alpha+bet : -0.0137


 k-point     1 :       0.2500    0.2500    0.2500
  band No.  band energies     occupation 
      1     -22.5334      2.00000
      2     -19.3885      2.00000
      3     -12.8097      2.00000
      4     -11.4897      2.00000
      5     -11.4854      2.00000
      6      -8.4976      2.00000
      7      -8.0764      2.00000
      8      -8.0337      2.00000
      9      -0.8769      0.00000
     10      -0.4720      0.00000
     11      -0.4458      0.00000
     12      -0.0085      0.00000

 k-point     2 :      -0.2500    0.2500    0.2500
  band No.  band energies     occupation 
      1     -22.5334      2.00000
      2     -19.3885      2.00000
      3     -12.8097      2.00000
      4     -11.4897      2.00000
      5     -11.4854      2.00000
      6      -8.4976      2.00000
      7      -8.0764      2.00000
      8      -8.0337      2.00000
      9      -0.8769      0.00000
     10      -0.4720      0.00000
     11      -0.4458      0.00000
     12      -0.0098      0.00000

 k-point     3 :       0.2500   -0.2500    0.2500
  band No.  band energies     occupation 
      1     -22.5334      2.00000
      2     -19.3885      2.00000
      3     -12.8097      2.00000
      4     -11.4897      2.00000
      5     -11.4854      2.00000
      6      -8.4976      2.00000
      7      -8.0764      2.00000
      8      -8.0337      2.00000
      9      -0.8769      0.00000
     10      -0.4720      0.00000
     11      -0.4458      0.00000
     12      -0.0090      0.00000

 k-point     4 :      -0.2500   -0.2500    0.2500
  band No.  band energies     occupation 
      1     -22.5334      2.00000
      2     -19.3885      2.00000
      3     -12.8097      2.00000
      4     -11.4897      2.00000
      5     -11.4854      2.00000
      6      -8.4976      2.00000
      7      -8.0764      2.00000
      8      -8.0337      2.00000
      9      -0.8769      0.00000
     10      -0.4720      0.00000
     11      -0.4458      0.00000
     12      -0.0093      0.00000


--------------------------------------------------------------------------------------------------------


 soft charge-density along one line, spin component           1
         0         1         2         3         4         5         6         7         8         9
 total charge-density along one line
 
 pseudopotential strength for first ion, spin component:           1
 -2.364  -4.078  -0.002   0.000   0.000
 -4.078  -6.948  -0.005  -0.001  -0.001
 -0.002  -0.005  -0.329   0.000   0.001
  0.000  -0.001   0.000  -0.334   0.000
  0.000  -0.001   0.001   0.000  -0.334
 total augmentation occupancy for first ion, spin component:           1
  3.483  -0.627   0.425   0.040   0.100
 -0.627   0.128  -0.078  -0.008  -0.018
  0.425  -0.078   0.053   0.004   0.010
  0.040  -0.008   0.004   0.009   0.001
  0.100  -0.018   0.010   0.001   0.010


------------------------ aborting loop because EDIFF is reached ----------------------------------------


    CHARGE:  cpu time    5.8001: real time    5.7949
    FORLOC:  cpu time    2.8066: real time    2.8036
    FORNL :  cpu time   19.2631: real time   19.2482
    STRESS:  cpu time   58.9050: real time   58.8558
    FORCOR:  cpu time   21.3248: real time   21.3071
    FORHAR:  cpu time    7.6438: real time    7.6382
    MIXING:  cpu time    1.7207: real time    1.7189
    OFIELD:  cpu time    0.0000: real time    0.0000

  FORCE on cell =-STRESS in cart. coord.  units (eV):
  Direction    XX          YY          ZZ          XY          YZ          ZX
  --------------------------------------------------------------------------------------
  Alpha Z     0.04144     0.04144     0.04144
  Ewald     580.79109    55.42152    38.15950    99.91573     3.21494    15.21699
  Hartree   577.78236   292.94907   284.09042    52.22380     1.02328     4.37637
  E(xc)     -59.03653   -60.29350   -60.34026     0.25371     0.01242     0.06651
  Local   -1302.40568  -519.93897  -494.97640  -146.19195    -3.83254   -17.35572
  n-local   -28.11113   -24.94105   -24.84328    -0.73483    -0.08987    -0.36929
  augment     0.41500     0.38769     0.39168    -0.00253    -0.00196    -0.02052
  Kinetic   229.95208   255.40323   256.55150    -5.47821    -0.34549    -2.10678
  Fock        0.00000     0.00000     0.00000     0.00000     0.00000     0.00000
  -------------------------------------------------------------------------------------
  Total      -0.57136    -0.97056    -0.92539    -0.01427    -0.01921    -0.19245
  in kB      -0.03390    -0.05759    -0.05491    -0.00085    -0.00114    -0.01142
  external pressure =       -0.05 kB  Pullay stress =        0.00 kB


 VOLUME and BASIS-vectors are now :
 -----------------------------------------------------------------------------
  energy-cutoff  :      400.00
  volume of cell :    27000.00
      direct lattice vectors                 reciprocal lattice vectors
    30.000000000  0.000000000  0.000000000     0.033333333  0.000000000  0.000000000
     0.000000000 30.000000000  0.000000000     0.000000000  0.033333333  0.000000000
     0.000000000  0.000000000 30.000000000     0.000000000  0.000000000  0.033333333

  length of vectors
    30.000000000 30.000000000 30.000000000     0.033333333  0.033333333  0.033333333


 FORCES acting on ions
    electron-ion (+dipol)            ewald-force                    non-local-force                 convergence-correction
 -----------------------------------------------------------------------------------------------
   0.247E+02 0.596E+02 0.558E+01   -.260E+02 -.651E+02 -.612E+01   0.129E+01 0.543E+01 0.513E+00   0.646E-04 0.994E-04 0.599E-05
   0.398E+02 -.288E+02 0.422E+02   -.425E+02 0.317E+02 -.462E+02   0.271E+01 -.289E+01 0.396E+01   0.856E-04 -.445E-04 0.637E-04
   0.317E+02 -.170E+02 -.540E+02   -.337E+02 0.187E+02 0.591E+02   0.176E+01 -.178E+01 -.501E+01   0.711E-04 -.286E-04 -.950E-04
   0.966E+02 0.172E+02 0.120E+01   -.101E+03 -.179E+02 -.114E+01   0.451E+01 0.770E+00 -.195E-01   0.345E-03 0.320E-04 -.274E-04
   0.631E+02 0.197E+02 0.207E+02   -.652E+02 -.203E+02 -.212E+02   0.206E+01 0.664E+00 0.720E+00   -.129E-02 -.245E-03 -.253E-04
   -.229E+03 -.448E+02 -.125E+02   0.268E+03 0.530E+02 0.156E+02   -.395E+02 -.823E+01 -.331E+01   -.304E-03 -.782E-04 -.439E-04
 -----------------------------------------------------------------------------------------------
   0.272E+02 0.604E+01 0.316E+01   -.568E-13 -.711E-14 -.107E-13   -.272E+02 -.603E+01 -.315E+01   -.103E-02 -.265E-03 -.122E-03
 
 
 POSITION                                       TOTAL-FORCE (eV/Angst)
 -----------------------------------------------------------------------------------
     14.27304     13.84481     14.88315         0.029152      0.004986     -0.029574
     13.99378     15.47995     14.20572         0.028709     -0.018041     -0.019762
     14.17452     15.25981     15.96944        -0.176338     -0.026265      0.012291
     14.51821     14.91096     14.98593        -0.004252      0.017057      0.042986
     15.95062     15.13623     14.93560         0.010178      0.075107      0.170117
     17.09013     15.36881     15.02016         0.112549     -0.052844     -0.176058
 -----------------------------------------------------------------------------------
    total drift:                               -0.003823      0.003652      0.005141


--------------------------------------------------------------------------------------------------------



  FREE ENERGIE OF THE ION-ELECTRON SYSTEM (eV)
  ---------------------------------------------------
  free  energy   TOTEN  =       -36.68432260 eV

  energy  without entropy=      -36.68432260  energy(sigma->0) =      -36.68432260
 


--------------------------------------------------------------------------------------------------------


    POTLOK:  cpu time   18.7741: real time   18.7597


--------------------------------------------------------------------------------------------------------


 NEB: the previous image is higher in energy: T
 NEB: the next image is higher in energy    : F
 NEB: only prev energy greater

 NEB: Tangent
 ----------------------------------------------
      0.10180      0.02221     -0.08068
      0.10230     -0.04703     -0.04814
     -0.52426     -0.07581      0.04438
     -0.01170      0.05308      0.13547
     -0.00408      0.20083      0.46732
      0.33594     -0.15327     -0.51835

 NEB: forces: par spring, perp REAL, dneb     0.000762    0.020301    0.000000
 NEB: distance to prev, next image, angle between     0.358916    0.359068  111.766936
 NEB: projections on to tangent (spring, REAL)     0.000762    0.343673

 stress matrix after NEB project (eV)
     -0.57136     -0.01427     -0.19245
     -0.01427     -0.97056     -0.01921
     -0.19245     -0.01921     -0.92539
  FORCES: max atom, RMS     0.016444    0.008294
  FORCE total and by dimension    0.020316    0.011579
  Stress total and by dimension    1.483243    0.970564
 
 OPT: Flag T
 OPT: FIRE Step
 OPT: FIRE, TIMESTEP      0.10000
 OPT: FIRE, alpha         0.10000


--------------------------------------------------------------------------------------------------------


    WAVPRE:  cpu time    8.6547: real time    8.6481
 FEWALD executed in parallel
    FEWALD:  cpu time    0.0010: real time    0.0003
    ORTHCH:  cpu time    7.0149: real time    7.0099
     LOOP+:  cpu time 2410.1336: real time 2408.4606


----------------------------------------- Iteration    2(   1)  ---------------------------------------


    POTLOK:  cpu time   24.9172: real time   24.8975
    SETDIJ:  cpu time    0.0090: real time    0.0085
     EDDAV:  cpu time   63.7973: real time   63.7464
       DOS:  cpu time    0.0000: real time    0.0002
    CHARGE:  cpu time    6.2620: real time    6.2571
    MIXING:  cpu time    0.6309: real time    0.6302
    --------------------------------------------
      LOOP:  cpu time   95.6195: real time   95.5427

 eigenvalue-minimisations  :    88
 total energy-change (2. order) :-0.8445034E-04  (-0.8599439E-05)
 number of electron      16.0000007 magnetization 
 augmentation part        0.4376754 magnetization 

 Broyden mixing:
  rms(total) = 0.37174E-03    rms(broyden)= 0.37122E-03
  rms(prec ) = 0.38244E-03
  weight for this iteration     100.00

 Free energy of the ion-electron system (eV)
  ---------------------------------------------------
  alpha Z        PSCENC =         0.04144063
  Ewald energy   TEWEN  =       674.38584427
  -Hartree energ DENC   =     -1154.82658889
  -exchange      EXHF   =         0.00000000
  -V(xc)+E(xc)   XCENC  =        54.98828203
  PAW double counting   =      1377.25862934    -1380.06107709
  entropy T*S    EENTRO =         0.00000000
  eigenvalues    EBANDS =      -204.63623216
  atomic energy  EATOM  =       596.16534815
  Solvation  Ediel_sol  =         0.00000000
  ---------------------------------------------------
  free energy    TOTEN  =       -36.68435373 eV

  energy without entropy =      -36.68435373  energy(sigma->0) =      -36.68435373


--------------------------------------------------------------------------------------------------------




----------------------------------------- Iteration    2(   2)  ---------------------------------------


    POTLOK:  cpu time   22.4366: real time   22.4194
    SETDIJ:  cpu time    0.0090: real time    0.0088
     EDDAV:  cpu time   69.7734: real time   69.7154
       DOS:  cpu time    0.0000: real time    0.0002
    CHARGE:  cpu time    6.4310: real time    6.4254
    MIXING:  cpu time    0.6549: real time    0.6556
    --------------------------------------------
      LOOP:  cpu time   99.3059: real time   99.2281

 eigenvalue-minimisations  :    96
 total energy-change (2. order) :-0.6005899E-05  (-0.3914205E-06)
 number of electron      16.0000007 magnetization 
 augmentation part        0.4376676 magnetization 

 Broyden mixing:
  rms(total) = 0.20297E-03    rms(broyden)= 0.20260E-03
  rms(prec ) = 0.20858E-03
  weight for this iteration     100.00

 eigenvalues of (default mixing * dielectric matrix)
  average eigenvalue GAMMA=   1.2015
  1.2015

 Free energy of the ion-electron system (eV)
  ---------------------------------------------------
  alpha Z        PSCENC =         0.04144063
  Ewald energy   TEWEN  =       674.38584427
  -Hartree energ DENC   =     -1154.82955810
  -exchange      EXHF   =         0.00000000
  -V(xc)+E(xc)   XCENC  =        54.98849430
  PAW double counting   =      1377.35500671    -1380.15752047
  entropy T*S    EENTRO =         0.00000000
  eigenvalues    EBANDS =      -204.63341522
  atomic energy  EATOM  =       596.16534815
  Solvation  Ediel_sol  =         0.00000000
  ---------------------------------------------------
  free energy    TOTEN  =       -36.68435973 eV

  energy without entropy =      -36.68435973  energy(sigma->0) =      -36.68435973


--------------------------------------------------------------------------------------------------------




----------------------------------------- Iteration    2(   3)  ---------------------------------------


    POTLOK:  cpu time   21.6337: real time   21.6160
[...]
  Solvation  Ediel_sol  =         0.00000000
  ---------------------------------------------------
  free energy    TOTEN  =       -36.69700603 eV

  energy without entropy =      -36.69700603  energy(sigma->0) =      -36.69700603


--------------------------------------------------------------------------------------------------------




----------------------------------------- Iteration  135(   2)  ---------------------------------------


    POTLOK:  cpu time   27.4928: real time   27.4737
    SETDIJ:  cpu time    0.0090: real time    0.0087
     EDDAV:  cpu time   46.1040: real time   46.0712
       DOS:  cpu time    0.0000: real time    0.0002
    CHARGE:  cpu time    6.3800: real time    6.3770
    MIXING:  cpu time    0.7249: real time    0.7247
    --------------------------------------------
      LOOP:  cpu time   80.7137: real time   80.6588

 eigenvalue-minimisations  :    48
 total energy-change (2. order) :-0.5250865E-07  (-0.2854318E-06)
 number of electron      16.0000006 magnetization 
 augmentation part        0.4373836 magnetization 

 Broyden mixing:
  rms(total) = 0.22489E-03    rms(broyden)= 0.22468E-03
  rms(prec ) = 0.22892E-03
  weight for this iteration     100.00

 eigenvalues of (default mixing * dielectric matrix)
  average eigenvalue GAMMA=   1.4809
  1.4809

 Free energy of the ion-electron system (eV)
  ---------------------------------------------------
  alpha Z        PSCENC =         0.04144063
  Ewald energy   TEWEN  =       673.69895955
  -Hartree energ DENC   =     -1154.16412260
  -exchange      EXHF   =         0.00000000
  -V(xc)+E(xc)   XCENC  =        54.97909168
  PAW double counting   =      1375.69674072    -1378.49818208
  entropy T*S    EENTRO =         0.00000000
  eigenvalues    EBANDS =      -204.61628213
  atomic energy  EATOM  =       596.16534815
  Solvation  Ediel_sol  =         0.00000000
  ---------------------------------------------------
  free energy    TOTEN  =       -36.69700608 eV

  energy without entropy =      -36.69700608  energy(sigma->0) =      -36.69700608


--------------------------------------------------------------------------------------------------------




----------------------------------------- Iteration  135(   3)  ---------------------------------------


    POTLOK:  cpu time   26.2440: real time   26.2260
    SETDIJ:  cpu time    0.0080: real time    0.0084
     EDDAV:  cpu time   45.9100: real time   45.8771
       DOS:  cpu time    0.0000: real time    0.0002
    CHARGE:  cpu time    6.4170: real time    6.4118
    MIXING:  cpu time    0.7739: real time    0.7732
    --------------------------------------------
      LOOP:  cpu time   79.3549: real time   79.3005

 eigenvalue-minimisations  :    48
 total energy-change (2. order) :-0.4544938E-07  (-0.4256797E-07)
 number of electron      16.0000006 magnetization 
 augmentation part        0.4373838 magnetization 

 Broyden mixing:
  rms(total) = 0.91473E-04    rms(broyden)= 0.91419E-04
  rms(prec ) = 0.92664E-04
  weight for this iteration     100.00

 eigenvalues of (default mixing * dielectric matrix)
  average eigenvalue GAMMA=   1.6381
  1.0238  2.2523

 Free energy of the ion-electron system (eV)
  ---------------------------------------------------
  alpha Z        PSCENC =         0.04144063
  Ewald energy   TEWEN  =       673.69895955
  -Hartree energ DENC   =     -1154.16528177
  -exchange      EXHF   =         0.00000000
  -V(xc)+E(xc)   XCENC  =        54.97915269
  PAW double counting   =      1375.73175017    -1378.53321908
  entropy T*S    EENTRO =         0.00000000
  eigenvalues    EBANDS =      -204.61515646
  atomic energy  EATOM  =       596.16534815
  Solvation  Ediel_sol  =         0.00000000
  ---------------------------------------------------
  free energy    TOTEN  =       -36.69700613 eV

  energy without entropy =      -36.69700613  energy(sigma->0) =      -36.69700613


--------------------------------------------------------------------------------------------------------




----------------------------------------- Iteration  135(   4)  ---------------------------------------


    POTLOK:  cpu time   27.0699: real time   27.0508
    SETDIJ:  cpu time    0.0080: real time    0.0086
     EDDAV:  cpu time   46.8469: real time   46.8136
       DOS:  cpu time    0.0000: real time    0.0002
    CHARGE:  cpu time    6.2461: real time    6.2417
    MIXING:  cpu time    0.8579: real time    0.8568
    --------------------------------------------
      LOOP:  cpu time   81.0297: real time   80.9761

 eigenvalue-minimisations  :    48
 total energy-change (2. order) :-0.3392006E-07  (-0.1424435E-07)
 number of electron      16.0000006 magnetization 
 augmentation part        0.4373830 magnetization 

 Broyden mixing:
  rms(total) = 0.30012E-04    rms(broyden)= 0.29976E-04
  rms(prec ) = 0.30528E-04
  weight for this iteration     100.00

 eigenvalues of (default mixing * dielectric matrix)
  average eigenvalue GAMMA=   1.6567
  1.0175  2.1641  1.7885

 Free energy of the ion-electron system (eV)
  ---------------------------------------------------
  alpha Z        PSCENC =         0.04144063
  Ewald energy   TEWEN  =       673.69895955
  -Hartree energ DENC   =     -1154.16584064
  -exchange      EXHF   =         0.00000000
  -V(xc)+E(xc)   XCENC  =        54.97918223
  PAW double counting   =      1375.75500257    -1378.55648777
  entropy T*S    EENTRO =         0.00000000
  eigenvalues    EBANDS =      -204.61461088
  atomic energy  EATOM  =       596.16534815
  Solvation  Ediel_sol  =         0.00000000
  ---------------------------------------------------
  free energy    TOTEN  =       -36.69700616 eV

  energy without entropy =      -36.69700616  energy(sigma->0) =      -36.69700616


--------------------------------------------------------------------------------------------------------




----------------------------------------- Iteration  135(   5)  ---------------------------------------


    POTLOK:  cpu time   28.9626: real time   28.9427
    SETDIJ:  cpu time    0.0090: real time    0.0087
     EDDAV:  cpu time   46.0030: real time   45.9709
       DOS:  cpu time    0.0000: real time    0.0002
    CHARGE:  cpu time    6.3920: real time    6.3879
    MIXING:  cpu time    0.9639: real time    0.9644
    --------------------------------------------
      LOOP:  cpu time   82.3335: real time   82.2781

 eigenvalue-minimisations  :    48
 total energy-change (2. order) :-0.5202992E-08  (-0.4567810E-08)
 number of electron      16.0000006 magnetization 
 augmentation part        0.4373829 magnetization 

 Broyden mixing:
  rms(total) = 0.11333E-04    rms(broyden)= 0.11329E-04
  rms(prec ) = 0.11653E-04
  weight for this iteration     100.00

 eigenvalues of (default mixing * dielectric matrix)
  average eigenvalue GAMMA=   1.6843
  2.5617  0.9452  1.2131  2.0172

 Free energy of the ion-electron system (eV)
  ---------------------------------------------------
  alpha Z        PSCENC =         0.04144063
  Ewald energy   TEWEN  =       673.69895955
  -Hartree energ DENC   =     -1154.16561643
  -exchange      EXHF   =         0.00000000
  -V(xc)+E(xc)   XCENC  =        54.97916874
  PAW double counting   =      1375.75990363    -1378.56138830
  entropy T*S    EENTRO =         0.00000000
  eigenvalues    EBANDS =      -204.61482213
  atomic energy  EATOM  =       596.16534815
  Solvation  Ediel_sol  =         0.00000000
  ---------------------------------------------------
  free energy    TOTEN  =       -36.69700617 eV

  energy without entropy =      -36.69700617  energy(sigma->0) =      -36.69700617


--------------------------------------------------------------------------------------------------------




----------------------------------------- Iteration  135(   6)  ---------------------------------------


    POTLOK:  cpu time   26.5650: real time   26.5465
    SETDIJ:  cpu time    0.0080: real time    0.0086
     EDDAV:  cpu time   44.3673: real time   44.3348
       DOS:  cpu time    0.0000: real time    0.0002
    --------------------------------------------
      LOOP:  cpu time   70.9422: real time   70.8938

 eigenvalue-minimisations  :    48
 total energy-change (2. order) :-0.7704898E-08  (-0.2564199E-08)
 number of electron      16.0000006 magnetization 
 augmentation part        0.4373829 magnetization 

 Free energy of the ion-electron system (eV)
  ---------------------------------------------------
  alpha Z        PSCENC =         0.04144063
  Ewald energy   TEWEN  =       673.69895955
  -Hartree energ DENC   =     -1154.16556016
  -exchange      EXHF   =         0.00000000
  -V(xc)+E(xc)   XCENC  =        54.97916453
  PAW double counting   =      1375.76111714    -1378.56260235
  entropy T*S    EENTRO =         0.00000000
  eigenvalues    EBANDS =      -204.61487368
  atomic energy  EATOM  =       596.16534815
  Solvation  Ediel_sol  =         0.00000000
  ---------------------------------------------------
  free energy    TOTEN  =       -36.69700618 eV

  energy without entropy =      -36.69700618  energy(sigma->0) =      -36.69700618


--------------------------------------------------------------------------------------------------------




 average (electrostatic) potential at core
  the test charge radii are     0.5201  0.6991  0.7089
  (the norm of the test charge is              1.0000)
       1 -43.1707       2 -43.1714       3 -43.1748       4 -60.0761       5 -60.0687
       6 -73.2218
 
 
 
 E-fermi :  -7.0937     XC(G=0):  -0.0600     alpha+bet : -0.0137


 k-point     1 :       0.2500    0.2500    0.2500
  band No.  band energies     occupation 
      1     -22.5286      2.00000
      2     -19.3847      2.00000
      3     -12.8213      2.00000
      4     -11.4832      2.00000
      5     -11.4751      2.00000
      6      -8.4937      2.00000
      7      -8.0722      2.00000
      8      -8.0486      2.00000
      9      -0.8503      0.00000
     10      -0.4734      0.00000
     11      -0.4535      0.00000
     12       0.0216      0.00000

 k-point     2 :      -0.2500    0.2500    0.2500
  band No.  band energies     occupation 
      1     -22.5286      2.00000
      2     -19.3847      2.00000
      3     -12.8213      2.00000
      4     -11.4832      2.00000
      5     -11.4751      2.00000
      6      -8.4937      2.00000
      7      -8.0722      2.00000
      8      -8.0486      2.00000
      9      -0.8503      0.00000
     10      -0.4734      0.00000
     11      -0.4535      0.00000
     12       0.0206      0.00000

 k-point     3 :       0.2500   -0.2500    0.2500
  band No.  band energies     occupation 
      1     -22.5286      2.00000
      2     -19.3847      2.00000
      3     -12.8213      2.00000
      4     -11.4832      2.00000
      5     -11.4751      2.00000
      6      -8.4937      2.00000
      7      -8.0723      2.00000
      8      -8.0486      2.00000
      9      -0.8503      0.00000
     10      -0.4734      0.00000
     11      -0.4535      0.00000
     12       0.0211      0.00000

 k-point     4 :      -0.2500   -0.2500    0.2500
  band No.  band energies     occupation 
      1     -22.5286      2.00000
      2     -19.3847      2.00000
      3     -12.8213      2.00000
      4     -11.4832      2.00000
      5     -11.4751      2.00000
      6      -8.4937      2.00000
      7      -8.0722      2.00000
      8      -8.0486      2.00000
      9      -0.8503      0.00000
     10      -0.4734      0.00000
     11      -0.4535      0.00000
     12       0.0209      0.00000


--------------------------------------------------------------------------------------------------------


 soft charge-density along one line, spin component           1
         0         1         2         3         4         5         6         7         8         9
 total charge-density along one line
 
 pseudopotential strength for first ion, spin component:           1
 -2.364  -4.078  -0.002   0.000   0.000
 -4.078  -6.948  -0.005  -0.001  -0.001
 -0.002  -0.005  -0.329   0.001   0.001
  0.000  -0.001   0.001  -0.334   0.000
  0.000  -0.001   0.001   0.000  -0.334
 total augmentation occupancy for first ion, spin component:           1
  3.481  -0.627   0.425   0.046   0.095
 -0.627   0.128  -0.078  -0.008  -0.017
  0.425  -0.078   0.053   0.005   0.010
  0.046  -0.008   0.005   0.009   0.001
  0.095  -0.017   0.010   0.001   0.010


------------------------ aborting loop because EDIFF is reached ----------------------------------------


    CHARGE:  cpu time    5.9711: real time    5.9666
    FORLOC:  cpu time    2.8436: real time    2.8420
    FORNL :  cpu time   19.1151: real time   19.1005
    STRESS:  cpu time   59.1770: real time   59.1334
    FORCOR:  cpu time   24.7572: real time   24.7391
    FORHAR:  cpu time    8.2837: real time    8.2773
    MIXING:  cpu time    0.8139: real time    0.8130
    OFIELD:  cpu time    0.0000: real time    0.0000

  FORCE on cell =-STRESS in cart. coord.  units (eV):
  Direction    XX          YY          ZZ          XY          YZ          ZX
  --------------------------------------------------------------------------------------
  Alpha Z     0.04144     0.04144     0.04144
  Ewald     582.72403    53.89810    37.07653    96.85493     1.44808     7.01834
  Hartree   578.31915   292.30390   283.54258    51.18092     0.36788     1.41815
  E(xc)     -59.01929   -60.29024   -60.33401     0.24183     0.00638     0.03572
  Local   -1304.59623  -517.97391  -493.45023  -142.47109    -1.60590    -7.18617
  n-local   -28.13023   -24.91979   -24.82241    -0.66497    -0.05153    -0.20957
  augment     0.41092     0.39068     0.39249    -0.00027    -0.00062    -0.01232
  Kinetic   229.50688   255.58711   256.62710    -5.15891    -0.17766    -1.19994
  Fock        0.00000     0.00000     0.00000     0.00000     0.00000     0.00000
  -------------------------------------------------------------------------------------
  Total      -0.74334    -0.96272    -0.92650    -0.01757    -0.01337    -0.13579
  in kB      -0.04411    -0.05713    -0.05498    -0.00104    -0.00079    -0.00806
  external pressure =       -0.05 kB  Pullay stress =        0.00 kB


 VOLUME and BASIS-vectors are now :
 -----------------------------------------------------------------------------
  energy-cutoff  :      400.00
  volume of cell :    27000.00
      direct lattice vectors                 reciprocal lattice vectors
    30.000000000  0.000000000  0.000000000     0.033333333  0.000000000  0.000000000
     0.000000000 30.000000000  0.000000000     0.000000000  0.033333333  0.000000000
     0.000000000  0.000000000 30.000000000     0.000000000  0.000000000  0.033333333

  length of vectors
    30.000000000 30.000000000 30.000000000     0.033333333  0.033333333  0.033333333


 FORCES acting on ions
    electron-ion (+dipol)            ewald-force                    non-local-force                 convergence-correction
 -----------------------------------------------------------------------------------------------
   0.241E+02 0.598E+02 0.623E+01   -.253E+02 -.652E+02 -.683E+01   0.122E+01 0.543E+01 0.582E+00   0.587E-05 0.181E-05 0.159E-05
   0.393E+02 -.285E+02 0.428E+02   -.420E+02 0.314E+02 -.468E+02   0.266E+01 -.286E+01 0.401E+01   0.176E-06 -.141E-04 0.533E-05
   0.330E+02 -.164E+02 -.534E+02   -.350E+02 0.181E+02 0.584E+02   0.193E+01 -.172E+01 -.497E+01   -.129E-06 -.127E-04 -.511E-05
   0.960E+02 0.168E+02 0.458E+00   -.100E+03 -.175E+02 -.407E+00   0.447E+01 0.766E+00 -.183E-01   -.157E-04 -.619E-04 0.509E-05
   0.644E+02 0.161E+02 0.123E+02   -.664E+02 -.166E+02 -.126E+02   0.207E+01 0.530E+00 0.423E+00   -.183E-04 -.104E-03 -.297E-06
   -.229E+03 -.423E+02 -.657E+01   0.269E+03 0.499E+02 0.830E+01   -.398E+02 -.761E+01 -.183E+01   0.759E-04 -.180E-03 -.115E-05
 -----------------------------------------------------------------------------------------------
   0.274E+02 0.546E+01 0.180E+01   0.000E+00 0.142E-13 0.711E-14   -.274E+02 -.546E+01 -.179E+01   0.478E-04 -.371E-03 0.545E-05
 
 
 POSITION                                       TOTAL-FORCE (eV/Angst)
 -----------------------------------------------------------------------------------
     14.28716     13.84578     14.87751         0.027537      0.005853     -0.015194
     14.00468     15.47790     14.20179         0.029586     -0.007963     -0.009411
     14.14223     15.25272     15.96829        -0.114232     -0.017133      0.008594
     14.51856     14.91404     14.99311        -0.000052      0.011951      0.031226
     15.95133     15.14678     14.95649        -0.006497      0.036338      0.090059
     17.09635     15.36335     15.00281         0.063658     -0.029046     -0.105274
 -----------------------------------------------------------------------------------
    total drift:                               -0.005393      0.003662      0.004966


--------------------------------------------------------------------------------------------------------



  FREE ENERGIE OF THE ION-ELECTRON SYSTEM (eV)
  ---------------------------------------------------
  free  energy   TOTEN  =       -36.69700618 eV

  energy  without entropy=      -36.69700618  energy(sigma->0) =      -36.69700618
 
 d Force = 0.5155224E-04[ 0.510E-04, 0.521E-04]  d Energy = 0.5157398E-04-0.217E-07
 d Force =-0.7654919E-02[-0.765E-02,-0.766E-02]  d Ewald  =-0.7654919E-02-0.392E-10


--------------------------------------------------------------------------------------------------------


    POTLOK:  cpu time   22.3456: real time   22.3292


--------------------------------------------------------------------------------------------------------


 NEB: the previous image is higher in energy: T
 NEB: the next image is higher in energy    : F
 NEB: only prev energy greater

 NEB: Tangent
 ----------------------------------------------
      0.13168      0.03073     -0.07106
      0.14511     -0.03747     -0.04592
     -0.55922     -0.07899      0.04262
     -0.00506      0.05990      0.15433
      0.00513      0.18223      0.44130
      0.28236     -0.15641     -0.52126

 NEB: forces: par spring, perp REAL, dneb     0.001407    0.010315    0.000000
 NEB: distance to prev, next image, angle between     0.348296    0.348578  100.328259
 NEB: projections on to tangent (spring, REAL)     0.001407    0.204769

 stress matrix after NEB project (eV)
     -0.74334     -0.01757     -0.13579
     -0.01757     -0.96272     -0.01337
     -0.13579     -0.01337     -0.92650
  FORCES: max atom, RMS     0.007581    0.004250
  FORCE total and by dimension    0.010410    0.007540
  Stress total and by dimension    1.541311    0.962719
 OPT: skip step - force has converged


--------------------------------------------------------------------------------------------------------


  
 reached required accuracy - stopping structural energy minimisation
     LOOP+:  cpu time  683.0532: real time  682.5938
    4ORBIT:  cpu time    0.0000: real time    0.0000

 total amount of memory used by VASP on root node  3203886. kBytes
========================================================================

   base      :      30000. kBytes
   nonlr-proj:        690. kBytes
   fftplans  :     924480. kBytes
   grid      :    1872000. kBytes
   one-center:         18. kBytes
   wavefun   :     376698. kBytes
 
  
  
 General timing and accounting informations for this job:
 ========================================================
  
                  Total CPU time used (sec):    97143.242
                            User time (sec):    95618.789
                          System time (sec):     1524.450
                         Elapsed time (sec):    97129.055
  
                   Maximum memory used (kb):     4764260.
                   Average memory used (kb):           0.
  
                          Minor page faults:    114838607
                          Major page faults:            7
                 Voluntary context switches:        16021
