unknown system                          
           1
    30.000000    0.000000    0.000000
     0.000000   30.000000    0.000000
     0.000000    0.000000   30.000000
   H    C    N 
   3   2   1
Direct configuration=     1
   0.47576614  0.46149286  0.49610425
   0.46645716  0.51599766  0.47352306
   0.47248515  0.50866024  0.53231374
   0.48394020  0.49703168  0.49952973
   0.53169120  0.50454312  0.49785652
   0.56967017  0.51229357  0.50067261
Direct configuration=     2
   0.47576263  0.46149138  0.49610302
   0.46645328  0.51599635  0.47352106
   0.47248720  0.50866006  0.53231186
   0.48394107  0.49703112  0.49952752
   0.53169097  0.50454554  0.49786218
   0.56967486  0.51229469  0.50067427
Direct configuration=     3
   0.47575843  0.46148995  0.49610096
   0.46644865  0.51599400  0.47351836
   0.47248773  0.50865946  0.53230926
   0.48394188  0.49703047  0.49952499
   0.53169268  0.50454994  0.49787148
   0.56968065  0.51229532  0.50067486
Direct configuration=     4
   0.47575482  0.46148924  0.49609798
   0.46644462  0.51599050  0.47351528
   0.47248420  0.50865813  0.53230628
   0.48394221  0.49703009  0.49952317
   0.53169891  0.50455693  0.49788473
   0.56968526  0.51229424  0.50067247
Direct configuration=     5
   0.47575296  0.46148968  0.49609412
   0.46644238  0.51598591  0.47351207
   0.47247507  0.50865594  0.53230316
   0.48394342  0.49703061  0.49952296
   0.53170074  0.50456448  0.49790072
   0.56969544  0.51229250  0.50066689
Direct configuration=     6
   0.47575409  0.46149151  0.49608933
   0.46644310  0.51598039  0.47350877
   0.47245794  0.50865264  0.53230032
   0.48394491  0.49703240  0.49952545
   0.53170444  0.50457390  0.49791993
   0.56970554  0.51228826  0.50065611
Direct configuration=     7
   0.47576003  0.46149524  0.49608308
   0.46644841  0.51597365  0.47350503
   0.47242830  0.50864770  0.53229798
   0.48394692  0.49703619  0.49953202
   0.53171137  0.50458623  0.49794435
   0.56971499  0.51228010  0.50063747
Direct configuration=     8
   0.47577296  0.46150101  0.49607600
   0.46646029  0.51596655  0.47350112
   0.47238556  0.50864126  0.53229665
   0.48395105  0.49704240  0.49954314
   0.53170855  0.50459780  0.49797009
   0.56973161  0.51227007  0.50061292
Direct configuration=     9
   0.47579410  0.46150850  0.49606880
   0.46647965  0.51596053  0.47349697
   0.47233024  0.50863382  0.53229674
   0.48395193  0.49704945  0.49955908
   0.53172667  0.50461346  0.49799673
   0.56972743  0.51225332  0.50058161
Direct configuration=    10
   0.47579522  0.46150831  0.49606931
   0.46648060  0.51596127  0.47349710
   0.47233103  0.50863413  0.53229688
   0.48395337  0.49704972  0.49955886
   0.53171225  0.50460957  0.49799368
   0.56973757  0.51225607  0.50058410
Direct configuration=    11
   0.47579551  0.46150827  0.49606939
   0.46648085  0.51596142  0.47349710
   0.47233091  0.50863416  0.53229693
   0.48395323  0.49704973  0.49955889
   0.53171244  0.50460947  0.49799343
   0.56973708  0.51225602  0.50058419
Direct configuration=    12
   0.47579611  0.46150821  0.49606955
   0.46648136  0.51596171  0.47349709
   0.47233068  0.50863422  0.53229704
   0.48395297  0.49704975  0.49955895
   0.53171272  0.50460924  0.49799290
   0.56973619  0.51225594  0.50058439
Direct configuration=    13
   0.47579699  0.46150810  0.49606979
   0.46648212  0.51596216  0.47349709
   0.47233036  0.50863432  0.53229720
   0.48395261  0.49704978  0.49955904
   0.53171291  0.50460885  0.49799209
   0.56973503  0.51225586  0.50058473
Direct configuration=    14
   0.47579814  0.46150795  0.49607011
   0.46648310  0.51596277  0.47349708
   0.47233000  0.50863445  0.53229739
   0.48395220  0.49704981  0.49955914
   0.53171280  0.50460827  0.49799097
   0.56973379  0.51225583  0.50058524
Direct configuration=    15
   0.47579953  0.46150775  0.49607050
   0.46648428  0.51596352  0.47349705
   0.47232962  0.50863462  0.53229762
   0.48395175  0.49704985  0.49955925
   0.53171223  0.50460746  0.49798957
   0.56973262  0.51225588  0.50058594
Direct configuration=    16
   0.47580112  0.46150749  0.49607097
   0.46648561  0.51596441  0.47349699
   0.47232926  0.50863483  0.53229786
   0.48395130  0.49704988  0.49955936
   0.53171120  0.50460645  0.49798792
   0.56973155  0.51225601  0.50058683
Direct configuration=    17
   0.47580310  0.46150713  0.49607156
   0.46648724  0.51596555  0.47349688
   0.47232888  0.50863510  0.53229814
   0.48395076  0.49704990  0.49955947
   0.53170962  0.50460515  0.49798587
   0.56973043  0.51225623  0.50058801
Direct configuration=    18
   0.47580555  0.46150661  0.49607229
   0.46648924  0.51596702  0.47349667
   0.47232846  0.50863543  0.53229844
   0.48395009  0.49704989  0.49955959
   0.53170772  0.50460364  0.49798344
   0.56972897  0.51225648  0.50058950
Direct configuration=    19
   0.47580852  0.46150586  0.49607315
   0.46649160  0.51596885  0.47349630
   0.47232793  0.50863581  0.53229875
   0.48394917  0.49704980  0.49955970
   0.53170603  0.50460211  0.49798082
   0.56972678  0.51225662  0.50059121
Direct configuration=    20
   0.47581196  0.46150481  0.49607410
   0.46649427  0.51597102  0.47349568
   0.47232722  0.50863622  0.53229900
   0.48394795  0.49704962  0.49955977
   0.53170485  0.50460082  0.49797841
   0.56972378  0.51225656  0.50059298
Direct configuration=    21
   0.47581581  0.46150335  0.49607502
   0.46649714  0.51597349  0.47349465
   0.47232621  0.50863660  0.53229907
   0.48394650  0.49704935  0.49955970
   0.53170351  0.50459997  0.49797687
   0.56972087  0.51225631  0.50059463
Direct configuration=    22
   0.47581583  0.46150330  0.49607499
   0.46649714  0.51597350  0.47349460
   0.47232615  0.50863659  0.53229904
   0.48394649  0.49704934  0.49955967
   0.53170340  0.50460004  0.49797705
   0.56972102  0.51225629  0.50059458
Direct configuration=    23
   0.47581588  0.46150321  0.49607493
   0.46649715  0.51597351  0.47349448
   0.47232595  0.50863654  0.53229897
   0.48394648  0.49704934  0.49955965
   0.53170321  0.50460023  0.49797751
   0.56972137  0.51225624  0.50059440
Direct configuration=    24
   0.47581598  0.46150307  0.49607480
   0.46649718  0.51597349  0.47349427
   0.47232550  0.50863645  0.53229888
   0.48394644  0.49704934  0.49955963
   0.53170297  0.50460059  0.49797838
   0.56972196  0.51225610  0.50059397
Direct configuration=    25
   0.47581615  0.46150291  0.49607457
   0.46649725  0.51597344  0.47349397
   0.47232464  0.50863629  0.53229876
   0.48394638  0.49704937  0.49955967
   0.53170275  0.50460122  0.49797980
   0.56972285  0.51225583  0.50059315
Direct configuration=    26
   0.47581643  0.46150272  0.49607420
   0.46649741  0.51597332  0.47349355
   0.47232316  0.50863601  0.53229864
   0.48394628  0.49704944  0.49955982
   0.53170264  0.50460220  0.49798196
   0.56972411  0.51225536  0.50059175
Direct configuration=    27
   0.47581688  0.46150255  0.49607366
   0.46649770  0.51597310  0.47349299
   0.47232079  0.50863560  0.53229854
   0.48394616  0.49704959  0.49956015
   0.53170270  0.50460361  0.49798505
   0.56972582  0.51225461  0.50058953
Direct configuration=    28
   0.47581757  0.46150236  0.49607285
   0.46649819  0.51597273  0.47349222
   0.47231708  0.50863496  0.53229844
   0.48394598  0.49704985  0.49956075
   0.53170305  0.50460572  0.49798956
   0.56972815  0.51225343  0.50058610
Direct configuration=    29
   0.47581860  0.46150219  0.49607170
   0.46649896  0.51597218  0.47349118
   0.47231170  0.50863404  0.53229835
   0.48394574  0.49705027  0.49956171
   0.53170389  0.50460869  0.49799584
   0.56973114  0.51225169  0.50058115
Direct configuration=    30
   0.47582008  0.46150206  0.49607013
   0.46650011  0.51597141  0.47348982
   0.47230418  0.50863276  0.53229824
   0.48394546  0.49705089  0.49956315
   0.53170534  0.50461270  0.49800427
   0.56973485  0.51224924  0.50057432
Direct configuration=    31
   0.47582217  0.46150201  0.49606806
   0.46650180  0.51597036  0.47348810
   0.47229400  0.50863102  0.53229809
   0.48394521  0.49705181  0.49956524
   0.53170743  0.50461791  0.49801522
   0.56973943  0.51224595  0.50056521
Direct configuration=    32
   0.47582511  0.46150214  0.49606540
   0.46650423  0.51596896  0.47348598
   0.47228048  0.50862871  0.53229788
   0.48394512  0.49705315  0.49956821
   0.53170989  0.50462441  0.49802903
   0.56974520  0.51224169  0.50055343
Direct configuration=    33
   0.47582923  0.46150260  0.49606207
   0.46650776  0.51596714  0.47348346
   0.47226287  0.50862568  0.53229756
   0.48394538  0.49705507  0.49957235
   0.53171226  0.50463222  0.49804591
   0.56975254  0.51223635  0.50053859
Direct configuration=    34
   0.47583502  0.46150356  0.49605798
   0.46651285  0.51596479  0.47348058
   0.47224027  0.50862172  0.53229708
   0.48394609  0.49705785  0.49957804
   0.53171431  0.50464140  0.49806596
   0.56976151  0.51222974  0.50052030
Direct configuration=    35
   0.47584316  0.46150540  0.49605312
   0.46652020  0.51596183  0.47347745
   0.47221158  0.50861666  0.53229646
   0.48394730  0.49706166  0.49958567
   0.53171639  0.50465195  0.49808901
   0.56977139  0.51222156  0.50049822
Direct configuration=    36
   0.47585457  0.46150857  0.49604755
   0.46653073  0.51595827  0.47347430
   0.47217566  0.50861035  0.53229583
   0.48394898  0.49706655  0.49959552
   0.53171910  0.50466375  0.49811451
   0.56978099  0.51221155  0.50047222
Direct configuration=    37
   0.47587047  0.46151356  0.49604145
   0.46654559  0.51595429  0.47347134
   0.47213191  0.50860276  0.53229530
   0.48395101  0.49707255  0.49960767
   0.53172108  0.50467598  0.49814116
   0.56978997  0.51219990  0.50044303
Direct configuration=    38
   0.47589209  0.46152044  0.49603523
   0.46656580  0.51595049  0.47346866
   0.47208073  0.50859406  0.53229504
   0.48395308  0.49707963  0.49962190
   0.53172004  0.50468706  0.49816640
   0.56979830  0.51218737  0.50041271
Direct configuration=    39
   0.47591986  0.46152802  0.49602957
   0.46659140  0.51594825  0.47346581
   0.47202458  0.50858478  0.53229531
   0.48395387  0.49708711  0.49963732
   0.53171919  0.50469646  0.49818731
   0.56980113  0.51217440  0.50038462
Direct configuration=    40
   0.47592020  0.46152783  0.49602969
   0.46659163  0.51594855  0.47346570
   0.47202476  0.50858484  0.53229535
   0.48395379  0.49708707  0.49963724
   0.53171860  0.50469609  0.49818664
   0.56980105  0.51217465  0.50038533
Direct configuration=    41
   0.47592089  0.46152744  0.49602992
   0.46659209  0.51594914  0.47346548
   0.47202508  0.50858496  0.53229542
   0.48395359  0.49708698  0.49963707
   0.53171762  0.50469541  0.49818536
   0.56980077  0.51217511  0.50038669
Direct configuration=    42
   0.47592191  0.46152687  0.49603026
   0.46659278  0.51595001  0.47346514
   0.47202549  0.50858511  0.53229553
   0.48395324  0.49708684  0.49963684
   0.53171654  0.50469451  0.49818358
   0.56980008  0.51217569  0.50038860
Direct configuration=    43
   0.47592327  0.46152612  0.49603067
   0.46659371  0.51595113  0.47346467
   0.47202588  0.50858529  0.53229567
   0.48395269  0.49708666  0.49963653
   0.53171567  0.50469351  0.49818144
   0.56979881  0.51217632  0.50039096
Direct configuration=    44
   0.47592496  0.46152520  0.49603113
   0.46659487  0.51595247  0.47346407
   0.47202618  0.50858547  0.53229584
   0.48395194  0.49708642  0.49963615
   0.53171511  0.50469251  0.49817912
   0.56979698  0.51217696  0.50039362
Direct configuration=    45
   0.47592700  0.46152412  0.49603162
   0.46659629  0.51595401  0.47346331
   0.47202623  0.50858563  0.53229601
   0.48395102  0.49708614  0.49963571
   0.53171462  0.50469153  0.49817683
   0.56979487  0.51217759  0.50039646
Direct configuration=    46
   0.47592965  0.46152275  0.49603212
   0.46659815  0.51595589  0.47346227
   0.47202578  0.50858572  0.53229616
   0.48394990  0.49708580  0.49963517
   0.53171369  0.50469056  0.49817467
   0.56979286  0.51217830  0.50039955
Direct configuration=    47
   0.47593287  0.46152116  0.49603253
   0.46660045  0.51595798  0.47346092
   0.47202451  0.50858566  0.53229625
   0.48394868  0.49708546  0.49963462
   0.53171210  0.50468978  0.49817316
   0.56979143  0.51217899  0.50040246
Direct configuration=    48
   0.47593664  0.46151941  0.49603274
   0.46660320  0.51596014  0.47345923
   0.47202192  0.50858535  0.53229623
   0.48394738  0.49708518  0.49963421
   0.53171031  0.50468953  0.49817296
   0.56979060  0.51217943  0.50040458
Direct configuration=    49
   0.47594097  0.46151761  0.49603259
   0.46660644  0.51596218  0.47345716
   0.47201733  0.50858463  0.53229602
   0.48394603  0.49708504  0.49963415
   0.53170908  0.50469029  0.49817488
   0.56979020  0.51217928  0.50040513
Direct configuration=    50
   0.47594596  0.46151590  0.49603187
   0.46661033  0.51596389  0.47345467
   0.47200972  0.50858329  0.53229556
   0.48394471  0.49708519  0.49963477
   0.53170884  0.50469259  0.49818002
   0.56979047  0.51217816  0.50040304
Direct configuration=    51
   0.47595184  0.46151451  0.49603028
   0.46661517  0.51596494  0.47345168
   0.47199754  0.50858103  0.53229477
   0.48394371  0.49708586  0.49963654
   0.53170918  0.50469696  0.49818976
   0.56979259  0.51217573  0.50039692
Direct configuration=    52
   0.47595904  0.46151383  0.49602743
   0.46662149  0.51596489  0.47344815
   0.47197858  0.50857744  0.53229359
   0.48394340  0.49708738  0.49964013
   0.53170945  0.50470399  0.49820576
   0.56979808  0.51217150  0.50038487
Direct configuration=    53
   0.47596838  0.46151444  0.49602286
   0.46663022  0.51596320  0.47344409
   0.47194983  0.50857199  0.53229205
   0.48394397  0.49709018  0.49964648
   0.53171066  0.50471467  0.49823004
   0.56980699  0.51216452  0.50036442
Direct configuration=    54
   0.47598062  0.46151710  0.49601635
   0.46664233  0.51595942  0.47343977
   0.47190950  0.50856433  0.53228999
   0.48394544  0.49709453  0.49965626
   0.53171518  0.50472950  0.49826273
   0.56981696  0.51215413  0.50033485
Direct configuration=    55
   0.47599720  0.46152262  0.49600795
   0.46665933  0.51595344  0.47343559
   0.47185674  0.50855429  0.53228735
   0.48394878  0.49710085  0.49967021
   0.53171589  0.50474612  0.49830118
   0.56983210  0.51214169  0.50029766
Direct configuration=    56
   0.47601968  0.46153092  0.49599808
   0.46668267  0.51594595  0.47343166
   0.47179173  0.50854209  0.53228472
   0.48395184  0.49710924  0.49968889
   0.53172523  0.50476491  0.49834119
   0.56983889  0.51212588  0.50025542
Direct configuration=    57
   0.47602038  0.46153101  0.49599817
   0.46668332  0.51594614  0.47343168
   0.47179156  0.50854214  0.53228492
   0.48395235  0.49710931  0.49968884
   0.53172024  0.50476348  0.49833981
   0.56984220  0.51212692  0.50025653
Direct configuration=    58
   0.47602199  0.46153121  0.49599830
   0.46668483  0.51594653  0.47343167
   0.47179065  0.50854216  0.53228535
   0.48395275  0.49710942  0.49968893
   0.53171467  0.50476153  0.49833742
   0.56984515  0.51212816  0.50025827
Direct configuration=    59
   0.47602218  0.46153122  0.49599829
   0.46668500  0.51594656  0.47343165
   0.47179042  0.50854214  0.53228539
   0.48395259  0.49710942  0.49968899
   0.53171557  0.50476165  0.49833737
   0.56984429  0.51212801  0.50025825
Direct configuration=    60
   0.47602256  0.46153125  0.49599827
   0.46668535  0.51594663  0.47343160
   0.47178995  0.50854209  0.53228548
   0.48395231  0.49710943  0.49968911
   0.53171714  0.50476187  0.49833729
   0.56984274  0.51212773  0.50025820
Direct configuration=    61
   0.47602316  0.46153130  0.49599823
   0.46668590  0.51594674  0.47343152
   0.47178919  0.50854202  0.53228560
   0.48395196  0.49710946  0.49968931
   0.53171899  0.50476209  0.49833715
   0.56984085  0.51212740  0.50025814
Direct configuration=    62
   0.47602402  0.46153135  0.49599816
   0.46668669  0.51594688  0.47343140
   0.47178807  0.50854190  0.53228579
   0.48395160  0.49710953  0.49968960
   0.53172045  0.50476223  0.49833694
   0.56983921  0.51212710  0.50025806
Direct configuration=    63
   0.47602407  0.46153136  0.49599816
   0.46668674  0.51594689  0.47343139
   0.47178800  0.50854189  0.53228580
   0.48395161  0.49710954  0.49968961
   0.53172033  0.50476221  0.49833693
   0.56983930  0.51212711  0.50025806
Direct configuration=    64
   0.47602417  0.46153136  0.49599815
   0.46668682  0.51594690  0.47343137
   0.47178784  0.50854187  0.53228582
   0.48395162  0.49710956  0.49968966
   0.53172010  0.50476218  0.49833693
   0.56983949  0.51212713  0.50025802
Direct configuration=    65
   0.47602433  0.46153137  0.49599812
   0.46668696  0.51594692  0.47343134
   0.47178757  0.50854183  0.53228585
   0.48395164  0.49710959  0.49968973
   0.53171976  0.50476215  0.49833698
   0.56983979  0.51212714  0.50025793
Direct configuration=    66
   0.47602455  0.46153138  0.49599807
   0.46668716  0.51594693  0.47343129
   0.47178714  0.50854178  0.53228590
   0.48395165  0.49710964  0.49968984
   0.53171936  0.50476213  0.49833708
   0.56984018  0.51212714  0.50025775
Direct configuration=    67
   0.47602483  0.46153139  0.49599801
   0.46668741  0.51594695  0.47343123
   0.47178657  0.50854170  0.53228597
   0.48395167  0.49710971  0.49968999
   0.53171892  0.50476214  0.49833726
   0.56984065  0.51212711  0.50025748
Direct configuration=    68
   0.47602518  0.46153141  0.49599793
   0.46668772  0.51594696  0.47343116
   0.47178584  0.50854160  0.53228605
   0.48395168  0.49710979  0.49969019
   0.53171846  0.50476219  0.49833751
   0.56984116  0.51212705  0.50025711
Direct configuration=    69
   0.47602564  0.46153144  0.49599783
   0.46668814  0.51594697  0.47343105
   0.47178486  0.50854146  0.53228616
   0.48395167  0.49710990  0.49969045
   0.53171799  0.50476228  0.49833787
   0.56984174  0.51212694  0.50025659
Direct configuration=    70
   0.47602624  0.46153148  0.49599768
   0.46668868  0.51594699  0.47343092
   0.47178355  0.50854128  0.53228630
   0.48395165  0.49711005  0.49969080
   0.53171757  0.50476245  0.49833838
   0.56984236  0.51212675  0.50025588
Direct configuration=    71
   0.47602702  0.46153154  0.49599749
   0.46668937  0.51594700  0.47343074
   0.47178186  0.50854104  0.53228647
   0.48395159  0.49711023  0.49969126
   0.53171725  0.50476271  0.49833907
   0.56984297  0.51212647  0.50025492
Direct configuration=    72
   0.47602800  0.46153161  0.49599724
   0.46669024  0.51594702  0.47343052
   0.47177969  0.50854074  0.53228669
   0.48395149  0.49711047  0.49969184
   0.53171713  0.50476311  0.49834000
   0.56984350  0.51212605  0.50025366
Direct configuration=    73
   0.47602923  0.46153171  0.49599693
   0.46669135  0.51594704  0.47343024
   0.47177694  0.50854035  0.53228695
   0.48395133  0.49711076  0.49969259
   0.53171729  0.50476367  0.49834121
   0.56984391  0.51212547  0.50025204
Direct configuration=    74
   0.47603078  0.46153183  0.49599653
   0.46669272  0.51594706  0.47342989
   0.47177350  0.50853985  0.53228726
   0.48395112  0.49711114  0.49969354
   0.53171776  0.50476444  0.49834276
   0.56984417  0.51212468  0.50024998
Direct configuration=    75
   0.47603270  0.46153199  0.49599603
   0.46669444  0.51594708  0.47342945
   0.47176921  0.50853923  0.53228762
   0.48395086  0.49711161  0.49969473
   0.53171849  0.50476542  0.49834474
   0.56984435  0.51212366  0.50024739
Direct configuration=    76
   0.47603511  0.46153220  0.49599540
   0.46669657  0.51594711  0.47342891
   0.47176388  0.50853843  0.53228802
   0.48395059  0.49711221  0.49969622
   0.53171925  0.50476664  0.49834721
   0.56984464  0.51212242  0.50024417
Direct configuration=    77
   0.47603809  0.46153245  0.49599464
   0.46669920  0.51594713  0.47342826
   0.47175734  0.50853742  0.53228847
   0.48395037  0.49711298  0.49969808
   0.53171972  0.50476808  0.49835024
   0.56984533  0.51212094  0.50024026
Direct configuration=    78
   0.47604174  0.46153276  0.49599371
   0.46670240  0.51594716  0.47342749
   0.47174937  0.50853614  0.53228894
   0.48395025  0.49711393  0.49970034
   0.53171957  0.50476977  0.49835392
   0.56984671  0.51211925  0.50023554
Direct configuration=    79
   0.47604621  0.46153315  0.49599258
   0.46670628  0.51594717  0.47342659
   0.47173970  0.50853453  0.53228942
   0.48395023  0.49711511  0.49970310
   0.53171884  0.50477180  0.49835844
   0.56984877  0.51211724  0.50022983
Direct configuration=    80
   0.47605171  0.46153367  0.49599119
   0.46671100  0.51594715  0.47342553
   0.47172795  0.50853251  0.53228986
   0.48395027  0.49711654  0.49970642
   0.53171806  0.50477439  0.49836411
   0.56985106  0.51211474  0.50022284
Direct configuration=    81
   0.47605841  0.46153436  0.49598948
   0.46671668  0.51594709  0.47342432
   0.47171375  0.50852996  0.53229024
   0.48395023  0.49711825  0.49971036
   0.53171808  0.50477784  0.49837127
   0.56985290  0.51211150  0.50021428
Direct configuration=    82
   0.47606657  0.46153528  0.49598739
   0.46672347  0.51594695  0.47342295
   0.47169662  0.50852676  0.53229053
   0.48395011  0.49712025  0.49971498
   0.53171891  0.50478236  0.49838028
   0.56985436  0.51210739  0.50020383
Direct configuration=    83
   0.47607650  0.46153644  0.49598484
   0.46673156  0.51594674  0.47342139
   0.47167613  0.50852276  0.53229064
   0.48395009  0.49712262  0.49972034
   0.53171889  0.50478783  0.49839143
   0.56985688  0.51210261  0.50019131
Direct configuration=    84
   0.47608848  0.46153782  0.49598179
   0.46674107  0.51594649  0.47341963
   0.47165218  0.50851784  0.53229042
   0.48395029  0.49712535  0.49972639
   0.53171703  0.50479419  0.49840476
   0.56986100  0.51209730  0.50017694
Direct configuration=    85
   0.47610276  0.46153927  0.49597821
   0.46675209  0.51594632  0.47341758
   0.47162470  0.50851181  0.53228973
   0.48395021  0.49712833  0.49973315
   0.53171692  0.50480232  0.49842043
   0.56986337  0.51209094  0.50016086
Direct configuration=    86
   0.47612016  0.46154035  0.49597382
   0.46676475  0.51594668  0.47341477
   0.47159413  0.50850445  0.53228796
   0.48394989  0.49713141  0.49974113
   0.53171532  0.50481146  0.49843757
   0.56986580  0.51208465  0.50014469
Direct configuration=    87
   0.47612028  0.46154028  0.49597379
   0.46676478  0.51594671  0.47341474
   0.47159412  0.50850442  0.53228797
   0.48394989  0.49713139  0.49974104
   0.53171518  0.50481145  0.49843752
   0.56986579  0.51208474  0.50014489
Direct configuration=    88
   0.47612052  0.46154014  0.49597372
   0.46676486  0.51594676  0.47341469
   0.47159406  0.50850435  0.53228797
   0.48394988  0.49713135  0.49974087
   0.53171494  0.50481147  0.49843746
   0.56986578  0.51208491  0.50014524
Direct configuration=    89
   0.47612089  0.46153994  0.49597361
   0.46676499  0.51594685  0.47341459
   0.47159393  0.50850423  0.53228797
   0.48394985  0.49713130  0.49974064
   0.53171468  0.50481154  0.49843742
   0.56986570  0.51208513  0.50014572
Direct configuration=    90
   0.47612139  0.46153968  0.49597345
   0.46676517  0.51594695  0.47341446
   0.47159371  0.50850406  0.53228795
   0.48394979  0.49713123  0.49974038
   0.53171448  0.50481167  0.49843741
   0.56986551  0.51208539  0.50014631
Direct configuration=    91
   0.47612201  0.46153938  0.49597324
   0.46676538  0.51594708  0.47341427
   0.47159340  0.50850384  0.53228789
   0.48394969  0.49713113  0.49974012
   0.53171435  0.50481187  0.49843746
   0.56986521  0.51208569  0.50014698
Direct configuration=    92
   0.47612275  0.46153902  0.49597297
   0.46676563  0.51594723  0.47341402
   0.47159298  0.50850354  0.53228779
   0.48394957  0.49713102  0.49973988
   0.53171427  0.50481215  0.49843759
   0.56986485  0.51208602  0.50014770
Direct configuration=    93
   0.47612370  0.46153860  0.49597260
   0.46676595  0.51594740  0.47341368
   0.47159236  0.50850313  0.53228761
   0.48394941  0.49713089  0.49973966
   0.53171413  0.50481255  0.49843785
   0.56986450  0.51208643  0.50014855
Direct configuration=    94
   0.47612490  0.46153810  0.49597210
   0.46676635  0.51594758  0.47341322
   0.47159145  0.50850256  0.53228734
   0.48394923  0.49713073  0.49973949
   0.53171385  0.50481308  0.49843834
   0.56986428  0.51208693  0.50014946
Direct configuration=    95
   0.47612639  0.46153754  0.49597142
   0.46676687  0.51594775  0.47341263
   0.47159010  0.50850179  0.53228695
   0.48394903  0.49713057  0.49973940
   0.53171345  0.50481381  0.49843919
   0.56986421  0.51208752  0.50015036
Direct configuration=    96
   0.47612821  0.46153693  0.49597052
   0.46676756  0.51594786  0.47341190
   0.47158809  0.50850079  0.53228646
   0.48394882  0.49713041  0.49973940
   0.53171312  0.50481486  0.49844059
   0.56986425  0.51208814  0.50015109
Direct configuration=    97
   0.47613044  0.46153630  0.49596933
   0.46676849  0.51594785  0.47341101
   0.47158511  0.50849947  0.53228587
   0.48394860  0.49713030  0.49973951
   0.53171306  0.50481635  0.49844281
   0.56986435  0.51208871  0.50015143
Direct configuration=    98
   0.47613316  0.46153568  0.49596777
   0.46676977  0.51594760  0.47340998
   0.47158074  0.50849773  0.53228521
   0.48394843  0.49713028  0.49973979
   0.53171323  0.50481853  0.49844611
   0.56986473  0.51208917  0.50015109
Direct configuration=    99
   0.47613650  0.46153513  0.49596574
   0.46677155  0.51594703  0.47340877
   0.47157441  0.50849544  0.53228448
   0.48394844  0.49713041  0.49974037
   0.53171326  0.50482147  0.49845087
   0.56986589  0.51208950  0.50014972
Direct configuration=   100
   0.47614071  0.46153472  0.49596309
   0.46677408  0.51594600  0.47340734
   0.47156533  0.50849240  0.53228365
   0.48394870  0.49713077  0.49974153
   0.53171341  0.50482559  0.49845759
   0.56986781  0.51208950  0.50014675
Direct configuration=   101
   0.47614619  0.46153460  0.49595968
   0.46677772  0.51594442  0.47340562
   0.47155246  0.50848833  0.53228267
   0.48394916  0.49713149  0.49974373
   0.53171434  0.50483123  0.49846685
   0.56987017  0.51208891  0.50014142
Direct configuration=   102
   0.47615351  0.46153498  0.49595536
   0.46678301  0.51594224  0.47340357
   0.47153466  0.50848296  0.53228150
   0.48394997  0.49713273  0.49974745
   0.53171494  0.50483830  0.49847895
   0.56987395  0.51208777  0.50013313
Direct configuration=   103
   0.47616353  0.46153602  0.49595005
   0.46679069  0.51593944  0.47340128
   0.47151061  0.50847603  0.53228031
   0.48395087  0.49713464  0.49975301
   0.53171631  0.50484703  0.49849410
   0.56987803  0.51208581  0.50012121
Direct configuration=   104
   0.47617734  0.46153763  0.49594410
   0.46680151  0.51593642  0.47339902
   0.47148101  0.50846749  0.53227927
   0.48395217  0.49713712  0.49975997
   0.53171534  0.50485628  0.49851015
   0.56988268  0.51208403  0.50010744
Direct configuration=   105
   0.47619429  0.46153882  0.49593810
   0.46681428  0.51593413  0.47339653
   0.47144991  0.50845799  0.53227827
   0.48395209  0.49713925  0.49976700
   0.53172110  0.50486680  0.49852533
   0.56987837  0.51208198  0.50009472
Direct configuration=   106
   0.47619441  0.46153848  0.49593827
   0.46681412  0.51593447  0.47339649
   0.47145120  0.50845810  0.53227821
   0.48395293  0.49713920  0.49976659
   0.53171325  0.50486493  0.49852402
   0.56988414  0.51208378  0.50009638
Direct configuration=   107
   0.47619447  0.46153841  0.49593829
   0.46681411  0.51593453  0.47339646
   0.47145130  0.50845810  0.53227821
   0.48395282  0.49713916  0.49976654
   0.53171373  0.50486499  0.49852394
   0.56988362  0.51208379  0.50009651
Direct configuration=   108
   0.47619459  0.46153827  0.49593832
   0.46681410  0.51593465  0.47339642
   0.47145152  0.50845808  0.53227821
   0.48395262  0.49713907  0.49976644
   0.53171451  0.50486507  0.49852377
   0.56988271  0.51208382  0.50009680
Direct configuration=   109
   0.47619479  0.46153805  0.49593836
   0.46681408  0.51593484  0.47339634
   0.47145187  0.50845806  0.53227821
   0.48395238  0.49713894  0.49976627
   0.53171525  0.50486512  0.49852349
   0.56988169  0.51208396  0.50009728
Direct configuration=   110
   0.47619480  0.46153803  0.49593837
   0.46681407  0.51593485  0.47339634
   0.47145190  0.50845806  0.53227821
   0.48395238  0.49713893  0.49976626
   0.53171518  0.50486510  0.49852346
   0.56988172  0.51208399  0.50009732
Direct configuration=   111
   0.47619483  0.46153800  0.49593837
   0.46681407  0.51593488  0.47339633
   0.47145195  0.50845805  0.53227821
   0.48395237  0.49713892  0.49976623
   0.53171506  0.50486507  0.49852341
   0.56988177  0.51208405  0.50009740
Direct configuration=   112
   0.47619488  0.46153795  0.49593837
   0.46681406  0.51593492  0.47339631
   0.47145202  0.50845804  0.53227821
   0.48395236  0.49713890  0.49976619
   0.53171489  0.50486503  0.49852336
   0.56988184  0.51208414  0.50009751
Direct configuration=   113
   0.47619496  0.46153788  0.49593837
   0.46681406  0.51593497  0.47339629
   0.47145209  0.50845802  0.53227821
   0.48395235  0.49713887  0.49976615
   0.53171467  0.50486499  0.49852330
   0.56988193  0.51208425  0.50009764
Direct configuration=   114
   0.47619507  0.46153778  0.49593836
   0.46681406  0.51593503  0.47339625
   0.47145213  0.50845798  0.53227822
   0.48395232  0.49713884  0.49976610
   0.53171444  0.50486497  0.49852326
   0.56988204  0.51208437  0.50009776
Direct configuration=   115
   0.47619522  0.46153768  0.49593834
   0.46681406  0.51593510  0.47339621
   0.47145213  0.50845792  0.53227823
   0.48395228  0.49713880  0.49976605
   0.53171421  0.50486497  0.49852326
   0.56988214  0.51208451  0.50009786
Direct configuration=   116
   0.47619543  0.46153754  0.49593829
   0.46681408  0.51593517  0.47339615
   0.47145207  0.50845783  0.53227825
   0.48395223  0.49713876  0.49976601
   0.53171399  0.50486502  0.49852332
   0.56988225  0.51208464  0.50009793
Direct configuration=   117
   0.47619571  0.46153739  0.49593822
   0.46681413  0.51593525  0.47339607