   6   6   0   0
  0.4500000E+04  0.3000000E-08  0.3000000E-08  0.3000000E-08  0.0000000E+00
  1.000000000000000E-004
  CAR 
 unknown system                          
      2.02329631    -24.55095594  301     -7.01160343      1.00000000
    -24.551  0.0000E+00  0.0000E+00
    -24.462  0.0000E+00  0.0000E+00
    -24.374  0.0000E+00  0.0000E+00
    -24.285  0.0000E+00  0.0000E+00
    -24.197  0.0000E+00  0.0000E+00
    -24.108  0.0000E+00  0.0000E+00
    -24.019  0.0000E+00  0.0000E+00
    -23.931  0.0000E+00  0.0000E+00
    -23.842  0.0000E+00  0.0000E+00
    -23.754  0.0000E+00  0.0000E+00
    -23.665  0.1253E-15  0.1110E-16
    -23.577  0.1531E-13  0.1367E-14
    -23.488  0.1284E-11  0.1151E-12
    -23.399  0.7320E-10  0.6600E-11
    -23.311  0.2838E-08  0.2580E-09
    -23.222  0.7488E-07  0.6891E-08
    -23.134  0.1346E-05  0.1261E-06
    -23.045  0.1648E-04  0.1586E-05
    -22.957  0.1377E-03  0.1378E-04
    -22.868  0.7854E-03  0.8336E-04
    -22.779  0.3060E-02  0.3544E-03
    -22.691  0.8149E-02  0.1076E-02
    -22.602  0.1484E-01  0.2391E-02
    -22.514  0.1848E-01  0.4028E-02
    -22.425  0.1575E-01  0.5423E-02
    -22.336  0.9178E-02  0.6236E-02
    -22.248  0.3658E-02  0.6560E-02
    -22.159  0.9965E-03  0.6648E-02
    -22.071  0.1855E-03  0.6664E-02
    -21.982  0.2357E-04  0.6666E-02
    -21.894  0.2043E-05  0.6667E-02
    -21.805  0.1207E-06  0.6667E-02
    -21.716  0.4859E-08  0.6667E-02
    -21.628  0.1331E-09  0.6667E-02
    -21.539  0.2480E-11  0.6667E-02
    -21.451  0.3142E-13  0.6667E-02
    -21.362  0.2674E-15  0.6667E-02
    -21.273  0.0000E+00  0.6667E-02
    -21.185  0.0000E+00  0.6667E-02
    -21.096  0.0000E+00  0.6667E-02
    -21.008  0.0000E+00  0.6667E-02
    -20.919  0.0000E+00  0.6667E-02
    -20.831  0.0000E+00  0.6667E-02
    -20.742  0.0000E+00  0.6667E-02
    -20.653  0.0000E+00  0.6667E-02
    -20.565  0.4178E-17  0.6667E-02
    -20.476  0.3593E-15  0.6667E-02
    -20.388  0.4087E-13  0.6667E-02
    -20.299  0.3155E-11  0.6667E-02
    -20.210  0.1656E-09  0.6667E-02
    -20.122  0.5912E-08  0.6667E-02
    -20.033  0.1436E-06  0.6667E-02
    -19.945  0.2378E-05  0.6667E-02
    -19.856  0.2683E-04  0.6669E-02
    -19.768  0.2065E-03  0.6688E-02
    -19.679  0.1085E-02  0.6784E-02
    -19.590  0.3898E-02  0.7129E-02
    -19.502  0.9567E-02  0.7976E-02
    -19.413  0.1606E-01  0.9399E-02
    -19.325  0.1844E-01  0.1103E-01
    -19.236  0.1448E-01  0.1232E-01
    -19.148  0.7780E-02  0.1300E-01
    -19.059  0.2858E-02  0.1326E-01
    -18.970  0.7176E-03  0.1332E-01
    -18.882  0.1231E-03  0.1333E-01
    -18.793  0.1441E-04  0.1333E-01
    -18.705  0.1151E-05  0.1333E-01
    -18.616  0.6263E-07  0.1333E-01
    -18.527  0.2321E-08  0.1333E-01
    -18.439  0.5856E-10  0.1333E-01
    -18.350  0.1005E-11  0.1333E-01
    -18.262  0.1171E-13  0.1333E-01
    -18.173  0.9191E-16  0.1333E-01
    -18.085  0.0000E+00  0.1333E-01
    -17.996  0.0000E+00  0.1333E-01
    -17.907  0.0000E+00  0.1333E-01
    -17.819  0.0000E+00  0.1333E-01
    -17.730  0.0000E+00  0.1333E-01
    -17.642  0.0000E+00  0.1333E-01
    -17.553  0.0000E+00  0.1333E-01
    -17.464  0.0000E+00  0.1333E-01
    -17.376  0.0000E+00  0.1333E-01
    -17.287  0.0000E+00  0.1333E-01
    -17.199  0.0000E+00  0.1333E-01
    -17.110  0.0000E+00  0.1333E-01
    -17.022  0.0000E+00  0.1333E-01
    -16.933  0.0000E+00  0.1333E-01
    -16.844  0.0000E+00  0.1333E-01
    -16.756  0.0000E+00  0.1333E-01
    -16.667  0.0000E+00  0.1333E-01
    -16.579  0.0000E+00  0.1333E-01
    -16.490  0.0000E+00  0.1333E-01
    -16.402  0.0000E+00  0.1333E-01
    -16.313  0.0000E+00  0.1333E-01
    -16.224  0.0000E+00  0.1333E-01
    -16.136  0.0000E+00  0.1333E-01
    -16.047  0.0000E+00  0.1333E-01
    -15.959  0.0000E+00  0.1333E-01
    -15.870  0.0000E+00  0.1333E-01
    -15.781  0.0000E+00  0.1333E-01
    -15.693  0.0000E+00  0.1333E-01
    -15.604  0.0000E+00  0.1333E-01
    -15.516  0.0000E+00  0.1333E-01
    -15.427  0.0000E+00  0.1333E-01
    -15.339  0.0000E+00  0.1333E-01
    -15.250  0.0000E+00  0.1333E-01
    -15.161  0.0000E+00  0.1333E-01
    -15.073  0.0000E+00  0.1333E-01
    -14.984  0.0000E+00  0.1333E-01
    -14.896  0.0000E+00  0.1333E-01
    -14.807  0.0000E+00  0.1333E-01
    -14.718  0.0000E+00  0.1333E-01
    -14.630  0.0000E+00  0.1333E-01
    -14.541  0.0000E+00  0.1333E-01
    -14.453  0.0000E+00  0.1333E-01
    -14.364  0.0000E+00  0.1333E-01
    -14.276  0.0000E+00  0.1333E-01
    -14.187  0.0000E+00  0.1333E-01
    -14.098  0.0000E+00  0.1333E-01
    -14.010  0.0000E+00  0.1333E-01
    -13.921  0.3342E-16  0.1333E-01
    -13.833  0.4441E-14  0.1333E-01
    -13.744  0.4128E-12  0.1333E-01
    -13.656  0.2606E-10  0.1333E-01
    -13.567  0.1119E-08  0.1333E-01
    -13.478  0.3269E-07  0.1333E-01
    -13.390  0.6502E-06  0.1333E-01
    -13.301  0.8814E-05  0.1333E-01
    -13.213  0.8149E-04  0.1334E-01
    -13.124  0.5141E-03  0.1339E-01
    -13.035  0.2216E-02  0.1358E-01
    -12.947  0.6525E-02  0.1416E-01
    -12.858  0.1314E-01  0.1533E-01
    -12.770  0.1809E-01  0.1693E-01
    -12.681  0.1705E-01  0.1844E-01
    -12.593  0.1099E-01  0.1941E-01
    -12.504  0.4842E-02  0.1984E-01
    -12.415  0.1459E-02  0.1997E-01
    -12.327  0.3004E-03  0.2000E-01
    -12.238  0.4224E-04  0.2000E-01
    -12.150  0.4312E-05  0.2000E-01
    -12.061  0.4637E-05  0.2000E-01
    -11.972  0.4994E-04  0.2000E-01
    -11.884  0.3890E-03  0.2004E-01
    -11.795  0.2070E-02  0.2022E-01
    -11.707  0.7522E-02  0.2089E-01
    -11.618  0.1869E-01  0.2254E-01
    -11.530  0.3176E-01  0.2536E-01
    -11.441  0.3693E-01  0.2863E-01
    -11.352  0.2937E-01  0.3123E-01
    -11.264  0.1598E-01  0.3265E-01
    -11.175  0.5945E-02  0.3317E-01
    -11.087  0.1512E-02  0.3331E-01
    -10.998  0.2627E-03  0.3333E-01
    -10.910  0.3116E-04  0.3333E-01
    -10.821  0.2521E-05  0.3333E-01
    -10.732  0.1391E-06  0.3333E-01
    -10.644  0.5225E-08  0.3333E-01
    -10.555  0.1336E-09  0.3333E-01
    -10.467  0.2323E-11  0.3333E-01
    -10.378  0.2746E-13  0.3333E-01
    -10.289  0.2256E-15  0.3333E-01
    -10.201  0.0000E+00  0.3333E-01
    -10.112  0.0000E+00  0.3333E-01
    -10.024  0.0000E+00  0.3333E-01
     -9.935  0.0000E+00  0.3333E-01
     -9.847  0.0000E+00  0.3333E-01
     -9.758  0.0000E+00  0.3333E-01
     -9.669  0.1671E-16  0.3333E-01
     -9.581  0.2122E-14  0.3333E-01
     -9.492  0.2096E-12  0.3333E-01
     -9.404  0.1405E-10  0.3333E-01
     -9.315  0.6404E-09  0.3333E-01
     -9.226  0.1986E-07  0.3333E-01
     -9.138  0.4193E-06  0.3333E-01
     -9.049  0.6031E-05  0.3333E-01
     -8.961  0.5917E-04  0.3334E-01
     -8.872  0.3961E-03  0.3337E-01
     -8.784  0.1811E-02  0.3353E-01
     -8.695  0.5658E-02  0.3404E-01
     -8.606  0.1209E-01  0.3511E-01
     -8.518  0.1774E-01  0.3668E-01
     -8.429  0.1822E-01  0.3829E-01
     -8.341  0.1471E-01  0.3960E-01
     -8.252  0.1411E-01  0.4085E-01
     -8.164  0.2090E-01  0.4270E-01
     -8.075  0.3096E-01  0.4544E-01
     -7.986  0.3493E-01  0.4853E-01
     -7.898  0.2843E-01  0.5105E-01
     -7.809  0.1651E-01  0.5252E-01
     -7.721  0.6801E-02  0.5312E-01
     -7.632  0.1972E-02  0.5329E-01
     -7.543  0.3996E-03  0.5333E-01
     -7.455  0.5624E-04  0.5333E-01
     -7.366  0.5465E-05  0.5333E-01
     -7.278  0.3651E-06  0.5333E-01
     -7.189  0.1671E-07  0.5333E-01
     -7.101  0.5228E-09  0.5333E-01
     -7.012  0.1116E-10  0.5333E-01
     -6.923  0.1621E-12  0.5333E-01
     -6.835  0.1596E-14  0.5333E-01
     -6.746  0.1671E-16  0.5333E-01
     -6.658  0.0000E+00  0.5333E-01
     -6.569  0.0000E+00  0.5333E-01
     -6.480  0.0000E+00  0.5333E-01
     -6.392  0.0000E+00  0.5333E-01
     -6.303  0.0000E+00  0.5333E-01
     -6.215  0.0000E+00  0.5333E-01
     -6.126  0.0000E+00  0.5333E-01
     -6.038  0.0000E+00  0.5333E-01
     -5.949  0.0000E+00  0.5333E-01
     -5.860  0.0000E+00  0.5333E-01
     -5.772  0.0000E+00  0.5333E-01
     -5.683  0.0000E+00  0.5333E-01
     -5.595  0.0000E+00  0.5333E-01
     -5.506  0.0000E+00  0.5333E-01
     -5.417  0.0000E+00  0.5333E-01
     -5.329  0.0000E+00  0.5333E-01
     -5.240  0.0000E+00  0.5333E-01
     -5.152  0.0000E+00  0.5333E-01
     -5.063  0.0000E+00  0.5333E-01
     -4.975  0.0000E+00  0.5333E-01
     -4.886  0.0000E+00  0.5333E-01
     -4.797  0.0000E+00  0.5333E-01
     -4.709  0.0000E+00  0.5333E-01
     -4.620  0.0000E+00  0.5333E-01
     -4.532  0.0000E+00  0.5333E-01
     -4.443  0.0000E+00  0.5333E-01
     -4.355  0.0000E+00  0.5333E-01
     -4.266  0.0000E+00  0.5333E-01
     -4.177  0.0000E+00  0.5333E-01
     -4.089  0.0000E+00  0.5333E-01
     -4.000  0.0000E+00  0.5333E-01
     -3.912  0.0000E+00  0.5333E-01
     -3.823  0.0000E+00  0.5333E-01
     -3.734  0.0000E+00  0.5333E-01
     -3.646  0.0000E+00  0.5333E-01
     -3.557  0.0000E+00  0.5333E-01
     -3.469  0.0000E+00  0.5333E-01
     -3.380  0.0000E+00  0.5333E-01
     -3.292  0.0000E+00  0.5333E-01
     -3.203  0.0000E+00  0.5333E-01
     -3.114  0.0000E+00  0.5333E-01
     -3.026  0.0000E+00  0.5333E-01
     -2.937  0.0000E+00  0.5333E-01
     -2.849  0.0000E+00  0.5333E-01
     -2.760  0.0000E+00  0.5333E-01
     -2.671  0.0000E+00  0.5333E-01
     -2.583  0.0000E+00  0.5333E-01
     -2.494  0.0000E+00  0.5333E-01
     -2.406  0.0000E+00  0.5333E-01
     -2.317  0.0000E+00  0.5333E-01
     -2.229  0.0000E+00  0.5333E-01
     -2.140  0.8356E-17  0.5333E-01
     -2.051  0.1007E-14  0.5333E-01
     -1.963  0.1055E-12  0.5333E-01
     -1.874  0.7509E-11  0.5333E-01
     -1.786  0.3633E-09  0.5333E-01
     -1.697  0.1196E-07  0.5333E-01
     -1.609  0.2680E-06  0.5333E-01
     -1.520  0.4091E-05  0.5333E-01
     -1.431  0.4258E-04  0.5334E-01
     -1.343  0.3025E-03  0.5336E-01
     -1.254  0.1467E-02  0.5349E-01
     -1.166  0.4861E-02  0.5392E-01
     -1.077  0.1101E-01  0.5490E-01
     -0.988  0.1708E-01  0.5641E-01
     -0.900  0.1821E-01  0.5803E-01
     -0.811  0.1392E-01  0.5926E-01
     -0.723  0.1012E-01  0.6016E-01
     -0.634  0.1335E-01  0.6134E-01
     -0.546  0.2421E-01  0.6348E-01
     -0.457  0.3483E-01  0.6657E-01
     -0.368  0.3532E-01  0.6970E-01
     -0.280  0.2553E-01  0.7196E-01
     -0.191  0.1551E-01  0.7333E-01
     -0.103  0.1319E-01  0.7450E-01
     -0.014  0.1672E-01  0.7598E-01
      0.075  0.1861E-01  0.7763E-01
      0.163  0.1477E-01  0.7894E-01
      0.252  0.8058E-02  0.7965E-01
      0.340  0.3009E-02  0.7992E-01
      0.429  0.7681E-03  0.7999E-01
      0.517  0.1339E-03  0.8000E-01
      0.606  0.1594E-04  0.8000E-01
      0.695  0.1295E-05  0.8000E-01
      0.783  0.7166E-07  0.8000E-01
      0.872  0.2701E-08  0.8000E-01
      0.960  0.6930E-10  0.8000E-01
      1.049  0.1209E-11  0.8000E-01
      1.137  0.1434E-13  0.8000E-01
      1.226  0.1170E-15  0.8000E-01
      1.315  0.0000E+00  0.8000E-01
      1.403  0.0000E+00  0.8000E-01
      1.492  0.0000E+00  0.8000E-01
      1.580  0.0000E+00  0.8000E-01
      1.669  0.0000E+00  0.8000E-01
      1.758  0.0000E+00  0.8000E-01
      1.846  0.0000E+00  0.8000E-01
      1.935  0.0000E+00  0.8000E-01
      2.023  0.0000E+00  0.8000E-01
