    6    6  300    1
  0.4500000E+04  0.3000000E-08  0.3000000E-08  0.3000000E-08  0.0000000E+00
  1.000000000000000E-004
  CAR 
 unknown system                          
     16      4     12
 
  0.2500000E+00  0.2500000E+00  0.2500000E+00  0.2500000E+00
    1      -22.550956   1.000000
    2      -19.381030   1.000000
    3      -12.783616   1.000000
    4      -11.496693   1.000000
    5      -11.492160   1.000000
    6       -8.517998   1.000000
    7       -8.088852   1.000000
    8       -7.991451   1.000000
    9       -0.974891   0.000000
   10       -0.475955   0.000000
   11       -0.432595   0.000000
   12        0.023296   0.000000
 
 -0.2500000E+00  0.2500000E+00  0.2500000E+00  0.2500000E+00
    1      -22.550954   1.000000
    2      -19.381029   1.000000
    3      -12.783616   1.000000
    4      -11.496691   1.000000
    5      -11.492155   1.000000
    6       -8.517987   1.000000
    7       -8.088854   1.000000
    8       -7.991459   1.000000
    9       -0.974893   0.000000
   10       -0.475957   0.000000
   11       -0.432606   0.000000
   12        0.020819   0.000000
 
  0.2500000E+00 -0.2500000E+00  0.2500000E+00  0.2500000E+00
    1      -22.550955   1.000000
    2      -19.381029   1.000000
    3      -12.783615   1.000000
    4      -11.496697   1.000000
    5      -11.492161   1.000000
    6       -8.517988   1.000000
    7       -8.088865   1.000000
    8       -7.991458   1.000000
    9       -0.974884   0.000000
   10       -0.475963   0.000000
   11       -0.432585   0.000000
   12        0.022036   0.000000
 
 -0.2500000E+00 -0.2500000E+00  0.2500000E+00  0.2500000E+00
    1      -22.550955   1.000000
    2      -19.381030   1.000000
    3      -12.783615   1.000000
    4      -11.496697   1.000000
    5      -11.492161   1.000000
    6       -8.517987   1.000000
    7       -8.088870   1.000000
    8       -7.991459   1.000000
    9       -0.974884   0.000000
   10       -0.475959   0.000000
   11       -0.432585   0.000000
   12        0.021918   0.000000
