       N       E                     dE             d eps       ncg     rms          rms(c)
DAV:   1     0.115678437467E+03    0.11568E+03   -0.21247E+03   160   0.366E+02
DAV:   2    -0.569045096700E+00   -0.11625E+03   -0.11364E+03   192   0.107E+02
DAV:   3    -0.373361941847E+02   -0.36767E+02   -0.36673E+02   124   0.955E+01
DAV:   4    -0.407030235239E+02   -0.33668E+01   -0.33318E+01   128   0.286E+01
DAV:   5    -0.407754003512E+02   -0.72377E-01   -0.70984E-01   120   0.474E+00    0.109E+01
DAV:   6    -0.374685655380E+02    0.33068E+01   -0.64357E+00   120   0.177E+01    0.595E+00
DAV:   7    -0.368042265062E+02    0.66434E+00   -0.14457E+00   112   0.859E+00    0.302E+00
DAV:   8    -0.366313727898E+02    0.17285E+00   -0.41353E-01   128   0.480E+00    0.110E+00
DAV:   9    -0.366056798214E+02    0.25693E-01   -0.35928E-02   128   0.155E+00    0.334E-01
DAV:  10    -0.366012376683E+02    0.44422E-02   -0.48219E-03   128   0.599E-01    0.146E-01
DAV:  11    -0.366023712900E+02   -0.11336E-02   -0.18135E-03   128   0.325E-01    0.958E-02
DAV:  12    -0.366089472655E+02   -0.65760E-02   -0.48600E-03   112   0.530E-01    0.499E-02
DAV:  13    -0.366130672829E+02   -0.41200E-02   -0.12203E-03   152   0.237E-01    0.366E-02
DAV:  14    -0.366173373007E+02   -0.42700E-02   -0.59140E-04   116   0.155E-01    0.259E-02
DAV:  15    -0.366205062300E+02   -0.31689E-02   -0.31514E-04   128   0.952E-02    0.166E-02
DAV:  16    -0.366225921304E+02   -0.20859E-02   -0.24881E-04   120   0.942E-02    0.107E-02
DAV:  17    -0.366237223180E+02   -0.11302E-02   -0.59075E-05    96   0.535E-02    0.397E-03
DAV:  18    -0.366242107758E+02   -0.48846E-03   -0.32800E-05    80   0.322E-02    0.282E-03
DAV:  19    -0.366245065823E+02   -0.29581E-03   -0.14792E-05    88   0.206E-02    0.166E-03
DAV:  20    -0.366246115818E+02   -0.10500E-03   -0.38119E-06    80   0.127E-02    0.112E-03
DAV:  21    -0.366246685431E+02   -0.56961E-04   -0.14943E-06    88   0.716E-03
   1 F= -.36624669E+02 E0= -.36624669E+02  d E =-.366247E+02
       N       E                     dE             d eps       ncg     rms          rms(c)
DAV:   1    -0.366247463804E+02   -0.13480E-03   -0.48616E-05    80   0.626E-02    0.140E-03
DAV:   2    -0.366247524230E+02   -0.60425E-05   -0.23249E-06    96   0.149E-02    0.909E-04
DAV:   3    -0.366247584664E+02   -0.60434E-05   -0.28759E-07    80   0.463E-03    0.469E-04
DAV:   4    -0.366247647550E+02   -0.62886E-05   -0.76957E-08    72   0.224E-03    0.147E-04
DAV:   5    -0.366247675763E+02   -0.28213E-05   -0.27495E-08    84   0.110E-03    0.113E-04
DAV:   6    -0.366247716787E+02   -0.41025E-05   -0.15499E-08    64   0.717E-04
   2 F= -.36624772E+02 E0= -.36624772E+02  d E =-.103136E-03
       N       E                     dE             d eps       ncg     rms          rms(c)
DAV:   1    -0.366248770862E+02   -0.10951E-03   -0.19002E-04    96   0.121E-01    0.251E-03
DAV:   2    -0.366248776427E+02   -0.55654E-06   -0.22272E-06    68   0.117E-02    0.174E-03
DAV:   3    -0.366248782874E+02   -0.64467E-06   -0.26940E-07    80   0.441E-03    0.575E-04
DAV:   4    -0.366248787670E+02   -0.47967E-06   -0.75245E-08    64   0.204E-03    0.191E-04
DAV:   5    -0.366248791548E+02   -0.38775E-06   -0.26011E-08    60   0.923E-04    0.690E-05
DAV:   6    -0.366248794147E+02   -0.25995E-06   -0.16168E-08    60   0.468E-04
   3 F= -.36624879E+02 E0= -.36624879E+02  d E =-.107736E-03
       N       E                     dE             d eps       ncg     rms          rms(c)
DAV:   1    -0.366250293963E+02   -0.15024E-03   -0.38878E-04   120   0.173E-01    0.359E-03
DAV:   2    -0.366250296445E+02   -0.24828E-06   -0.45234E-06    48   0.168E-02    0.249E-03
DAV:   3    -0.366250298304E+02   -0.18591E-06   -0.52801E-07    48   0.625E-03    0.825E-04
DAV:   4    -0.366250299516E+02   -0.12115E-06   -0.13730E-07    48   0.289E-03    0.257E-04
DAV:   5    -0.366250300217E+02   -0.70087E-07   -0.36160E-08    48   0.129E-03    0.987E-05
DAV:   6    -0.366250300745E+02   -0.52847E-07   -0.15281E-08    48   0.651E-04
   4 F= -.36625030E+02 E0= -.36625030E+02  d E =-.150660E-03
       N       E                     dE             d eps       ncg     rms          rms(c)
DAV:   1    -0.366252203927E+02   -0.19037E-03   -0.60216E-04    96   0.215E-01    0.448E-03
DAV:   2    -0.366252206483E+02   -0.25562E-06   -0.69944E-06    48   0.208E-02    0.310E-03
DAV:   3    -0.366252207788E+02   -0.13049E-06   -0.80495E-07    64   0.774E-03    0.106E-03
DAV:   4    -0.366252208609E+02   -0.82139E-07   -0.20916E-07    48   0.361E-03    0.320E-04
DAV:   5    -0.366252208804E+02   -0.19479E-07   -0.54649E-08    64   0.162E-03    0.134E-04
DAV:   6    -0.366252208999E+02   -0.19506E-07   -0.25056E-08    48   0.818E-04
   5 F= -.36625221E+02 E0= -.36625221E+02  d E =-.190825E-03
       N       E                     dE             d eps       ncg     rms          rms(c)
DAV:   1    -0.366254416266E+02   -0.22075E-03   -0.78379E-04    96   0.244E-01    0.512E-03
DAV:   2    -0.366254419523E+02   -0.32567E-06   -0.92152E-06    48   0.238E-02    0.354E-03
DAV:   3    -0.366254420991E+02   -0.14688E-06   -0.10726E-06    48   0.891E-03    0.123E-03
DAV:   4    -0.366254421958E+02   -0.96647E-07   -0.27889E-07    48   0.414E-03    0.392E-04
DAV:   5    -0.366254422095E+02   -0.13697E-07   -0.75387E-08    48   0.187E-03    0.148E-04
DAV:   6    -0.366254422257E+02   -0.16227E-07   -0.34607E-08    48   0.937E-04
   6 F= -.36625442E+02 E0= -.36625442E+02  d E =-.221326E-03
       N       E                     dE             d eps       ncg     rms          rms(c)
DAV:   1    -0.366256814450E+02   -0.23924E-03   -0.87323E-04    96   0.257E-01    0.554E-03
DAV:   2    -0.366256817262E+02   -0.28124E-06   -0.10266E-05    48   0.253E-02    0.383E-03
DAV:   3    -0.366256818533E+02   -0.12705E-06   -0.12055E-06    48   0.944E-03    0.145E-03
DAV:   4    -0.366256819654E+02   -0.11210E-06   -0.33426E-07    48   0.461E-03    0.458E-04
DAV:   5    -0.366256819843E+02   -0.18897E-07   -0.86511E-08    48   0.206E-03    0.211E-04
DAV:   6    -0.366256820054E+02   -0.21073E-07   -0.37607E-08    48   0.103E-03
   7 F= -.36625682E+02 E0= -.36625682E+02  d E =-.239780E-03
       N       E                     dE             d eps       ncg     rms          rms(c)
DAV:   1    -0.366259410700E+02   -0.25909E-03   -0.10371E-03    96   0.285E-01    0.655E-03
DAV:   2    -0.366259413730E+02   -0.30300E-06   -0.13266E-05    52   0.294E-02    0.442E-03
DAV:   3    -0.366259414647E+02   -0.91676E-07   -0.17239E-06    48   0.114E-02    0.208E-03
DAV:   4    -0.366259416439E+02   -0.17920E-06   -0.53923E-07    48   0.626E-03    0.689E-04
DAV:   5    -0.366259416663E+02   -0.22405E-07   -0.12511E-07    48   0.277E-03    0.220E-04
DAV:   6    -0.366259416920E+02   -0.25755E-07   -0.44234E-08    48   0.125E-03
   8 F= -.36625942E+02 E0= -.36625942E+02  d E =-.259687E-03
       N       E                     dE             d eps       ncg     rms          rms(c)
DAV:   1    -0.366259445949E+02   -0.29286E-05   -0.19724E-05    48   0.406E-02    0.195E-03
DAV:   2    -0.366259446071E+02   -0.12190E-07   -0.92888E-07    48   0.950E-03    0.103E-03
DAV:   3    -0.366259446080E+02   -0.96247E-09   -0.10487E-07    48   0.286E-03    0.579E-04
DAV:   4    -0.366259446449E+02   -0.36861E-07   -0.69421E-08    48   0.212E-03    0.191E-04
DAV:   5    -0.366259446668E+02   -0.21909E-07   -0.23711E-08    48   0.935E-04    0.124E-04
DAV:   6    -0.366259446971E+02   -0.30313E-07   -0.16129E-08    48   0.446E-04
   9 F= -.36625945E+02 E0= -.36625945E+02  d E =-.300509E-05
       N       E                     dE             d eps       ncg     rms          rms(c)
DAV:   1    -0.366259493570E+02   -0.46902E-05   -0.30700E-05    48   0.506E-02    0.243E-03
DAV:   2    -0.366259493675E+02   -0.10502E-07   -0.14517E-06    48   0.119E-02    0.129E-03
DAV:   3    -0.366259493478E+02    0.19669E-07   -0.15823E-07    48   0.361E-03    0.722E-04
DAV:   4    -0.366259493639E+02   -0.16114E-07   -0.10381E-07    48   0.271E-03    0.244E-04
DAV:   5    -0.366259493762E+02   -0.12277E-07   -0.28933E-08    48   0.119E-03    0.160E-04
DAV:   6    -0.366259493905E+02   -0.14271E-07   -0.16798E-08    48   0.562E-04
  10 F= -.36625949E+02 E0= -.36625949E+02  d E =-.469333E-05
       N       E                     dE             d eps       ncg     rms          rms(c)
DAV:   1    -0.366259503589E+02   -0.98274E-06   -0.58097E-07    48   0.694E-03    0.326E-04
DAV:   2    -0.366259503694E+02   -0.10500E-07   -0.37580E-08    48   0.160E-03    0.169E-04
DAV:   3    -0.366259503785E+02   -0.90720E-08   -0.14517E-08    48   0.464E-04    0.962E-05
DAV:   4    -0.366259503906E+02   -0.12111E-07   -0.13276E-08    48   0.336E-04    0.289E-05
DAV:   5    -0.366259503935E+02   -0.29020E-08   -0.12100E-08    48   0.145E-04    0.196E-05
DAV:   6    -0.366259503977E+02   -0.41950E-08   -0.11839E-08    48   0.667E-05
  11 F= -.36625950E+02 E0= -.36625950E+02  d E =-.100725E-05
       N       E                     dE             d eps       ncg     rms          rms(c)
DAV:   1    -0.366259524339E+02   -0.20404E-05   -0.18851E-06    48   0.126E-02    0.605E-04
DAV:   2    -0.366259524437E+02   -0.97878E-08   -0.98444E-08    48   0.293E-03    0.318E-04
DAV:   3    -0.366259524476E+02   -0.38829E-08   -0.20316E-08    48   0.886E-04    0.180E-04
DAV:   4    -0.366259524520E+02   -0.44042E-08   -0.17184E-08    48   0.675E-04    0.600E-05
DAV:   5    -0.366259524514E+02    0.53251E-09   -0.12478E-08    48   0.297E-04    0.392E-05
DAV:   6    -0.366259524516E+02   -0.21328E-09   -0.11710E-08    48   0.138E-04
  12 F= -.36625952E+02 E0= -.36625952E+02  d E =-.205394E-05
       N       E                     dE             d eps       ncg     rms          rms(c)
DAV:   1    -0.366259558857E+02   -0.34343E-05   -0.29693E-06    48   0.158E-02    0.754E-04
DAV:   2    -0.366259558957E+02   -0.10016E-07   -0.14908E-07    48   0.369E-03    0.398E-04
DAV:   3    -0.366259558979E+02   -0.21471E-08   -0.25280E-08    48   0.112E-03    0.226E-04
DAV:   4    -0.366259558999E+02   -0.20241E-08   -0.20476E-08    48   0.854E-04    0.752E-05
DAV:   5    -0.366259558987E+02    0.11662E-08   -0.12999E-08    48   0.376E-04    0.493E-05
DAV:   6    -0.366259558981E+02    0.61686E-09   -0.11787E-08    48   0.175E-04
  13 F= -.36625956E+02 E0= -.36625956E+02  d E =-.344647E-05
       N       E                     dE             d eps       ncg     rms          rms(c)
DAV:   1    -0.366259619751E+02   -0.60764E-05   -0.27406E-06    48   0.153E-02    0.701E-04
DAV:   2    -0.366259619847E+02   -0.95835E-08   -0.13917E-07    48   0.359E-03    0.376E-04
DAV:   3    -0.366259619865E+02   -0.18508E-08   -0.24394E-08    48   0.108E-03    0.216E-04
DAV:   4    -0.366259619883E+02   -0.17653E-08   -0.19815E-08    48   0.826E-04    0.715E-05
DAV:   5    -0.366259619872E+02    0.11048E-08   -0.12952E-08    48   0.364E-04    0.476E-05
DAV:   6    -0.366259619867E+02    0.55388E-09   -0.11805E-08    48   0.169E-04
  14 F= -.36625962E+02 E0= -.36625962E+02  d E =-.608854E-05
       N       E                     dE             d eps       ncg     rms          rms(c)
DAV:   1    -0.366259624823E+02   -0.49511E-06   -0.17053E-08    48   0.699E-04    0.265E-05
DAV:   2    -0.366259624824E+02   -0.11300E-09   -0.11652E-08    48   0.169E-04    0.154E-05
DAV:   3    -0.366259624824E+02    0.30923E-10   -0.11426E-08    48   0.523E-05    0.921E-06
DAV:   4    -0.366259624826E+02   -0.16485E-09   -0.11372E-08    48   0.302E-05    0.227E-06
DAV:   5    -0.366259624826E+02   -0.32060E-10   -0.11381E-08    48   0.140E-05    0.171E-06
DAV:   6    -0.366259624827E+02   -0.12187E-09   -0.11386E-08    48   0.758E-06
  15 F= -.36625962E+02 E0= -.36625962E+02  d E =-.496068E-06
       N       E                     dE             d eps       ncg     rms          rms(c)
DAV:   1    -0.366259636198E+02   -0.11372E-05   -0.34625E-08    48   0.141E-03    0.566E-05
DAV:   2    -0.366259636193E+02    0.49749E-09   -0.12473E-08    48   0.327E-04    0.328E-05
DAV:   3    -0.366259636188E+02    0.42110E-09   -0.11454E-08    48   0.982E-05    0.187E-05
DAV:   4    -0.366259636188E+02    0.76852E-10   -0.11393E-08    48   0.710E-05    0.653E-06
DAV:   5    -0.366259636188E+02   -0.68212E-10   -0.11369E-08    48   0.315E-05    0.457E-06
DAV:   6    -0.366259636190E+02   -0.19645E-09   -0.11352E-08    48   0.157E-05
  16 F= -.36625964E+02 E0= -.36625964E+02  d E =-.113631E-05
       N       E                     dE             d eps       ncg     rms          rms(c)
DAV:   1    -0.366259655748E+02   -0.19559E-05   -0.64164E-08    48   0.212E-03    0.810E-05
DAV:   2    -0.366259655738E+02    0.97862E-09   -0.13836E-08    48   0.491E-04    0.480E-05
DAV:   3    -0.366259655734E+02    0.38585E-09   -0.11600E-08    48   0.147E-04    0.276E-05
DAV:   4    -0.366259655731E+02    0.34879E-09   -0.11506E-08    48   0.105E-04    0.970E-06
DAV:   5    -0.366259655732E+02   -0.14484E-09   -0.11379E-08    48   0.466E-05    0.683E-06
DAV:   6    -0.366259655732E+02    0.22510E-10   -0.11365E-08    48   0.237E-05
  17 F= -.36625966E+02 E0= -.36625966E+02  d E =-.195416E-05
       N       E                     dE             d eps       ncg     rms          rms(c)
DAV:   1    -0.366259685603E+02   -0.29871E-05   -0.10629E-07    48   0.285E-03    0.101E-04
DAV:   2    -0.366259685593E+02    0.99112E-09   -0.15748E-08    48   0.654E-04    0.618E-05
DAV:   3    -0.366259685588E+02    0.50613E-09   -0.11804E-08    48   0.196E-04    0.360E-05
DAV:   4    -0.366259685584E+02    0.41473E-09   -0.11550E-08    48   0.135E-04    0.126E-05
DAV:   5    -0.366259685587E+02   -0.26284E-09   -0.11391E-08    48   0.606E-05    0.904E-06
DAV:   6    -0.366259685587E+02   -0.17963E-10   -0.11329E-08    48   0.314E-05
  18 F= -.36625969E+02 E0= -.36625969E+02  d E =-.298549E-05
       N       E                     dE             d eps       ncg     rms          rms(c)
DAV:   1    -0.366259728219E+02   -0.42632E-05   -0.16317E-07    48   0.360E-03    0.118E-04
DAV:   2    -0.366259728209E+02    0.93132E-09   -0.18181E-08    48   0.819E-04    0.739E-05
DAV:   3    -0.366259728204E+02    0.54274E-09   -0.12025E-08    48   0.245E-04    0.434E-05
DAV:   4    -0.366259728198E+02    0.56639E-09   -0.11631E-08    48   0.161E-04    0.153E-05
DAV:   5    -0.366259728201E+02   -0.32401E-09   -0.11391E-08    48   0.724E-05    0.112E-05
DAV:   6    -0.366259728202E+02   -0.67757E-10   -0.11325E-08    48   0.378E-05
  19 F= -.36625973E+02 E0= -.36625973E+02  d E =-.426152E-05
       N       E                     dE             d eps       ncg     rms          rms(c)
DAV:   1    -0.366259786309E+02   -0.58108E-05   -0.24055E-07    48   0.442E-03    0.133E-04
DAV:   2    -0.366259786299E+02    0.10211E-08   -0.21385E-08    48   0.994E-04    0.846E-05
DAV:   3    -0.366259786293E+02    0.54911E-09   -0.12391E-08    48   0.296E-04    0.497E-05
DAV:   4    -0.366259786287E+02    0.59754E-09   -0.11719E-08    48   0.180E-04    0.177E-05
DAV:   5    -0.366259786291E+02   -0.36516E-09   -0.11423E-08    48   0.819E-05    0.130E-05
DAV:   6    -0.366259786291E+02   -0.12051E-10   -0.11323E-08    48   0.426E-05
  20 F= -.36625979E+02 E0= -.36625979E+02  d E =-.580890E-05
       N       E                     dE             d eps       ncg     rms          rms(c)
DAV:   1    -0.366259872596E+02   -0.86305E-05   -0.43670E-07    48   0.599E-03    0.166E-04
DAV:   2    -0.366259872590E+02    0.54843E-09   -0.29312E-08    48   0.134E-03    0.106E-04
DAV:   3    -0.366259872584E+02    0.62755E-09   -0.13308E-08    48   0.397E-04    0.615E-05
DAV:   4    -0.366259872578E+02    0.56320E-09   -0.11969E-08    48   0.220E-04    0.225E-05
DAV:   5    -0.366259872580E+02   -0.14120E-09   -0.11483E-08    48   0.101E-04    0.159E-05
DAV:   6    -0.366259872580E+02    0.45475E-11   -0.11375E-08    48   0.534E-05
  21 F= -.36625987E+02 E0= -.36625987E+02  d E =-.862888E-05
       N       E                     dE             d eps       ncg     rms          rms(c)
DAV:   1    -0.366259999431E+02   -0.12685E-04   -0.81906E-07    48   0.822E-03    0.213E-04
DAV:   2    -0.366259999432E+02   -0.11846E-09   -0.44321E-08    48   0.182E-03    0.133E-04
DAV:   3    -0.366259999426E+02    0.61937E-09   -0.15087E-08    48   0.542E-04    0.751E-05
DAV:   4    -0.366259999420E+02    0.57844E-09   -0.12395E-08    48   0.274E-04    0.288E-05
DAV:   5    -0.366259999421E+02   -0.12619E-09   -0.11626E-08    48   0.128E-04    0.185E-05
DAV:   6    -0.366259999422E+02   -0.12778E-09   -0.11390E-08    48   0.707E-05
  22 F= -.36626000E+02 E0= -.36626000E+02  d E =-.126843E-04
       N       E                     dE             d eps       ncg     rms          rms(c)
DAV:   1    -0.366260183894E+02   -0.18447E-04   -0.15809E-06    48   0.114E-02    0.281E-04
DAV:   2    -0.366260183918E+02   -0.24454E-08   -0.73730E-08    48   0.253E-03    0.173E-04
DAV:   3    -0.366260183916E+02    0.18099E-09   -0.18645E-08    48   0.754E-04    0.923E-05
DAV:   4    -0.366260183912E+02    0.45134E-09   -0.13295E-08    48   0.354E-04    0.359E-05
DAV:   5    -0.366260183912E+02   -0.33197E-10   -0.11895E-08    48   0.169E-04    0.213E-05
DAV:   6    -0.366260183914E+02   -0.13210E-09   -0.11500E-08    48   0.971E-05
  23 F= -.36626018E+02 E0= -.36626018E+02  d E =-.184491E-04
       N       E                     dE             d eps       ncg     rms          rms(c)
DAV:   1    -0.366260448824E+02   -0.26491E-04   -0.31011E-06    48   0.160E-02    0.382E-04
DAV:   2    -0.366260448891E+02   -0.67428E-08   -0.13211E-07    48   0.353E-03    0.230E-04
DAV:   3    -0.366260448903E+02   -0.11300E-08   -0.25889E-08    48   0.106E-03    0.117E-04
DAV:   4    -0.366260448902E+02    0.24556E-10   -0.15132E-08    48   0.477E-04    0.444E-05
DAV:   5    -0.366260448901E+02    0.12574E-09   -0.12502E-08    48   0.231E-04    0.255E-05
DAV:   6    -0.366260448900E+02    0.11778E-09   -0.11719E-08    48   0.134E-04
  24 F= -.36626045E+02 E0= -.36626045E+02  d E =-.264986E-04
       N       E                     dE             d eps       ncg     rms          rms(c)
DAV:   1    -0.366260815959E+02   -0.36706E-04   -0.58328E-06    48   0.220E-02    0.516E-04
DAV:   2    -0.366260816104E+02   -0.14492E-07   -0.23719E-07    48   0.485E-03    0.308E-04
DAV:   3    -0.366260816143E+02   -0.39527E-08   -0.39073E-08    48   0.146E-03    0.154E-04
DAV:   4    -0.366260816146E+02   -0.29172E-09   -0.18409E-08    48   0.645E-04    0.545E-05
DAV:   5    -0.366260816145E+02    0.11096E-09   -0.13519E-08    48   0.314E-04    0.309E-05
DAV:   6    -0.366260816144E+02    0.12778E-09   -0.12099E-08    48   0.182E-04
  25 F= -.36626082E+02 E0= -.36626082E+02  d E =-.367244E-04
       N       E                     dE             d eps       ncg     rms          rms(c)
DAV:   1    -0.366261311889E+02   -0.49574E-04   -0.10622E-05    48   0.297E-02    0.691E-04
DAV:   2    -0.366261312177E+02   -0.28836E-07   -0.42270E-07    48   0.655E-03    0.414E-04
DAV:   3    -0.366261312259E+02   -0.82157E-08   -0.62347E-08    48   0.198E-03    0.207E-04
DAV:   4    -0.366261312274E+02   -0.14954E-08   -0.24252E-08    48   0.870E-04    0.685E-05
DAV:   5    -0.366261312271E+02    0.27603E-09   -0.15381E-08    48   0.423E-04    0.384E-05
DAV:   6    -0.366261312266E+02    0.52728E-09   -0.12695E-08    48   0.243E-04
  26 F= -.36626131E+02 E0= -.36626131E+02  d E =-.496122E-04
       N       E                     dE             d eps       ncg     rms          rms(c)
DAV:   1    -0.366261969167E+02   -0.65690E-04   -0.18844E-05    48   0.396E-02    0.919E-04
DAV:   2    -0.366261969697E+02   -0.53047E-07   -0.74403E-07    48   0.875E-03    0.553E-04
DAV:   3    -0.366261969856E+02   -0.15855E-07   -0.10273E-07    48   0.265E-03    0.282E-04
DAV:   4    -0.366261969891E+02   -0.35202E-08   -0.34304E-08    48   0.116E-03    0.889E-05
DAV:   5    -0.366261969888E+02    0.23306E-09   -0.18458E-08    48   0.564E-04    0.495E-05
DAV:   6    -0.366261969877E+02    0.11080E-08   -0.13778E-08    48   0.321E-04
  27 F= -.36626197E+02 E0= -.36626197E+02  d E =-.657611E-04
       N       E                     dE             d eps       ncg     rms          rms(c)
DAV:   1    -0.366262826830E+02   -0.85694E-04   -0.32633E-05    48   0.521E-02    0.121E-03
DAV:   2    -0.366262827764E+02   -0.93395E-07   -0.12893E-06    48   0.116E-02    0.730E-04
DAV:   3    -0.366262828046E+02   -0.28255E-07   -0.17067E-07    48   0.350E-03    0.378E-04
DAV:   4    -0.366262828115E+02   -0.68965E-08   -0.51181E-08    48   0.154E-03    0.116E-04
DAV:   5    -0.366262828116E+02   -0.45929E-10   -0.23717E-08    48   0.746E-04    0.649E-05
DAV:   6    -0.366262828104E+02    0.11344E-08   -0.15532E-08    48   0.422E-04
  28 F= -.36626283E+02 E0= -.36626283E+02  d E =-.858227E-04
       N       E                     dE             d eps       ncg     rms          rms(c)
DAV:   1    -0.366263929555E+02   -0.11014E-03   -0.55082E-05    48   0.676E-02    0.156E-03
DAV:   2    -0.366263931155E+02   -0.15999E-06   -0.21849E-06    48   0.151E-02    0.948E-04
DAV:   3    -0.366263931635E+02   -0.47968E-07   -0.28141E-07    48   0.455E-03    0.492E-04
DAV:   4    -0.366263931763E+02   -0.12839E-07   -0.78772E-08    48   0.200E-03    0.149E-04
DAV:   5    -0.366263931766E+02   -0.28285E-09   -0.32366E-08    48   0.972E-04    0.843E-05
DAV:   6    -0.366263931749E+02    0.17194E-08   -0.18513E-08    48   0.550E-04
  29 F= -.36626393E+02 E0= -.36626393E+02  d E =-.110364E-03
       N       E                     dE             d eps       ncg     rms          rms(c)
DAV:   1    -0.366265325927E+02   -0.13942E-03   -0.90792E-05    48   0.866E-02    0.200E-03
DAV:   2    -0.366265328611E+02   -0.26838E-06   -0.36239E-06    48   0.194E-02    0.121E-03
DAV:   3    -0.366265329406E+02   -0.79541E-07   -0.45731E-07    48   0.585E-03    0.623E-04
DAV:   4    -0.366265329629E+02   -0.22296E-07   -0.12270E-07    48   0.258E-03    0.186E-04
DAV:   5    -0.366265329638E+02   -0.81855E-09   -0.46202E-08    48   0.125E-03    0.108E-04
DAV:   6    -0.366265329613E+02    0.24172E-08   -0.23187E-08    48   0.712E-04
  30 F= -.36626533E+02 E0= -.36626533E+02  d E =-.139786E-03
       N       E                     dE             d eps       ncg     rms          rms(c)
DAV:   1    -0.366267066931E+02   -0.17373E-03   -0.14906E-04    96   0.109E-01    0.237E-03
DAV:   2    -0.366267066861E+02    0.69548E-08   -0.14098E-06    48   0.998E-03    0.159E-03
DAV:   3    -0.366267067441E+02   -0.57938E-07   -0.23085E-07    48   0.390E-03    0.451E-04
DAV:   4    -0.366267067559E+02   -0.11864E-07   -0.64097E-08    48   0.171E-03    0.156E-04
DAV:   5    -0.366267067567E+02   -0.77648E-09   -0.27386E-08    48   0.870E-04    0.879E-05
DAV:   6    -0.366267067590E+02   -0.22612E-08   -0.17828E-08    48   0.485E-04
  31 F= -.36626707E+02 E0= -.36626707E+02  d E =-.173798E-03
       N       E                     dE             d eps       ncg     rms          rms(c)
DAV:   1    -0.366269186186E+02   -0.21186E-03   -0.22713E-04    96   0.134E-01    0.291E-03
DAV:   2    -0.366269186253E+02   -0.66564E-08   -0.21781E-06    48   0.124E-02    0.196E-03
DAV:   3    -0.366269187071E+02   -0.81866E-07   -0.33817E-07    48   0.482E-03    0.556E-04
DAV:   4    -0.366269187262E+02   -0.19101E-07   -0.88333E-08    48   0.210E-03    0.187E-04
DAV:   5    -0.366269187285E+02   -0.22596E-08   -0.33824E-08    48   0.105E-03    0.107E-04
DAV:   6    -0.366269187334E+02   -0.49279E-08   -0.20425E-08    48   0.587E-04
  32 F= -.36626919E+02 E0= -.36626919E+02  d E =-.211974E-03
       N       E                     dE             d eps       ncg     rms          rms(c)
DAV:   1    -0.366271717904E+02   -0.25306E-03   -0.33304E-04    96   0.162E-01    0.352E-03
DAV:   2    -0.366271718184E+02   -0.27983E-07   -0.32719E-06    48   0.152E-02    0.238E-03
DAV:   3    -0.366271719382E+02   -0.11980E-06   -0.49172E-07    48   0.587E-03    0.680E-04
DAV:   4    -0.366271719688E+02   -0.30634E-07   -0.12349E-07    48   0.256E-03    0.220E-04
DAV:   5    -0.366271719728E+02   -0.39906E-08   -0.43571E-08    48   0.126E-03    0.123E-04
DAV:   6    -0.366271719798E+02   -0.69842E-08   -0.24145E-08    48   0.703E-04
  33 F= -.36627172E+02 E0= -.36627172E+02  d E =-.253246E-03
       N       E                     dE             d eps       ncg     rms          rms(c)
DAV:   1    -0.366274663604E+02   -0.29439E-03   -0.46677E-04    96   0.192E-01    0.415E-03
DAV:   2    -0.366274664191E+02   -0.58731E-07   -0.47211E-06    48   0.182E-02    0.282E-03
DAV:   3    -0.366274665898E+02   -0.17068E-06   -0.68757E-07    48   0.697E-03    0.834E-04
DAV:   4    -0.366274666390E+02   -0.49190E-07   -0.16660E-07    48   0.304E-03    0.261E-04
DAV:   5    -0.366274666461E+02   -0.71066E-08   -0.55352E-08    48   0.148E-03    0.136E-04
DAV:   6    -0.366274666563E+02   -0.10244E-07   -0.28423E-08    48   0.808E-04
  34 F= -.36627467E+02 E0= -.36627467E+02  d E =-.294677E-03
       N       E                     dE             d eps       ncg     rms          rms(c)
DAV:   1    -0.366277973917E+02   -0.33075E-03   -0.62138E-04    96   0.222E-01    0.478E-03
DAV:   2    -0.366277975146E+02   -0.12288E-06   -0.65215E-06    48   0.213E-02    0.326E-03
DAV:   3    -0.366277977291E+02   -0.21452E-06   -0.91494E-07    48   0.810E-03    0.102E-03
DAV:   4    -0.366277978050E+02   -0.75934E-07   -0.21687E-07    48   0.355E-03    0.318E-04
DAV:   5    -0.366277978157E+02   -0.10705E-07   -0.68037E-08    48   0.169E-03    0.151E-04
DAV:   6    -0.366277978296E+02   -0.13846E-07   -0.32773E-08    48   0.913E-04
  35 F= -.36627798E+02 E0= -.36627798E+02  d E =-.331173E-03
       N       E                     dE             d eps       ncg     rms          rms(c)
DAV:   1    -0.366281492628E+02   -0.35145E-03   -0.76700E-04    96   0.246E-01    0.530E-03
DAV:   2    -0.366281494719E+02   -0.20916E-06   -0.83276E-06    48   0.238E-02    0.362E-03
DAV:   3    -0.366281497194E+02   -0.24752E-06   -0.11143E-06    48   0.906E-03    0.113E-03
DAV:   4    -0.366281498131E+02   -0.93671E-07   -0.26258E-07    48   0.401E-03    0.353E-04
DAV:   5    -0.366281498276E+02   -0.14526E-07   -0.77720E-08    48   0.186E-03    0.165E-04
DAV:   6    -0.366281498442E+02   -0.16585E-07   -0.36286E-08    48   0.100E-03
  36 F= -.36628150E+02 E0= -.36628150E+02  d E =-.352015E-03
       N       E                     dE             d eps       ncg     rms          rms(c)
DAV:   1    -0.366284903476E+02   -0.34052E-03   -0.84961E-04    96   0.259E-01    0.557E-03
DAV:   2    -0.366284906025E+02   -0.25493E-06   -0.94723E-06    48   0.251E-02    0.381E-03
DAV:   3    -0.366284908527E+02   -0.25018E-06   -0.12033E-06    48   0.953E-03    0.117E-03
DAV:   4    -0.366284909553E+02   -0.10260E-06   -0.28933E-07    48   0.430E-03    0.364E-04
DAV:   5    -0.366284909717E+02   -0.16395E-07   -0.79836E-08    48   0.192E-03    0.168E-04
DAV:   6    -0.366284909924E+02   -0.20693E-07   -0.37119E-08    48   0.103E-03
  37 F= -.36628491E+02 E0= -.36628491E+02  d E =-.341148E-03
       N       E                     dE             d eps       ncg     rms          rms(c)
DAV:   1    -0.366284861916E+02    0.47801E-05   -0.26394E-07    48   0.469E-03    0.121E-04
DAV:   2    -0.366284862147E+02   -0.23159E-07   -0.26532E-08    48   0.113E-03    0.766E-05
DAV:   3    -0.366284862419E+02   -0.27130E-07   -0.14457E-08    48   0.402E-04    0.479E-05
DAV:   4    -0.366284862791E+02   -0.37216E-07   -0.13134E-08    48   0.226E-04    0.212E-05
DAV:   5    -0.366284863108E+02   -0.31760E-07   -0.12735E-08    48   0.144E-04    0.140E-05
DAV:   6    -0.366284863701E+02   -0.59256E-07   -0.13313E-08    56   0.134E-04
  38 F= -.36628486E+02 E0= -.36628486E+02  d E =0.462230E-05
       N       E                     dE             d eps       ncg     rms          rms(c)
DAV:   1    -0.366284776947E+02    0.86161E-05   -0.85913E-07    48   0.869E-03    0.206E-04
DAV:   2    -0.366284777103E+02   -0.15625E-07   -0.49749E-08    48   0.197E-03    0.127E-04
DAV:   3    -0.366284777238E+02   -0.13427E-07   -0.16508E-08    48   0.593E-04    0.704E-05
DAV:   4    -0.366284777375E+02   -0.13692E-07   -0.13361E-08    48   0.292E-04    0.273E-05
DAV:   5    -0.366284777453E+02   -0.78892E-08   -0.12409E-08    48   0.144E-04    0.173E-05
DAV:   6    -0.366284777539E+02   -0.85053E-08   -0.11987E-08    48   0.832E-05
  39 F= -.36628478E+02 E0= -.36628478E+02  d E =0.861624E-05
       N       E                     dE             d eps       ncg     rms          rms(c)
DAV:   1    -0.366284666574E+02    0.11088E-04   -0.15431E-06    48   0.117E-02    0.265E-04
DAV:   2    -0.366284666671E+02   -0.97164E-08   -0.78858E-08    48   0.265E-03    0.161E-04
DAV:   3    -0.366284666720E+02   -0.48997E-08   -0.19483E-08    48   0.795E-04    0.861E-05
DAV:   4    -0.366284666755E+02   -0.34995E-08   -0.13636E-08    48   0.376E-04    0.323E-05
DAV:   5    -0.366284666768E+02   -0.12944E-08   -0.12231E-08    48   0.182E-04    0.198E-05
DAV:   6    -0.366284666782E+02   -0.13777E-08   -0.11763E-08    48   0.102E-04
  40 F= -.36628467E+02 E0= -.36628467E+02  d E =0.110757E-04
       N       E                     dE             d eps       ncg     rms          rms(c)
DAV:   1    -0.366284553372E+02    0.11340E-04   -0.21188E-06    48   0.137E-02    0.294E-04
DAV:   2    -0.366284553459E+02   -0.87125E-08   -0.10452E-07    48   0.313E-03    0.175E-04
DAV:   3    -0.366284553488E+02   -0.28879E-08   -0.22590E-08    48   0.940E-04    0.950E-05
DAV:   4    -0.366284553504E+02   -0.16826E-08   -0.14191E-08    48   0.432E-04    0.328E-05
DAV:   5    -0.366284553507E+02   -0.29604E-09   -0.12316E-08    48   0.209E-04    0.189E-05
DAV:   6    -0.366284553511E+02   -0.41382E-09   -0.11776E-08    48   0.118E-04
  41 F= -.36628455E+02 E0= -.36628455E+02  d E =0.113270E-04
       N       E                     dE             d eps       ncg     rms          rms(c)
DAV:   1    -0.366284467892E+02    0.85615E-05   -0.25887E-06    48   0.151E-02    0.319E-04
DAV:   2    -0.366284467984E+02   -0.91309E-08   -0.12812E-07    48   0.347E-03    0.189E-04
DAV:   3    -0.366284468006E+02   -0.22505E-08   -0.25569E-08    48   0.105E-03    0.114E-04
DAV:   4    -0.366284468020E+02   -0.13933E-08   -0.14835E-08    48   0.482E-04    0.349E-05
DAV:   5    -0.366284468022E+02   -0.19827E-09   -0.12522E-08    48   0.233E-04    0.199E-05
DAV:   6    -0.366284468026E+02   -0.39768E-09   -0.11825E-08    48   0.129E-04
  42 F= -.36628447E+02 E0= -.36628447E+02  d E =0.854853E-05
       N       E                     dE             d eps       ncg     rms          rms(c)
DAV:   1    -0.366284443987E+02    0.24035E-05   -0.31384E-06    48   0.165E-02    0.359E-04
DAV:   2    -0.366284444088E+02   -0.10034E-07   -0.15663E-07    48   0.383E-03    0.216E-04
DAV:   3    -0.366284444107E+02   -0.19913E-08   -0.28562E-08    48   0.114E-03    0.140E-04
DAV:   4    -0.366284444115E+02   -0.80081E-09   -0.15597E-08    48   0.545E-04    0.388E-05
DAV:   5    -0.366284444122E+02   -0.63255E-09   -0.12738E-08    48   0.262E-04    0.259E-05
DAV:   6    -0.366284444123E+02   -0.93451E-10   -0.11893E-08    48   0.142E-04
  43 F= -.36628444E+02 E0= -.36628444E+02  d E =0.239034E-05
       N       E                     dE             d eps       ncg     rms          rms(c)
DAV:   1    -0.366284526613E+02   -0.82491E-05   -0.52126E-06    48   0.210E-02    0.453E-04
DAV:   2    -0.366284526782E+02   -0.16877E-07   -0.25322E-07    48   0.489E-03    0.284E-04
DAV:   3    -0.366284526808E+02   -0.26369E-08   -0.38854E-08    48   0.143E-03    0.179E-04
DAV:   4    -0.366284526817E+02   -0.88653E-09   -0.18282E-08    48   0.708E-04    0.418E-05
DAV:   5    -0.366284526823E+02   -0.56571E-09   -0.13578E-08    48   0.334E-04    0.368E-05
DAV:   6    -0.366284526823E+02    0.11369E-11   -0.12119E-08    48   0.178E-04
  44 F= -.36628453E+02 E0= -.36628453E+02  d E =-.827000E-05
       N       E                     dE             d eps       ncg     rms          rms(c)
DAV:   1    -0.366284788875E+02   -0.26205E-04   -0.10578E-05    48   0.294E-02    0.619E-04
DAV:   2    -0.366284789225E+02   -0.34999E-07   -0.49001E-07    48   0.683E-03    0.404E-04
DAV:   3    -0.366284789293E+02   -0.68198E-08   -0.64349E-08    48   0.197E-03    0.230E-04
DAV:   4    -0.366284789312E+02   -0.18870E-08   -0.24533E-08    48   0.955E-04    0.514E-05
DAV:   5    -0.366284789317E+02   -0.51136E-09   -0.15626E-08    48   0.452E-04    0.482E-05
DAV:   6    -0.366284789316E+02    0.10709E-09   -0.12813E-08    48   0.243E-04
  45 F= -.36628479E+02 E0= -.36628479E+02  d E =-.262493E-04
       N       E                     dE             d eps       ncg     rms          rms(c)
DAV:   1    -0.366285334368E+02   -0.54505E-04   -0.25136E-05    48   0.450E-02    0.971E-04
DAV:   2    -0.366285335189E+02   -0.82174E-07   -0.11053E-06    48   0.104E-02    0.623E-04
DAV:   3    -0.366285335395E+02   -0.20601E-07   -0.13424E-07    48   0.303E-03    0.318E-04
DAV:   4    -0.366285335448E+02   -0.52860E-08   -0.41260E-08    48   0.140E-03    0.689E-05
DAV:   5    -0.366285335453E+02   -0.45270E-09   -0.21065E-08    48   0.668E-04    0.613E-05
DAV:   6    -0.366285335446E+02    0.70941E-09   -0.14678E-08    48   0.370E-04
  46 F= -.36628534E+02 E0= -.36628534E+02  d E =-.546129E-04
       N       E                     dE             d eps       ncg     rms          rms(c)
DAV:   1    -0.366286240623E+02   -0.90517E-04   -0.56936E-05    48   0.677E-02    0.150E-03
DAV:   2    -0.366286242467E+02   -0.18441E-06   -0.24357E-06    48   0.156E-02    0.944E-04
DAV:   3    -0.366286242962E+02   -0.49564E-07   -0.29224E-07    48   0.461E-03    0.491E-04
DAV:   4    -0.366286243101E+02   -0.13853E-07   -0.79830E-08    48   0.210E-03    0.119E-04
DAV:   5    -0.366286243102E+02   -0.11573E-09   -0.33138E-08    48   0.101E-03    0.896E-05
DAV:   6    -0.366286243085E+02    0.16934E-08   -0.18739E-08    48   0.560E-04
  47 F= -.36628624E+02 E0= -.36628624E+02  d E =-.907639E-04
       N       E                     dE             d eps       ncg     rms          rms(c)
DAV:   1    -0.366287605879E+02   -0.13628E-03   -0.12391E-04    80   0.980E-02    0.212E-03
DAV:   2    -0.366287606027E+02   -0.14743E-07   -0.13596E-06    48   0.958E-03    0.144E-03
DAV:   3    -0.366287606426E+02   -0.39954E-07   -0.19612E-07    48   0.368E-03    0.480E-04
DAV:   4    -0.366287606561E+02   -0.13489E-07   -0.55176E-08    48   0.166E-03    0.151E-04
DAV:   5    -0.366287606560E+02    0.16735E-09   -0.23619E-08    48   0.783E-04    0.724E-05
DAV:   6    -0.366287606567E+02   -0.74328E-09   -0.16180E-08    48   0.416E-04
  48 F= -.36628761E+02 E0= -.36628761E+02  d E =-.136348E-03
       N       E                     dE             d eps       ncg     rms          rms(c)
DAV:   1    -0.366289530055E+02   -0.19235E-03   -0.24203E-04    96   0.137E-01    0.295E-03
DAV:   2    -0.366289530398E+02   -0.34296E-07   -0.25751E-06    48   0.132E-02    0.201E-03
DAV:   3    -0.366289531202E+02   -0.80381E-07   -0.36140E-07    48   0.507E-03    0.635E-04
DAV:   4    -0.366289531444E+02   -0.24242E-07   -0.92724E-08    48   0.223E-03    0.194E-04
DAV:   5    -0.366289531454E+02   -0.99544E-09   -0.33898E-08    48   0.106E-03    0.101E-04
DAV:   6    -0.366289531477E+02   -0.23292E-08   -0.20099E-08    48   0.566E-04
  49 F= -.36628953E+02 E0= -.36628953E+02  d E =-.192491E-03
       N       E                     dE             d eps       ncg     rms          rms(c)
DAV:   1    -0.366292120455E+02   -0.25890E-03   -0.44632E-04    96   0.185E-01    0.400E-03
DAV:   2    -0.366292121243E+02   -0.78806E-07   -0.47299E-06    48   0.178E-02    0.273E-03
DAV:   3    -0.366292122636E+02   -0.13924E-06   -0.65212E-07    48   0.686E-03    0.845E-04
DAV:   4    -0.366292123049E+02   -0.41270E-07   -0.16053E-07    48   0.302E-03    0.253E-04
DAV:   5    -0.366292123076E+02   -0.27226E-08   -0.51834E-08    48   0.143E-03    0.136E-04
DAV:   6    -0.366292123125E+02   -0.49349E-08   -0.26894E-08    48   0.771E-04
  50 F= -.36629212E+02 E0= -.36629212E+02  d E =-.259165E-03
       N       E                     dE             d eps       ncg     rms          rms(c)
DAV:   1    -0.366295458931E+02   -0.33359E-03   -0.77577E-04    96   0.244E-01    0.524E-03
DAV:   2    -0.366295460738E+02   -0.18065E-06   -0.83152E-06    48   0.235E-02    0.359E-03
DAV:   3    -0.366295463077E+02   -0.23395E-06   -0.11231E-06    48   0.901E-03    0.113E-03
DAV:   4    -0.366295463809E+02   -0.73204E-07   -0.26749E-07    48   0.396E-03    0.334E-04
DAV:   5    -0.366295463882E+02   -0.73135E-08   -0.79779E-08    48   0.187E-03    0.174E-04
DAV:   6    -0.366295463982E+02   -0.99787E-08   -0.36889E-08    48   0.100E-03
  51 F= -.36629546E+02 E0= -.36629546E+02  d E =-.334086E-03
       N       E                     dE             d eps       ncg     rms          rms(c)
DAV:   1    -0.366299455640E+02   -0.39918E-03   -0.12043E-03    96   0.303E-01    0.649E-03
DAV:   2    -0.366299459207E+02   -0.35671E-06   -0.13250E-05    48   0.295E-02    0.447E-03
DAV:   3    -0.366299462643E+02   -0.34360E-06   -0.17440E-06    48   0.112E-02    0.148E-03
DAV:   4    -0.366299463928E+02   -0.12847E-06   -0.40733E-07    48   0.497E-03    0.453E-04
DAV:   5    -0.366299464082E+02   -0.15442E-07   -0.11528E-07    48   0.231E-03    0.211E-04
DAV:   6    -0.366299464262E+02   -0.18054E-07   -0.49180E-08    48   0.122E-03
  52 F= -.36629946E+02 E0= -.36629946E+02  d E =-.400028E-03
       N       E                     dE             d eps       ncg     rms          rms(c)
DAV:   1    -0.366303787239E+02   -0.43232E-03   -0.16421E-03    96   0.353E-01    0.754E-03
DAV:   2    -0.366303792653E+02   -0.54140E-06   -0.18473E-05    48   0.345E-02    0.521E-03
DAV:   3    -0.366303797044E+02   -0.43909E-06   -0.23175E-06    48   0.130E-02    0.167E-03
DAV:   4    -0.366303798828E+02   -0.17837E-06   -0.54579E-07    48   0.582E-03    0.491E-04
DAV:   5    -0.366303799071E+02   -0.24321E-07   -0.14385E-07    48   0.263E-03    0.237E-04
DAV:   6    -0.366303799341E+02   -0.26956E-07   -0.59744E-08    48   0.140E-03
  53 F= -.36630380E+02 E0= -.36630380E+02  d E =-.433508E-03
       N       E                     dE             d eps       ncg     rms          rms(c)
DAV:   1    -0.366307745915E+02   -0.39468E-03   -0.18961E-03    96   0.378E-01    0.799E-03
DAV:   2    -0.366307753491E+02   -0.75761E-06   -0.22022E-05    48   0.371E-02    0.554E-03
DAV:   3    -0.366307757987E+02   -0.44967E-06   -0.26080E-06    48   0.138E-02    0.181E-03
DAV:   4    -0.366307760220E+02   -0.22330E-06   -0.62786E-07    48   0.626E-03    0.579E-04
DAV:   5    -0.366307760593E+02   -0.37267E-07   -0.15620E-07    48   0.278E-03    0.231E-04
DAV:   6    -0.366307760980E+02   -0.38696E-07   -0.62422E-08    48   0.141E-03
  54 F= -.36630776E+02 E0= -.36630776E+02  d E =-.396164E-03
       N       E                     dE             d eps       ncg     rms          rms(c)
DAV:   1    -0.366307628453E+02    0.13214E-04   -0.13141E-06    48   0.109E-02    0.304E-04
DAV:   2    -0.366307628856E+02   -0.40339E-07   -0.71446E-08    48   0.246E-03    0.174E-04
DAV:   3    -0.366307629271E+02   -0.41489E-07   -0.21173E-08    48   0.815E-04    0.111E-04
DAV:   4    -0.366307630018E+02   -0.74654E-07   -0.15696E-08    48   0.445E-04    0.334E-05
DAV:   5    -0.366307630472E+02   -0.45451E-07   -0.13529E-08    48   0.253E-04    0.232E-05
DAV:   6    -0.366307631051E+02   -0.57825E-07   -0.13040E-08    48   0.172E-04
  55 F= -.36630763E+02 E0= -.36630763E+02  d E =0.129929E-04
       N       E                     dE             d eps       ncg     rms          rms(c)
DAV:   1    -0.366307386583E+02    0.24389E-04   -0.42049E-06    48   0.195E-02    0.503E-04
DAV:   2    -0.366307386864E+02   -0.28102E-07   -0.18516E-07    48   0.428E-03    0.291E-04
DAV:   3    -0.366307387071E+02   -0.20620E-07   -0.34059E-08    48   0.133E-03    0.181E-04
DAV:   4    -0.366307387370E+02   -0.29921E-07   -0.18025E-08    48   0.634E-04    0.485E-05
DAV:   5    -0.366307387533E+02   -0.16313E-07   -0.14012E-08    48   0.315E-04    0.275E-05
DAV:   6    -0.366307387691E+02   -0.15778E-07   -0.12831E-08    48   0.175E-04
  56 F= -.36630739E+02 E0= -.36630739E+02  d E =0.243360E-04
       N       E                     dE             d eps       ncg     rms          rms(c)
DAV:   1    -0.366307067365E+02    0.32017E-04   -0.72557E-06    48   0.255E-02    0.588E-04
DAV:   2    -0.366307067630E+02   -0.26540E-07   -0.31185E-07    48   0.564E-03    0.339E-04
DAV:   3    -0.366307067736E+02   -0.10529E-07   -0.50068E-08    48   0.173E-03    0.197E-04
DAV:   4    -0.366307067825E+02   -0.89926E-08   -0.21115E-08    48   0.787E-04    0.596E-05
DAV:   5    -0.366307067871E+02   -0.45854E-08   -0.14613E-08    48   0.387E-04    0.267E-05
DAV:   6    -0.366307067909E+02   -0.37876E-08   -0.12626E-08    48   0.215E-04
  57 F= -.36630707E+02 E0= -.36630707E+02  d E =0.319782E-04
       N       E                     dE             d eps       ncg     rms          rms(c)
DAV:   1    -0.366306734606E+02    0.33327E-04   -0.10026E-05    48   0.299E-02    0.648E-04
DAV:   2    -0.366306734976E+02   -0.36982E-07   -0.44293E-07    48   0.674E-03    0.383E-04
DAV:   3    -0.366306735073E+02   -0.96898E-08   -0.64086E-08    48   0.203E-03    0.208E-04
DAV:   4    -0.366306735116E+02   -0.42930E-08   -0.24455E-08    48   0.937E-04    0.727E-05
DAV:   5    -0.366306735127E+02   -0.11428E-08   -0.15461E-08    48   0.457E-04    0.386E-05
DAV:   6    -0.366306735134E+02   -0.67575E-09   -0.12796E-08    48   0.261E-04
  58 F= -.36630674E+02 E0= -.36630674E+02  d E =0.332775E-04
       N       E                     dE             d eps       ncg     rms          rms(c)
DAV:   1    -0.366306484414E+02    0.25071E-04   -0.11663E-05    48   0.318E-02    0.678E-04
DAV:   2    -0.366306484864E+02   -0.45042E-07   -0.53898E-07    48   0.734E-03    0.417E-04
DAV:   3    -0.366306484963E+02   -0.98610E-08   -0.72513E-08    48   0.218E-03    0.227E-04
DAV:   4    -0.366306485002E+02   -0.38931E-08   -0.26858E-08    48   0.104E-03    0.719E-05
DAV:   5    -0.366306485007E+02   -0.50863E-09   -0.16196E-08    48   0.499E-04    0.501E-05
DAV:   6    -0.366306485009E+02   -0.26444E-09   -0.13056E-08    48   0.280E-04
  59 F= -.36630649E+02 E0= -.36630649E+02  d E =0.250125E-04
       N       E                     dE             d eps       ncg     rms          rms(c)
DAV:   1    -0.366306409958E+02    0.75049E-05   -0.12480E-05    48   0.320E-02    0.660E-04
DAV:   2    -0.366306410428E+02   -0.47037E-07   -0.58679E-07    48   0.747E-03    0.414E-04
DAV:   3    -0.366306410524E+02   -0.95499E-08   -0.76255E-08    48   0.217E-03    0.235E-04
DAV:   4    -0.366306410559E+02   -0.35425E-08   -0.27322E-08    48   0.104E-03    0.612E-05
DAV:   5    -0.366306410565E+02   -0.56411E-09   -0.16567E-08    48   0.494E-04    0.499E-05
DAV:   6    -0.366306410566E+02   -0.11732E-09   -0.13159E-08    48   0.273E-04
  60 F= -.36630641E+02 E0= -.36630641E+02  d E =0.744435E-05
       N       E                     dE             d eps       ncg     rms          rms(c)
DAV:   1    -0.366306625794E+02   -0.21523E-04   -0.22189E-05    48   0.413E-02    0.864E-04
DAV:   2    -0.366306626556E+02   -0.76252E-07   -0.10100E-06    48   0.955E-03    0.565E-04
DAV:   3    -0.366306626704E+02   -0.14758E-07   -0.11994E-07    48   0.272E-03    0.313E-04
DAV:   4    -0.366306626747E+02   -0.43194E-08   -0.37575E-08    48   0.131E-03    0.694E-05
DAV:   5    -0.366306626752E+02   -0.50568E-09   -0.20054E-08    48   0.614E-04    0.650E-05
DAV:   6    -0.366306626753E+02   -0.11687E-09   -0.14379E-08    48   0.329E-04
  61 F= -.36630663E+02 E0= -.36630663E+02  d E =-.216187E-04
       N       E                     dE             d eps       ncg     rms          rms(c)
DAV:   1    -0.366307330243E+02   -0.70349E-04   -0.56158E-05    48   0.651E-02    0.145E-03
DAV:   2    -0.366307332061E+02   -0.18177E-06   -0.24179E-06    48   0.150E-02    0.934E-04
DAV:   3    -0.366307332444E+02   -0.38262E-07   -0.27521E-07    48   0.430E-03    0.477E-04
DAV:   4    -0.366307332538E+02   -0.93851E-08   -0.76526E-08    48   0.201E-03    0.113E-04
DAV:   5    -0.366307332544E+02   -0.65802E-09   -0.32355E-08    48   0.953E-04    0.100E-04
DAV:   6    -0.366307332533E+02    0.11332E-08   -0.18400E-08    48   0.511E-04
  62 F= -.36630733E+02 E0= -.36630733E+02  d E =-.705780E-04
       N       E                     dE             d eps       ncg     rms          rms(c)
DAV:   1    -0.366308665323E+02   -0.13328E-03   -0.13906E-04    80   0.102E-01    0.223E-03
DAV:   2    -0.366308665486E+02   -0.16298E-07   -0.15264E-06    48   0.995E-03    0.152E-03
DAV:   3    -0.366308665821E+02   -0.33547E-07   -0.21262E-07    48   0.380E-03    0.482E-04
DAV:   4    -0.366308665939E+02   -0.11739E-07   -0.59667E-08    48   0.170E-03    0.147E-04
DAV:   5    -0.366308665939E+02    0.23192E-10   -0.24558E-08    48   0.793E-04    0.794E-05
DAV:   6    -0.366308665943E+02   -0.46930E-09   -0.16653E-08    48   0.419E-04
  63 F= -.36630867E+02 E0= -.36630867E+02  d E =-.133341E-03
       N       E                     dE             d eps       ncg     rms          rms(c)
DAV:   1    -0.366310779969E+02   -0.21140E-03   -0.29931E-04    96   0.151E-01    0.328E-03
DAV:   2    -0.366310780421E+02   -0.45180E-07   -0.31419E-06    48   0.145E-02    0.223E-03
DAV:   3    -0.366310781295E+02   -0.87360E-07   -0.44886E-07    48   0.555E-03    0.747E-04
DAV:   4    -0.366310781605E+02   -0.30969E-07   -0.11308E-07    48   0.247E-03    0.236E-04
DAV:   5    -0.366310781618E+02   -0.13954E-08   -0.39817E-08    48   0.118E-03    0.119E-04
DAV:   6    -0.366310781649E+02   -0.30959E-08   -0.22338E-08    48   0.619E-04
  64 F= -.36631078E+02 E0= -.36631078E+02  d E =-.211571E-03
       N       E                     dE             d eps       ncg     rms          rms(c)
DAV:   1    -0.366313750117E+02   -0.29685E-03   -0.55072E-04    96   0.206E-01    0.444E-03
DAV:   2    -0.366313751113E+02   -0.99574E-07   -0.56254E-06    48   0.194E-02    0.303E-03
DAV:   3    -0.366313752778E+02   -0.16653E-06   -0.80986E-07    48   0.746E-03    0.968E-04
DAV:   4    -0.366313753331E+02   -0.55243E-07   -0.19583E-07    48   0.329E-03    0.303E-04
DAV:   5    -0.366313753373E+02   -0.42569E-08   -0.63385E-08    48   0.158E-03    0.158E-04
DAV:   6    -0.366313753438E+02   -0.64447E-08   -0.31007E-08    48   0.844E-04
  65 F= -.36631375E+02 E0= -.36631375E+02  d E =-.297179E-03
       N       E                     dE             d eps       ncg     rms          rms(c)
DAV:   1    -0.366317544523E+02   -0.37911E-03   -0.88208E-04    96   0.261E-01    0.563E-03
DAV:   2    -0.366317546401E+02   -0.18785E-06   -0.90658E-06    48   0.247E-02    0.386E-03
DAV:   3    -0.366317549001E+02   -0.26002E-06   -0.12856E-06    48   0.949E-03    0.118E-03
DAV:   4    -0.366317549845E+02   -0.84378E-07   -0.30926E-07    48   0.419E-03    0.353E-04
DAV:   5    -0.366317549926E+02   -0.81013E-08   -0.92482E-08    48   0.199E-03    0.198E-04
DAV:   6    -0.366317550043E+02   -0.11656E-07   -0.42433E-08    48   0.110E-03
  66 F= -.36631755E+02 E0= -.36631755E+02  d E =-.379661E-03
       N       E                     dE             d eps       ncg     rms          rms(c)
DAV:   1    -0.366321905087E+02   -0.43552E-03   -0.11959E-03    96   0.305E-01    0.653E-03
DAV:   2    -0.366321908468E+02   -0.33813E-06   -0.12731E-05    48   0.291E-02    0.451E-03
DAV:   3    -0.366321911983E+02   -0.35154E-06   -0.17730E-06    48   0.111E-02    0.149E-03
DAV:   4    -0.366321913368E+02   -0.13845E-06   -0.41106E-07    48   0.489E-03    0.477E-04
DAV:   5    -0.366321913555E+02   -0.18717E-07   -0.12029E-07    48   0.229E-03    0.214E-04
DAV:   6    -0.366321913779E+02   -0.22375E-07   -0.51646E-08    48   0.122E-03
  67 F= -.36632191E+02 E0= -.36632191E+02  d E =-.436374E-03
       N       E                     dE             d eps       ncg     rms          rms(c)
DAV:   1    -0.366321894658E+02    0.18897E-05   -0.55156E-07    48   0.701E-03    0.247E-04
DAV:   2    -0.366321894911E+02   -0.25346E-07   -0.42265E-08    48   0.170E-03    0.152E-04
DAV:   3    -0.366321895168E+02   -0.25647E-07   -0.16252E-08    48   0.574E-04    0.967E-05
DAV:   4    -0.366321895729E+02   -0.56142E-07   -0.14355E-08    48   0.420E-04    0.335E-05
DAV:   5    -0.366321895912E+02   -0.18330E-07   -0.12313E-08    48   0.215E-04    0.259E-05
DAV:   6    -0.366321896305E+02   -0.39281E-07   -0.12164E-08    48   0.143E-04
  68 F= -.36632190E+02 E0= -.36632190E+02  d E =0.174735E-05
       N       E                     dE             d eps       ncg     rms          rms(c)
DAV:   1    -0.366321861588E+02    0.34324E-05   -0.14746E-06    48   0.115E-02    0.399E-04
DAV:   2    -0.366321861743E+02   -0.15446E-07   -0.78175E-08    48   0.263E-03    0.231E-04
DAV:   3    -0.366321861869E+02   -0.12659E-07   -0.19173E-08    48   0.804E-04    0.141E-04
DAV:   4    -0.366321862095E+02   -0.22592E-07   -0.14954E-08    48   0.503E-04    0.402E-05
DAV:   5    -0.366321862189E+02   -0.93376E-08   -0.12669E-08    48   0.235E-04    0.302E-05
DAV:   6    -0.366321862302E+02   -0.11337E-07   -0.12116E-08    48   0.122E-04
  69 F= -.36632186E+02 E0= -.36632186E+02  d E =0.340031E-05
       N       E                     dE             d eps       ncg     rms          rms(c)
DAV:   1    -0.366321819949E+02    0.42239E-05   -0.21478E-06    48   0.139E-02    0.357E-04
DAV:   2    -0.366321820063E+02   -0.11414E-07   -0.10943E-07    48   0.315E-03    0.214E-04
DAV:   3    -0.366321820118E+02   -0.54360E-08   -0.23358E-08    48   0.980E-04    0.138E-04
DAV:   4    -0.366321820188E+02   -0.70601E-08   -0.14789E-08    48   0.490E-04    0.408E-05
DAV:   5    -0.366321820223E+02   -0.35061E-08   -0.12466E-08    48   0.239E-04    0.262E-05
DAV:   6    -0.366321820258E+02   -0.34443E-08   -0.11800E-08    48   0.131E-04
  70 F= -.36632182E+02 E0= -.36632182E+02  d E =0.420442E-05
       N       E                     dE             d eps       ncg     rms          rms(c)
DAV:   1    -0.366321783607E+02    0.36617E-05   -0.35257E-06    48   0.176E-02    0.403E-04
DAV:   2    -0.366321783780E+02   -0.17347E-07   -0.17303E-07    48   0.405E-03    0.235E-04
DAV:   3    -0.366321783835E+02   -0.54756E-08   -0.29993E-08    48   0.122E-03    0.133E-04
DAV:   4    -0.366321783864E+02   -0.29158E-08   -0.15943E-08    48   0.570E-04    0.460E-05
DAV:   5    -0.366321783872E+02   -0.79240E-09   -0.12818E-08    48   0.272E-04    0.268E-05
DAV:   6    -0.366321783876E+02   -0.44929E-09   -0.11939E-08    48   0.150E-04
  71 F= -.36632178E+02 E0= -.36632178E+02  d E =0.363815E-05
       N       E                     dE             d eps       ncg     rms          rms(c)
DAV:   1    -0.366321770380E+02    0.13492E-05   -0.58937E-06    48   0.224E-02    0.523E-04
DAV:   2    -0.366321770652E+02   -0.27244E-07   -0.28507E-07    48   0.518E-03    0.316E-04
DAV:   3    -0.366321770724E+02   -0.71373E-08   -0.41226E-08    48   0.155E-03    0.174E-04
DAV:   4    -0.366321770754E+02   -0.30211E-08   -0.18869E-08    48   0.740E-04    0.588E-05
DAV:   5    -0.366321770751E+02    0.32833E-09   -0.13644E-08    48   0.347E-04    0.399E-05
DAV:   6    -0.366321770753E+02   -0.21146E-09   -0.12172E-08    48   0.185E-04
  72 F= -.36632177E+02 E0= -.36632177E+02  d E =0.131238E-05
       N       E                     dE             d eps       ncg     rms          rms(c)
DAV:   1    -0.366321803811E+02   -0.33061E-05   -0.82213E-06    48   0.262E-02    0.577E-04
DAV:   2    -0.366321804163E+02   -0.35161E-07   -0.38992E-07    48   0.606E-03    0.346E-04
DAV:   3    -0.366321804249E+02   -0.86275E-08   -0.52607E-08    48   0.178E-03    0.194E-04
DAV:   4    -0.366321804282E+02   -0.33103E-08   -0.21419E-08    48   0.840E-04    0.595E-05
DAV:   5    -0.366321804282E+02   -0.72760E-11   -0.14544E-08    48   0.396E-04    0.435E-05
DAV:   6    -0.366321804283E+02   -0.89130E-10   -0.12526E-08    48   0.212E-04
  73 F= -.36632180E+02 E0= -.36632180E+02  d E =-.335305E-05
       N       E                     dE             d eps       ncg     rms          rms(c)
DAV:   1    -0.366321923326E+02   -0.11904E-04   -0.14177E-05    48   0.342E-02    0.722E-04
DAV:   2    -0.366321923863E+02   -0.53709E-07   -0.65607E-07    48   0.788E-03    0.437E-04
DAV:   3    -0.366321923983E+02   -0.11952E-07   -0.82804E-08    48   0.228E-03    0.259E-04
DAV:   4    -0.366321924028E+02   -0.45281E-08   -0.28262E-08    48   0.107E-03    0.645E-05
DAV:   5    -0.366321924030E+02   -0.24465E-09   -0.16930E-08    48   0.503E-04    0.519E-05
DAV:   6    -0.366321924030E+02    0.68667E-10   -0.13304E-08    48   0.271E-04
  74 F= -.36632192E+02 E0= -.36632192E+02  d E =-.119747E-04
