 vasp.5.4.1 24Jun15 (build Jan 13 2020 12:58:22) complex                        
  
 executed on           IFC91_ompi date 2020.02.05  18:18:08
 running on   15 total cores
 each image running on    1 cores
 distrk:  each k-point on    1 cores,    1 groups
 distr:  one band on NCORES_PER_BAND=   1 cores,    1 groups


--------------------------------------------------------------------------------------------------------


 INCAR:
 POTCAR:    PAW_PBE H 15Jun2001                   
 POTCAR:    PAW_PBE C 08Apr2002                   
 POTCAR:    PAW_PBE N 08Apr2002                   
 POTCAR:    PAW_PBE H 15Jun2001                   
   VRHFIN =H: ultrasoft test                                                    
   LEXCH  = PE                                                                  
   EATOM  =    12.4884 eV,    0.9179 Ry                                         
                                                                                
   TITEL  = PAW_PBE H 15Jun2001                                                 
   LULTRA =        F    use ultrasoft PP ?                                      
   IUNSCR =        0    unscreen: 0-lin 1-nonlin 2-no                           
   RPACOR =    0.000    partial core radius                                     
   POMASS =    1.000; ZVAL   =    1.000    mass and valenz                      
   RCORE  =    1.100    outmost cutoff radius                                   
   RWIGS  =    0.700; RWIGS  =    0.370    wigner-seitz radius (au A)           
   ENMAX  =  250.000; ENMIN  =  200.000 eV                                      
   RCLOC  =    0.701    cutoff for local pot                                    
   LCOR   =        T    correct aug charges                                     
   LPAW   =        T    paw PP                                                  
   EAUG   =  400.000                                                            
   RMAX   =    1.123    core radius for proj-oper                               
   RAUG   =    1.200    factor for augmentation sphere                          
   RDEP   =    1.112    radius for radial grids                                 
   RDEPT  =    0.926    core radius for aug-charge                              
                                                                                
   Atomic configuration                                                         
    2 entries                                                                   
     n  l   j            E        occ.                                          
     1  0  0.50        -6.4927   1.0000                                         
     2  1  0.50        -3.4015   0.0000                                         
   Description                                                                  
     l       E           TYP  RCUT    TYP  RCUT                                 
     0     -6.4927494     23  1.100                                             
     0      6.8029130     23  1.100                                             
     1     -4.0817478     23  1.100                                             
  local pseudopotential read in
  atomic valenz-charges read in
  non local Contribution for L=           0  read in
    real space projection operators read in
  non local Contribution for L=           0  read in
    real space projection operators read in
  non local Contribution for L=           1  read in
    real space projection operators read in
    PAW grid and wavefunctions read in
 
   number of l-projection  operators is LMAX  =           3
   number of lm-projection operators is LMMAX =           5
 
 POTCAR:    PAW_PBE C 08Apr2002                   
   VRHFIN =C: s2p2                                                              
   LEXCH  = PE                                                                  
   EATOM  =   147.1560 eV,   10.8157 Ry                                         
                                                                                
   TITEL  = PAW_PBE C 08Apr2002                                                 
   LULTRA =        F    use ultrasoft PP ?                                      
   IUNSCR =        1    unscreen: 0-lin 1-nonlin 2-no                           
   RPACOR =    1.200    partial core radius                                     
   POMASS =   12.011; ZVAL   =    4.000    mass and valenz                      
   RCORE  =    1.500    outmost cutoff radius                                   
   RWIGS  =    1.630; RWIGS  =    0.863    wigner-seitz radius (au A)           
   ENMAX  =  400.000; ENMIN  =  300.000 eV                                      
   ICORE  =        2    local potential                                         
   LCOR   =        T    correct aug charges                                     
   LPAW   =        T    paw PP                                                  
   EAUG   =  644.873                                                            
   DEXC   =    0.000                                                            
   RMAX   =    1.529    core radius for proj-oper                               
   RAUG   =    1.300    factor for augmentation sphere                          
   RDEP   =    1.501    radius for radial grids                                 
   RDEPT  =    1.300    core radius for aug-charge                              
                                                                                
   Atomic configuration                                                         
    4 entries                                                                   
     n  l   j            E        occ.                                          
     1  0  0.50      -273.3789   2.0000                                         
     2  0  0.50       -13.7508   2.0000                                         
     2  1  0.50        -5.2854   2.0000                                         
     3  2  1.50        -5.4423   0.0000                                         
   Description                                                                  
     l       E           TYP  RCUT    TYP  RCUT                                 
     0    -13.7508458     23  1.200                                             
     0     -8.2022199     23  1.200                                             
     1     -5.2854383     23  1.500                                             
     1     34.0145650     23  1.500                                             
     2     -5.4423304      7  1.500                                             
  local pseudopotential read in
  partial core-charges read in
  partial kinetic energy density read in
  atomic valenz-charges read in
  non local Contribution for L=           0  read in
    real space projection operators read in
  non local Contribution for L=           0  read in
    real space projection operators read in
  non local Contribution for L=           1  read in
    real space projection operators read in
  non local Contribution for L=           1  read in
    real space projection operators read in
    PAW grid and wavefunctions read in
 
   number of l-projection  operators is LMAX  =           4
   number of lm-projection operators is LMMAX =           8
 
 POTCAR:    PAW_PBE N 08Apr2002                   
   VRHFIN =N: s2p3                                                              
   LEXCH  = PE                                                                  
   EATOM  =   264.5486 eV,   19.4438 Ry                                         
                                                                                
   TITEL  = PAW_PBE N 08Apr2002                                                 
   LULTRA =        F    use ultrasoft PP ?                                      
   IUNSCR =        1    unscreen: 0-lin 1-nonlin 2-no                           
   RPACOR =    1.200    partial core radius                                     
   POMASS =   14.001; ZVAL   =    5.000    mass and valenz                      
   RCORE  =    1.500    outmost cutoff radius                                   
   RWIGS  =    1.400; RWIGS  =    0.741    wigner-seitz radius (au A)           
   ENMAX  =  400.000; ENMIN  =  300.000 eV                                      
   ICORE  =        2    local potential                                         
   LCOR   =        T    correct aug charges                                     
   LPAW   =        T    paw PP                                                  
   EAUG   =  627.112                                                            
   DEXC   =    0.000                                                            
   RMAX   =    1.529    core radius for proj-oper                               
   RAUG   =    1.300    factor for augmentation sphere                          
   RDEP   =    1.514    radius for radial grids                                 
   RDEPT  =    1.338    core radius for aug-charge                              
                                                                                
   Atomic configuration                                                         
    4 entries                                                                   
     n  l   j            E        occ.                                          
     1  0  0.50      -384.7179   2.0000                                         
     2  0  0.50       -18.5828   2.0000                                         
     2  1  0.50        -7.0898   3.0000                                         
     3  2  1.50        -6.8029   0.0000                                         
   Description                                                                  
     l       E           TYP  RCUT    TYP  RCUT                                 
     0    -18.5828119     23  1.200                                             
     0    -13.5018863     23  1.200                                             
     1     -7.0897853     23  1.500                                             
     1      9.5240782     23  1.500                                             
     2     -6.8029130      7  1.500                                             
  local pseudopotential read in
  partial core-charges read in
  partial kinetic energy density read in
  atomic valenz-charges read in
  non local Contribution for L=           0  read in
    real space projection operators read in
  non local Contribution for L=           0  read in
    real space projection operators read in
  non local Contribution for L=           1  read in
    real space projection operators read in
  non local Contribution for L=           1  read in
    real space projection operators read in
    PAW grid and wavefunctions read in
 
   number of l-projection  operators is LMAX  =           4
   number of lm-projection operators is LMMAX =           8
 

 ----------------------------------------------------------------------------- 
|                                                                             |
|  ADVICE TO THIS USER RUNNING 'VASP/VAMP'   (HEAR YOUR MASTER'S VOICE ...):  |
|                                                                             |
|      You have a (more or less) 'small supercell' and for smaller cells      |
|      it is recommended  to use the reciprocal-space projection scheme!      |
|      The real space optimization is not  efficient for small cells and it   |
|      is also less accurate ...                                              |
|      Therefore set LREAL=.FALSE. in the  INCAR file                         |
|                                                                             |
 ----------------------------------------------------------------------------- 

 Optimization of the real space projectors (new method)

 maximal supplied QI-value         = 34.20
 optimisation between [QCUT,QGAM] = [  9.92, 20.18] = [ 27.55,114.04] Ry 
 Optimized for a Real-space Cutoff    1.26 Angstroem

   l    n(q)    QCUT    max X(q) W(low)/X(q) W(high)/X(q)  e(spline) 
   0      8     9.919    19.460    0.50E-03    0.23E-03    0.29E-06
   0      8     9.919    12.209    0.48E-03    0.23E-03    0.28E-06
   1      7     9.919     4.655    0.17E-03    0.75E-03    0.30E-06
 Optimization of the real space projectors (new method)

 maximal supplied QI-value         = 25.13
 optimisation between [QCUT,QGAM] = [ 10.05, 20.36] = [ 28.30,116.06] Ry 
 Optimized for a Real-space Cutoff    1.30 Angstroem

   l    n(q)    QCUT    max X(q) W(low)/X(q) W(high)/X(q)  e(spline) 
   0      8    10.053   115.676    0.49E-03    0.72E-03    0.18E-06
   0      8    10.053    87.132    0.49E-03    0.71E-03    0.18E-06
   1      7    10.053     4.429    0.32E-03    0.31E-03    0.18E-06
   1      7    10.053     2.733    0.23E-03    0.19E-03    0.20E-06
 Optimization of the real space projectors (new method)

 maximal supplied QI-value         = 25.13
 optimisation between [QCUT,QGAM] = [ 10.05, 20.36] = [ 28.30,116.06] Ry 
 Optimized for a Real-space Cutoff    1.65 Angstroem

   l    n(q)    QCUT    max X(q) W(low)/X(q) W(high)/X(q)  e(spline) 
   0     10    10.053    79.467    0.76E-04    0.72E-04    0.56E-06
   0     10    10.053    66.151    0.76E-04    0.72E-04    0.55E-06
   1     10    10.053     8.350    0.25E-03    0.92E-03    0.41E-05
   1     10    10.053     5.531    0.27E-03    0.10E-02    0.45E-05
  PAW_PBE H 15Jun2001                   :
 energy of atom  1       EATOM=  -12.4884
 kinetic energy error for atom=    0.0098 (will be added to EATOM!!)
  PAW_PBE C 08Apr2002                   :
 energy of atom  2       EATOM= -147.1560
 kinetic energy error for atom=    0.0288 (will be added to EATOM!!)
  PAW_PBE N 08Apr2002                   :
 energy of atom  3       EATOM= -264.5486
 kinetic energy error for atom=    0.0736 (will be added to EATOM!!)
 
 
 POSCAR: H3 C2 N1                                
  positions in direct lattice
  velocities in cartesian coordinates
 exchange correlation table for  LEXCH =        8
   RHO(1)=    0.500       N(1)  =     2000
   RHO(2)=  100.500       N(2)  =     4000

 VTST: version 3.2, (02/03/18)

 CHAIN: initializing optimizer
 
 OPT: Using FIRE optimizer
 OPT: FIRE, Init
 OPT: FIRE, MAXMOVE       0.20000
 OPT: FIRE, TIMESTEP      0.10000
 OPT: FIRE, FTIMEMAX      1.00000
 OPT: FIRE, FTIMEINC      1.10000
 OPT: FIRE, FTIMEDEC      0.50000
 OPT: FIRE, FALPHADEC     0.99000
 OPT: FIRE, FALPHA        0.10000
 OPT: FIRE, FNMIN         5
 
 CHAIN: Read ICHAIN            0
 CHAIN: Running the NEB
 NEB:          SPRING     -5.000000
 NEB:          LCLIMB      T
 NEB:     LTANGENTOLD      F
 NEB:           LDNEB      F
 NEB:        LDNEBORG      F
 NEB:        LNEBCELL      F
 NEB:          EFIRST      0.000000
 NEB:           ELAST      0.000000
 
 POSCAR: H3 C2 N1                                
  positions in direct lattice
  No initial velocities read in
 
 POSCAR: H3 C2 N1                                
  positions in direct lattice
  No initial velocities read in
 


--------------------------------------------------------------------------------------------------------


 ion  position               nearest neighbor table
   1  0.472  0.463  0.504-   4 1.10
   2  0.472  0.508  0.464-   4 1.10
   3  0.471  0.520  0.523-   4 1.10
   4  0.484  0.497  0.497-   1 1.10   2 1.10   3 1.10   5 1.45
   5  0.532  0.501  0.501-   6 1.17   4 1.45
   6  0.569  0.510  0.511-   5 1.17
 
  LATTYP: Found a simple cubic cell.
 ALAT       =    30.0000000000
  
  Lattice vectors:
  
 A1 = (  30.0000000000,   0.0000000000,   0.0000000000)
 A2 = (   0.0000000000,  30.0000000000,   0.0000000000)
 A3 = (   0.0000000000,   0.0000000000,  30.0000000000)


Analysis of symmetry for initial positions (statically):
=====================================================================
 Subroutine PRICEL returns:
 Original cell was already a primitive cell.
 

 Routine SETGRP: Setting up the symmetry group for a 
 simple cubic supercell.


 Subroutine GETGRP returns: Found  1 space group operations
 (whereof  1 operations were pure point group operations)
 out of a pool of 48 trial point group operations.


The static configuration has the point symmetry C_1 .


Analysis of symmetry for dynamics (positions and initial velocities):
=====================================================================
 Subroutine PRICEL returns:
 Original cell was already a primitive cell.
 

 Routine SETGRP: Setting up the symmetry group for a 
 simple cubic supercell.


 Subroutine GETGRP returns: Found  1 space group operations
 (whereof  1 operations were pure point group operations)
 out of a pool of 48 trial point group operations.


The dynamic configuration has the point symmetry C_1 .
 
 
 KPOINTS: Mo2C                                    

Automatic generation of k-mesh.
Space group operators:
 irot       det(A)        alpha          n_x          n_y          n_z        tau_x        tau_y        tau_z
    1     1.000000     0.000000     1.000000     0.000000     0.000000     0.000000     0.000000     0.000000
 
 Subroutine IBZKPT returns following result:
 ===========================================
 
 Found      4 irreducible k-points:
 
 Following reciprocal coordinates:
            Coordinates               Weight
  0.250000  0.250000  0.250000      2.000000
 -0.250000  0.250000  0.250000      2.000000
  0.250000 -0.250000  0.250000      2.000000
 -0.250000 -0.250000  0.250000      2.000000
 
 Following cartesian coordinates:
            Coordinates               Weight
  0.008333  0.008333  0.008333      2.000000
 -0.008333  0.008333  0.008333      2.000000
  0.008333 -0.008333  0.008333      2.000000
 -0.008333 -0.008333  0.008333      2.000000
 


--------------------------------------------------------------------------------------------------------




 Dimension of arrays:
   k-points           NKPTS =      4   k-points in BZ     NKDIM =      4   number of bands    NBANDS=     12
   number of dos      NEDOS =    301   number of ions     NIONS =      6
   non local maximal  LDIM  =      4   non local SUM 2l+1 LMDIM =      8
   total plane-waves  NPLWV = ******
   max r-space proj   IRMAX =   2395   max aug-charges    IRDMAX=   1738
   dimension x,y,z NGX =   150 NGY =  150 NGZ =  150
   dimension x,y,z NGXF=   300 NGYF=  300 NGZF=  300
   support grid    NGXF=   300 NGYF=  300 NGZF=  300
   ions per type =               3   2   1
 NGX,Y,Z   is equivalent  to a cutoff of   8.31,  8.31,  8.31 a.u.
 NGXF,Y,Z  is equivalent  to a cutoff of  16.62, 16.62, 16.62 a.u.


 I would recommend the setting:
   dimension x,y,z NGX =   147 NGY =  147 NGZ =  147
 SYSTEM =  unknown system                          
 POSCAR =  H3 C2 N1                                

 Startparameter for this run:
   NWRITE =      2    write-flag & timer
   PREC   = normal    normal or accurate (medium, high low for compatibility)
   ISTART =      0    job   : 0-new  1-cont  2-samecut
   ICHARG =      2    charge: 1-file 2-atom 10-const
   ISPIN  =      1    spin polarized calculation?
   LNONCOLLINEAR =      F non collinear calculations
   LSORBIT =      F    spin-orbit coupling
   INIWAV =      1    electr: 0-lowe 1-rand  2-diag
   LASPH  =      F    aspherical Exc in radial PAW
   METAGGA=      F    non-selfconsistent MetaGGA calc.

 Electronic Relaxation 1
   ENCUT  =  400.0 eV  29.40 Ry    5.42 a.u.  48.92 48.92 48.92*2*pi/ulx,y,z
   ENINI  =  400.0     initial cutoff
   ENAUG  =  644.9 eV  augmentation charge cutoff
   NELM   =    500;   NELMIN=  6; NELMDL= -5     # of ELM steps 
   EDIFF  = 0.1E-03   stopping-criterion for ELM
   LREAL  =      T    real-space projection
   NLSPLINE    = F    spline interpolate recip. space projectors
   LCOMPAT=      F    compatible to vasp.4.4
   GGA_COMPAT  = T    GGA compatible to vasp.4.4-vasp.4.6
   LMAXPAW     = -100 max onsite density
   LMAXMIX     =    2 max onsite mixed and CHGCAR
   VOSKOWN=      0    Vosko Wilk Nusair interpolation
   ROPT   =   -0.00050  -0.00050  -0.00050
 Ionic relaxation
   EDIFFG = -.1E+00   stopping-criterion for IOM
   NSW    =    300    number of steps for IOM
   NBLOCK =      1;   KBLOCK =    300    inner block; outer block 
   IBRION =      3    ionic relax: 0-MD 1-quasi-New 2-CG
   NFREE  =      0    steps in history (QN), initial steepest desc. (CG)
   ISIF   =      2    stress and relaxation
   IWAVPR =     11    prediction:  0-non 1-charg 2-wave 3-comb
   ISYM   =      2    0-nonsym 1-usesym 2-fastsym
   LCORR  =      T    Harris-Foulkes like correction to forces

   POTIM  = 0.0000    time-step for ionic-motion
   TEIN   =    0.0    initial temperature
   TEBEG  =    0.0;   TEEND  =   0.0 temperature during run
   SMASS  =   2.00    Nose mass-parameter (am)
   estimated Nose-frequenzy (Omega)   =  0.12E+10 period in steps =  0.00 mass=   0.137E-25a.u.
   SCALEE = 1.0000    scale energy and forces
   NPACO  =    256;   APACO  = 16.0  distance and # of slots for P.C.
   PSTRESS=    0.0 pullay stress

  Mass of Ions in am
   POMASS =   1.00 12.01 14.00
  Ionic Valenz
   ZVAL   =   1.00  4.00  5.00
  Atomic Wigner-Seitz radii
   RWIGS  =  -1.00 -1.00 -1.00
  virtual crystal weights 
   VCA    =   1.00  1.00  1.00
   NELECT =      16.0000    total number of electrons
   NUPDOWN=      -1.0000    fix difference up-down

 DOS related values:
   EMIN   =  10.00;   EMAX   =-10.00  energy-range for DOS
   EFERMI =   0.00
   ISMEAR =     0;   SIGMA  =   0.20  broadening in eV -4-tet -1-fermi 0-gaus

 Electronic relaxation 2 (details)
   IALGO  =     38    algorithm
   LDIAG  =      T    sub-space diagonalisation (order eigenvalues)
   LSUBROT=      F    optimize rotation matrix (better conditioning)
   TURBO    =      0    0=normal 1=particle mesh
   IRESTART =      0    0=no restart 2=restart with 2 vectors
   NREBOOT  =      0    no. of reboots
   NMIN     =      0    reboot dimension
   EREF     =   0.00    reference energy to select bands
   IMIX   =      4    mixing-type and parameters
     AMIX     =   0.40;   BMIX     =  1.00
     AMIX_MAG =   1.60;   BMIX_MAG =  1.00
     AMIN     =   0.10
     WC   =   100.;   INIMIX=   1;  MIXPRE=   1;  MAXMIX= -45

 Intra band minimization:
   WEIMIN = 0.0010     energy-eigenvalue tresh-hold
   EBREAK =  0.21E-05  absolut break condition
   DEPER  =   0.30     relativ break condition  

   TIME   =   0.40     timestep for ELM

  volume/ion in A,a.u.               =    4500.00     30367.50
  Fermi-wavevector in a.u.,A,eV,Ry     =   0.137508  0.259852  0.257264  0.018908
  Thomas-Fermi vector in A             =   0.790710
 
 Write flags
   LWAVE  =      F    write WAVECAR
   LCHARG =      F    write CHGCAR
   LVTOT  =      F    write LOCPOT, total local potential
   LVHAR  =      F    write LOCPOT, Hartree potential only
   LELF   =      F    write electronic localiz. function (ELF)
   LORBIT =      0    0 simple, 1 ext, 2 COOP (PROOUT)


 Dipole corrections
   LMONO  =      F    monopole corrections only (constant potential shift)
   LDIPOL =      F    correct potential (dipole corrections)
   IDIPOL =      0    1-x, 2-y, 3-z, 4-all directions 
   EPSILON=  1.0000000 bulk dielectric constant

 Exchange correlation treatment:
   GGA     =    PE    GGA type
   LEXCH   =     8    internal setting for exchange type
   VOSKOWN=      0    Vosko Wilk Nusair interpolation
   LHFCALC =     F    Hartree Fock is set to
   LHFONE  =     F    Hartree Fock one center treatment
   AEXX    =    0.0000 exact exchange contribution

 Linear response parameters
   LEPSILON=     F    determine dielectric tensor
   LRPA    =     F    only Hartree local field effects (RPA)
   LNABLA  =     F    use nabla operator in PAW spheres
   LVEL    =     F    velocity operator in full k-point grid
   LINTERFAST=   F  fast interpolation
   KINTER  =     0    interpolate to denser k-point grid
   CSHIFT  =0.1000    complex shift for real part using Kramers Kronig
   OMEGAMAX=  -1.0    maximum frequency
   DEG_THRESHOLD= 0.2000000E-02 threshold for treating states as degnerate
   RTIME   =    0.100 relaxation time in fs

 Orbital magnetization related:
   ORBITALMAG=     F  switch on orbital magnetization
   LCHIMAG   =     F  perturbation theory with respect to B field
   DQ        =  0.001000  dq finite difference perturbation B field



--------------------------------------------------------------------------------------------------------


 quickmin algorithm: (dynamic with friction)
 charge density and potential will be updated during run
 non-spin polarized calculation
 Variant of blocked Davidson
 Davidson routine will perform the subspace rotation
 perform sub-space diagonalisation
    after iterative eigenvector-optimisation
 modified Broyden-mixing scheme, WC =      100.0
 initial mixing is a Kerker type mixing with AMIX =  0.4000 and BMIX =      1.0000
 Hartree-type preconditioning will be used
 using additional bands            4
 real space projection scheme for non local part
 use partial core corrections
 calculate Harris-corrections to forces 
   (improved forces if not selfconsistent)
 use gradient corrections 
 use of overlap-Matrix (Vanderbilt PP)
 Gauss-broadening in eV      SIGMA  =   0.20


--------------------------------------------------------------------------------------------------------


  energy-cutoff  :      400.00
  volume of cell :    27000.00
      direct lattice vectors                 reciprocal lattice vectors
    30.000000000  0.000000000  0.000000000     0.033333333  0.000000000  0.000000000
     0.000000000 30.000000000  0.000000000     0.000000000  0.033333333  0.000000000
     0.000000000  0.000000000 30.000000000     0.000000000  0.000000000  0.033333333

  length of vectors
    30.000000000 30.000000000 30.000000000     0.033333333  0.033333333  0.033333333


 
 k-points in units of 2pi/SCALE and weight: Mo2C                                    
   0.00833333  0.00833333  0.00833333       0.250
  -0.00833333  0.00833333  0.00833333       0.250
   0.00833333 -0.00833333  0.00833333       0.250
  -0.00833333 -0.00833333  0.00833333       0.250
 
 k-points in reciprocal lattice and weights: Mo2C                                    
   0.25000000  0.25000000  0.25000000       0.250
  -0.25000000  0.25000000  0.25000000       0.250
   0.25000000 -0.25000000  0.25000000       0.250
  -0.25000000 -0.25000000  0.25000000       0.250
 
 position of ions in fractional coordinates (direct lattice) 
   0.47214467  0.46330750  0.50393369
   0.47194420  0.50820537  0.46420182
   0.47120297  0.51988167  0.52263056
   0.48409380  0.49719845  0.49693825
   0.53207638  0.50119676  0.50118215
   0.56856043  0.51019906  0.51109352
 
 position of ions in cartesian coordinates  (Angst):
  14.16434010 13.89922502 15.11801061
  14.15832613 15.24616101 13.92605472
  14.13608916 15.59644999 15.67891683
  14.52281395 14.91595347 14.90814752
  15.96229147 15.03590273 15.03546459
  17.05681296 15.30597191 15.33280567
 


--------------------------------------------------------------------------------------------------------


 k-point  1 :   0.2500 0.2500 0.2500  plane waves:  490454
 k-point  2 :  -0.2500 0.2500 0.2500  plane waves:  490454
 k-point  3 :   0.2500-0.2500 0.2500  plane waves:  490454
 k-point  4 :  -0.2500-0.2500 0.2500  plane waves:  490454

 maximum and minimum number of plane-waves per node :    490454   490454

 maximum number of plane-waves:    490454
 maximum index in each direction: 
   IXMAX=   49   IYMAX=   49   IZMAX=   48
   IXMIN=  -49   IYMIN=  -49   IZMIN=  -49

 WARNING: aliasing errors must be expected set NGX to 198 to avoid them
 WARNING: aliasing errors must be expected set NGY to 198 to avoid them
 WARNING: aliasing errors must be expected set NGZ to 196 to avoid them
 aliasing errors are usually negligible using standard VASP settings
 and one can safely disregard these warnings

 serial   3D FFT for wavefunctions
 parallel 3D FFT for charge:
    minimum data exchange during FFTs selected (reduces bandwidth)


 total amount of memory used by VASP on root node  3203889. kBytes
========================================================================

   base      :      30000. kBytes
   nonlr-proj:        693. kBytes
   fftplans  :     924480. kBytes
   grid      :    1872000. kBytes
   one-center:         18. kBytes
   wavefun   :     376698. kBytes
 
     INWAV:  cpu time    0.0010: real time    0.0005
 Broyden mixing: mesh for mixing (old mesh)
   NGX = 97   NGY = 97   NGZ = 97
  (NGX  =300   NGY  =300   NGZ  =300)
  gives a total of 912673 points

 initial charge density was supplied:
 charge density of overlapping atoms calculated
 number of electron      16.0000000 magnetization 
 keeping initial charge density in first step


--------------------------------------------------------------------------------------------------------


 Maximum index for non-local projection operator         2287
 Maximum index for augmentation-charges         1497 (set IRDMAX)


--------------------------------------------------------------------------------------------------------


 First call to EWALD:  gamma=   0.059
 Maximum number of real-space cells 3x 3x 3
 Maximum number of reciprocal cells 3x 3x 3

 FEWALD executed in parallel
    FEWALD:  cpu time    0.0020: real time    0.0018


----------------------------------------- Iteration    1(   1)  ---------------------------------------


    POTLOK:  cpu time   30.1134: real time   30.1751
    SETDIJ:  cpu time    0.0070: real time    0.0066
     EDDAV:  cpu time   81.3646: real time   81.5700
       DOS:  cpu time    0.0000: real time    0.0002
    --------------------------------------------
      LOOP:  cpu time  111.4891: real time  111.7594

 eigenvalue-minimisations  :   160
 total energy-change (2. order) : 0.1156784E+03  (-0.2124651E+03)
 number of electron      16.0000000 magnetization 
 augmentation part       16.0000000 magnetization 

 Free energy of the ion-electron system (eV)
  ---------------------------------------------------
  alpha Z        PSCENC =         0.04144063
  Ewald energy   TEWEN  =       676.04451785
  -Hartree energ DENC   =     -1089.77008044
  -exchange      EXHF   =         0.00000000
  -V(xc)+E(xc)   XCENC  =        51.38894351
  PAW double counting   =       428.37890668     -430.73533574
  entropy T*S    EENTRO =        -0.18238944
  eigenvalues    EBANDS =      -115.65291372
  atomic energy  EATOM  =       596.16534815
  Solvation  Ediel_sol  =         0.00000000
  ---------------------------------------------------
  free energy    TOTEN  =       115.67843747 eV

  energy without entropy =      115.86082691  energy(sigma->0) =      115.76963219


--------------------------------------------------------------------------------------------------------




----------------------------------------- Iteration    1(   2)  ---------------------------------------


     EDDAV:  cpu time   95.0765: real time   95.2666
       DOS:  cpu time    0.0010: real time    0.0001
    --------------------------------------------
      LOOP:  cpu time   95.0815: real time   95.2742

 eigenvalue-minimisations  :   192
 total energy-change (2. order) :-0.1162475E+03  (-0.1136439E+03)
 number of electron      16.0000000 magnetization 
 augmentation part       16.0000000 magnetization 

 Free energy of the ion-electron system (eV)
  ---------------------------------------------------
  alpha Z        PSCENC =         0.04144063
  Ewald energy   TEWEN  =       676.04451785
  -Hartree energ DENC   =     -1089.77008044
  -exchange      EXHF   =         0.00000000
  -V(xc)+E(xc)   XCENC  =        51.38894351
  PAW double counting   =       428.37890668     -430.73533574
  entropy T*S    EENTRO =         0.00000000
  eigenvalues    EBANDS =      -232.08278573
  atomic energy  EATOM  =       596.16534815
  Solvation  Ediel_sol  =         0.00000000
  ---------------------------------------------------
  free energy    TOTEN  =        -0.56904510 eV

  energy without entropy =       -0.56904510  energy(sigma->0) =       -0.56904510


--------------------------------------------------------------------------------------------------------




----------------------------------------- Iteration    1(   3)  ---------------------------------------


     EDDAV:  cpu time   65.7420: real time   65.8730
       DOS:  cpu time    0.0000: real time    0.0001
    --------------------------------------------
      LOOP:  cpu time   65.7430: real time   65.8765

 eigenvalue-minimisations  :   124
 total energy-change (2. order) :-0.3676715E+02  (-0.3667286E+02)
 number of electron      16.0000000 magnetization 
 augmentation part       16.0000000 magnetization 

 Free energy of the ion-electron system (eV)
  ---------------------------------------------------
  alpha Z        PSCENC =         0.04144063
  Ewald energy   TEWEN  =       676.04451785
  -Hartree energ DENC   =     -1089.77008044
  -exchange      EXHF   =         0.00000000
  -V(xc)+E(xc)   XCENC  =        51.38894351
  PAW double counting   =       428.37890668     -430.73533574
  entropy T*S    EENTRO =         0.00000000
  eigenvalues    EBANDS =      -268.84993482
  atomic energy  EATOM  =       596.16534815
  Solvation  Ediel_sol  =         0.00000000
  ---------------------------------------------------
  free energy    TOTEN  =       -37.33619418 eV

  energy without entropy =      -37.33619418  energy(sigma->0) =      -37.33619418


--------------------------------------------------------------------------------------------------------




----------------------------------------- Iteration    1(   4)  ---------------------------------------


     EDDAV:  cpu time   69.7254: real time   69.8657
       DOS:  cpu time    0.0000: real time    0.0001
    --------------------------------------------
      LOOP:  cpu time   69.7264: real time   69.9843

 eigenvalue-minimisations  :   128
 total energy-change (2. order) :-0.3366829E+01  (-0.3331849E+01)
 number of electron      16.0000000 magnetization 
 augmentation part       16.0000000 magnetization 

 Free energy of the ion-electron system (eV)
  ---------------------------------------------------
  alpha Z        PSCENC =         0.04144063
  Ewald energy   TEWEN  =       676.04451785
  -Hartree energ DENC   =     -1089.77008044
  -exchange      EXHF   =         0.00000000
  -V(xc)+E(xc)   XCENC  =        51.38894351
  PAW double counting   =       428.37890668     -430.73533574
  entropy T*S    EENTRO =         0.00000000
  eigenvalues    EBANDS =      -272.21676416
  atomic energy  EATOM  =       596.16534815
  Solvation  Ediel_sol  =         0.00000000
  ---------------------------------------------------
  free energy    TOTEN  =       -40.70302352 eV

  energy without entropy =      -40.70302352  energy(sigma->0) =      -40.70302352


--------------------------------------------------------------------------------------------------------




----------------------------------------- Iteration    1(   5)  ---------------------------------------


     EDDAV:  cpu time   65.1021: real time   65.2326
       DOS:  cpu time    0.0000: real time    0.0001
    CHARGE:  cpu time    5.5312: real time    5.5431
    MIXING:  cpu time    0.6529: real time    0.6539
    --------------------------------------------
      LOOP:  cpu time   71.2882: real time   71.4331

 eigenvalue-minimisations  :   120
 total energy-change (2. order) :-0.7237683E-01  (-0.7098442E-01)
 number of electron      15.9999990 magnetization 
 augmentation part        0.5273910 magnetization 

 Broyden mixing:
  rms(total) = 0.10949E+01    rms(broyden)= 0.10942E+01
  rms(prec ) = 0.11383E+01
  weight for this iteration     100.00

 Free energy of the ion-electron system (eV)
  ---------------------------------------------------
  alpha Z        PSCENC =         0.04144063
  Ewald energy   TEWEN  =       676.04451785
  -Hartree energ DENC   =     -1089.77008044
  -exchange      EXHF   =         0.00000000
  -V(xc)+E(xc)   XCENC  =        51.38894351
  PAW double counting   =       428.37890668     -430.73533574
  entropy T*S    EENTRO =         0.00000000
  eigenvalues    EBANDS =      -272.28914098
  atomic energy  EATOM  =       596.16534815
  Solvation  Ediel_sol  =         0.00000000
  ---------------------------------------------------
  free energy    TOTEN  =       -40.77540035 eV

  energy without entropy =      -40.77540035  energy(sigma->0) =      -40.77540035


--------------------------------------------------------------------------------------------------------




----------------------------------------- Iteration    1(   6)  ---------------------------------------


    POTLOK:  cpu time   35.0777: real time   35.1476
    SETDIJ:  cpu time    0.0060: real time    0.0063
     EDDAV:  cpu time   65.9680: real time   66.1193
       DOS:  cpu time    0.0000: real time    0.0001
    CHARGE:  cpu time    5.4862: real time    5.4988
    MIXING:  cpu time    0.7089: real time    0.7103
    --------------------------------------------
      LOOP:  cpu time  107.2477: real time  107.4860

 eigenvalue-minimisations  :   120
 total energy-change (2. order) : 0.3306835E+01  (-0.6435693E+00)
 number of electron      15.9999990 magnetization 
 augmentation part        0.4554784 magnetization 

 Broyden mixing:
  rms(total) = 0.59521E+00    rms(broyden)= 0.59498E+00
  rms(prec ) = 0.61135E+00
  weight for this iteration     100.00

 eigenvalues of (default mixing * dielectric matrix)
  average eigenvalue GAMMA=   1.2631
  1.2631

 Free energy of the ion-electron system (eV)
  ---------------------------------------------------
  alpha Z        PSCENC =         0.04144063
  Ewald energy   TEWEN  =       676.04451785
  -Hartree energ DENC   =     -1121.86202756
  -exchange      EXHF   =         0.00000000
  -V(xc)+E(xc)   XCENC  =        53.18303476
  PAW double counting   =       732.52523242     -735.21051832
  entropy T*S    EENTRO =         0.00000000
  eigenvalues    EBANDS =      -238.35559345
  atomic energy  EATOM  =       596.16534815
  Solvation  Ediel_sol  =         0.00000000
  ---------------------------------------------------
  free energy    TOTEN  =       -37.46856554 eV

  energy without entropy =      -37.46856554  energy(sigma->0) =      -37.46856554


--------------------------------------------------------------------------------------------------------




----------------------------------------- Iteration    1(   7)  ---------------------------------------


    POTLOK:  cpu time   35.0337: real time   35.1042
    SETDIJ:  cpu time    0.0070: real time    0.0063
     EDDAV:  cpu time   61.0317: real time   61.1537
       DOS:  cpu time    0.0000: real time    0.0002
    CHARGE:  cpu time    5.5322: real time    5.5440
    MIXING:  cpu time    0.7579: real time    0.7590
    --------------------------------------------
      LOOP:  cpu time  102.3644: real time  102.5706

 eigenvalue-minimisations  :   112
 total energy-change (2. order) : 0.6643390E+00  (-0.1445691E+00)
 number of electron      15.9999990 magnetization 
 augmentation part        0.4561116 magnetization 

 Broyden mixing:
  rms(total) = 0.30204E+00    rms(broyden)= 0.30199E+00
  rms(prec ) = 0.31007E+00
  weight for this iteration     100.00

 eigenvalues of (default mixing * dielectric matrix)
  average eigenvalue GAMMA=   1.4451
  0.9110  1.9793

 Free energy of the ion-electron system (eV)
  ---------------------------------------------------
  alpha Z        PSCENC =         0.04144063
  Ewald energy   TEWEN  =       676.04451785
  -Hartree energ DENC   =     -1138.97861116
  -exchange      EXHF   =         0.00000000
  -V(xc)+E(xc)   XCENC  =        54.11564127
  PAW double counting   =      1040.84012667    -1043.64020533
  entropy T*S    EENTRO =         0.00000000
  eigenvalues    EBANDS =      -221.39248458
  atomic energy  EATOM  =       596.16534815
  Solvation  Ediel_sol  =         0.00000000
  ---------------------------------------------------
  free energy    TOTEN  =       -36.80422651 eV

  energy without entropy =      -36.80422651  energy(sigma->0) =      -36.80422651


--------------------------------------------------------------------------------------------------------




----------------------------------------- Iteration    1(   8)  ---------------------------------------


    POTLOK:  cpu time   28.5147: real time   28.5711
    SETDIJ:  cpu time    0.0060: real time    0.0062
     EDDAV:  cpu time   68.5976: real time   68.7381
       DOS:  cpu time    0.0010: real time    0.0004
    CHARGE:  cpu time    5.5142: real time    5.5268
    MIXING:  cpu time    0.8059: real time    0.8084
    --------------------------------------------
      LOOP:  cpu time  103.4413: real time  110.4488

 eigenvalue-minimisations  :   128
 total energy-change (2. order) : 0.1728537E+00  (-0.4135324E-01)
 number of electron      15.9999990 magnetization 
 augmentation part        0.4369582 magnetization 

 Broyden mixing:
  rms(total) = 0.10955E+00    rms(broyden)= 0.10951E+00
  rms(prec ) = 0.11404E+00
  weight for this iteration     100.00

 eigenvalues of (default mixing * dielectric matrix)
  average eigenvalue GAMMA=   1.4589
  2.1623  1.4576  0.7567

 Free energy of the ion-electron system (eV)
  ---------------------------------------------------
  alpha Z        PSCENC =         0.04144063
  Ewald energy   TEWEN  =       676.04451785
  -Hartree energ DENC   =     -1149.73600594
  -exchange      EXHF   =         0.00000000
  -V(xc)+E(xc)   XCENC  =        54.80266178
  PAW double counting   =      1297.06070072    -1299.91389655
  entropy T*S    EENTRO =         0.00000000
  eigenvalues    EBANDS =      -211.09613942
  atomic energy  EATOM  =       596.16534815
  Solvation  Ediel_sol  =         0.00000000
  ---------------------------------------------------
  free energy    TOTEN  =       -36.63137279 eV

  energy without entropy =      -36.63137279  energy(sigma->0) =      -36.63137279


--------------------------------------------------------------------------------------------------------




----------------------------------------- Iteration    1(   9)  ---------------------------------------


    POTLOK:  cpu time   31.4512: real time   31.5220
    SETDIJ:  cpu time    0.0060: real time    0.0062
     EDDAV:  cpu time   66.5639: real time   66.7132
       DOS:  cpu time    0.0000: real time    0.0002
    CHARGE:  cpu time    5.7011: real time    5.7148
    MIXING:  cpu time    0.8829: real time    0.8845
    --------------------------------------------
      LOOP:  cpu time  104.6071: real time  107.2643

 eigenvalue-minimisations  :   128
 total energy-change (2. order) : 0.2569297E-01  (-0.3592842E-02)
 number of electron      15.9999990 magnetization 
 augmentation part        0.4381695 magnetization 

 Broyden mixing:
  rms(total) = 0.33407E-01    rms(broyden)= 0.33393E-01
  rms(prec ) = 0.39065E-01
  weight for this iteration     100.00

 eigenvalues of (default mixing * dielectric matrix)
  average eigenvalue GAMMA=   1.4524
  2.2967  1.6529  0.8065  1.0533

 Free energy of the ion-electron system (eV)
  ---------------------------------------------------
  alpha Z        PSCENC =         0.04144063
  Ewald energy   TEWEN  =       676.04451785
  -Hartree energ DENC   =     -1151.54558836
  -exchange      EXHF   =         0.00000000
  -V(xc)+E(xc)   XCENC  =        54.91048157
  PAW double counting   =      1372.96520017    -1375.78924425
  entropy T*S    EENTRO =         0.00000000
  eigenvalues    EBANDS =      -209.39783558
  atomic energy  EATOM  =       596.16534815
  Solvation  Ediel_sol  =         0.00000000
  ---------------------------------------------------
  free energy    TOTEN  =       -36.60567982 eV

  energy without entropy =      -36.60567982  energy(sigma->0) =      -36.60567982


--------------------------------------------------------------------------------------------------------




----------------------------------------- Iteration    1(  10)  ---------------------------------------


    POTLOK:  cpu time   37.7973: real time   37.8808
    SETDIJ:  cpu time    0.0060: real time    0.0063
     EDDAV:  cpu time   68.4446: real time   68.5993
       DOS:  cpu time    0.0000: real time    0.0002
    CHARGE:  cpu time    5.6611: real time    5.6738
    MIXING:  cpu time    0.9239: real time    0.9260
    --------------------------------------------
      LOOP:  cpu time  112.8348: real time  113.0907

 eigenvalue-minimisations  :   128
 total energy-change (2. order) : 0.4442153E-02  (-0.4821861E-03)
 number of electron      15.9999990 magnetization 
 augmentation part        0.4390734 magnetization 

 Broyden mixing:
  rms(total) = 0.14635E-01    rms(broyden)= 0.14629E-01
  rms(prec ) = 0.21022E-01
  weight for this iteration     100.00

 eigenvalues of (default mixing * dielectric matrix)
  average eigenvalue GAMMA=   1.4650
  2.1755  2.1755  1.3429  0.8156  0.8156

 Free energy of the ion-electron system (eV)
  ---------------------------------------------------
  alpha Z        PSCENC =         0.04144063
  Ewald energy   TEWEN  =       676.04451785
  -Hartree energ DENC   =     -1152.80923957
  -exchange      EXHF   =         0.00000000
  -V(xc)+E(xc)   XCENC  =        54.95149977
  PAW double counting   =      1388.55484649    -1391.36753973
  entropy T*S    EENTRO =         0.00000000
  eigenvalues    EBANDS =      -208.18211126
  atomic energy  EATOM  =       596.16534815
  Solvation  Ediel_sol  =         0.00000000
  ---------------------------------------------------
  free energy    TOTEN  =       -36.60123767 eV

  energy without entropy =      -36.60123767  energy(sigma->0) =      -36.60123767


--------------------------------------------------------------------------------------------------------




----------------------------------------- Iteration    1(  11)  ---------------------------------------


    POTLOK:  cpu time   38.4072: real time   38.4932
    SETDIJ:  cpu time    0.0070: real time    0.0063
     EDDAV:  cpu time   68.5536: real time   68.6921
       DOS:  cpu time    0.0000: real time    0.0002
    CHARGE:  cpu time    5.6221: real time    5.6337
    MIXING:  cpu time    0.9059: real time    0.9073
    --------------------------------------------
      LOOP:  cpu time  113.4967: real time  113.7368

 eigenvalue-minimisations  :   128
 total energy-change (2. order) :-0.1133622E-02  (-0.1813509E-03)
 number of electron      15.9999990 magnetization 
 augmentation part        0.4386845 magnetization 

 Broyden mixing:
  rms(total) = 0.95765E-02    rms(broyden)= 0.95750E-02
  rms(prec ) = 0.14713E-01
  weight for this iteration     100.00

 eigenvalues of (default mixing * dielectric matrix)
  average eigenvalue GAMMA=   1.7178
  3.1148  2.4905  0.8521  0.8521  1.4986  1.4986

 Free energy of the ion-electron system (eV)
  ---------------------------------------------------
  alpha Z        PSCENC =         0.04144063
  Ewald energy   TEWEN  =       676.04451785
  -Hartree energ DENC   =     -1153.91044470
  -exchange      EXHF   =         0.00000000
  -V(xc)+E(xc)   XCENC  =        54.97619205
  PAW double counting   =      1385.26049458    -1388.06834985
  entropy T*S    EENTRO =         0.00000000
  eigenvalues    EBANDS =      -207.11157000
  atomic energy  EATOM  =       596.16534815
  Solvation  Ediel_sol  =         0.00000000
  ---------------------------------------------------
  free energy    TOTEN  =       -36.60237129 eV

  energy without entropy =      -36.60237129  energy(sigma->0) =      -36.60237129


--------------------------------------------------------------------------------------------------------




----------------------------------------- Iteration    1(  12)  ---------------------------------------


    POTLOK:  cpu time   38.3532: real time   38.4313
    SETDIJ:  cpu time    0.0060: real time    0.0063
     EDDAV:  cpu time   61.2507: real time   61.3737
       DOS:  cpu time    0.0000: real time    0.0002
    CHARGE:  cpu time    5.6151: real time    5.6266
    MIXING:  cpu time    0.9789: real time    0.9806
    --------------------------------------------
      LOOP:  cpu time  106.2049: real time  106.4226

 eigenvalue-minimisations  :   112
 total energy-change (2. order) :-0.6575976E-02  (-0.4859952E-03)
 number of electron      15.9999990 magnetization 
 augmentation part        0.4380440 magnetization 

 Broyden mixing:
  rms(total) = 0.49905E-02    rms(broyden)= 0.49819E-02
  rms(prec ) = 0.72724E-02
  weight for this iteration     100.00

 eigenvalues of (default mixing * dielectric matrix)
  average eigenvalue GAMMA=   1.7125
  3.7406  2.2714  1.8008  1.4020  0.8130  0.9282  1.0318

 Free energy of the ion-electron system (eV)
  ---------------------------------------------------
  alpha Z        PSCENC =         0.04144063
  Ewald energy   TEWEN  =       676.04451785
  -Hartree energ DENC   =     -1155.67769822
  -exchange      EXHF   =         0.00000000
  -V(xc)+E(xc)   XCENC  =        55.01253346
  PAW double counting   =      1378.88614261    -1381.68906096
  entropy T*S    EENTRO =         0.00000000
  eigenvalues    EBANDS =      -205.39217079
  atomic energy  EATOM  =       596.16534815
  Solvation  Ediel_sol  =         0.00000000
  ---------------------------------------------------
  free energy    TOTEN  =       -36.60894727 eV

  energy without entropy =      -36.60894727  energy(sigma->0) =      -36.60894727


--------------------------------------------------------------------------------------------------------




----------------------------------------- Iteration    1(  13)  ---------------------------------------


    POTLOK:  cpu time   31.9821: real time   32.0448
    SETDIJ:  cpu time    0.0070: real time    0.0062
     EDDAV:  cpu time   78.2461: real time   78.4054
       DOS:  cpu time    0.0000: real time    0.0002
    CHARGE:  cpu time    5.5152: real time    5.5254
    MIXING:  cpu time    0.9289: real time    0.9313
    --------------------------------------------
      LOOP:  cpu time  116.6803: real time  116.9169

 eigenvalue-minimisations  :   152
 total energy-change (2. order) :-0.4120017E-02  (-0.1220265E-03)
 number of electron      15.9999990 magnetization 
 augmentation part        0.4378969 magnetization 

 Broyden mixing:
  rms(total) = 0.36627E-02    rms(broyden)= 0.36606E-02
  rms(prec ) = 0.53411E-02
  weight for this iteration     100.00

 eigenvalues of (default mixing * dielectric matrix)
  average eigenvalue GAMMA=   1.7349
  4.2618  2.3831  1.6061  1.5114  1.5114  0.8978  0.8809  0.8269

 Free energy of the ion-electron system (eV)
  ---------------------------------------------------
  alpha Z        PSCENC =         0.04144063
  Ewald energy   TEWEN  =       676.04451785
  -Hartree energ DENC   =     -1156.10597034
  -exchange      EXHF   =         0.00000000
  -V(xc)+E(xc)   XCENC  =        55.01831232
  PAW double counting   =      1379.77649841    -1382.58022859
  entropy T*S    EENTRO =         0.00000000
  eigenvalues    EBANDS =      -204.97298571
  atomic energy  EATOM  =       596.16534815
  Solvation  Ediel_sol  =         0.00000000
  ---------------------------------------------------
  free energy    TOTEN  =       -36.61306728 eV

  energy without entropy =      -36.61306728  energy(sigma->0) =      -36.61306728


--------------------------------------------------------------------------------------------------------




----------------------------------------- Iteration    1(  14)  ---------------------------------------


    POTLOK:  cpu time   34.2598: real time   34.3280
    SETDIJ:  cpu time    0.0060: real time    0.0063
     EDDAV:  cpu time   63.2914: real time   63.4206
       DOS:  cpu time    0.0000: real time    0.0002
    CHARGE:  cpu time    5.5782: real time    5.5907
    MIXING:  cpu time    1.0028: real time    1.0044
    --------------------------------------------
      LOOP:  cpu time  104.1402: real time  104.3539

 eigenvalue-minimisations  :   116
 total energy-change (2. order) :-0.4270018E-02  (-0.5914041E-04)
 number of electron      15.9999990 magnetization 
 augmentation part        0.4380023 magnetization 

 Broyden mixing:
  rms(total) = 0.25853E-02    rms(broyden)= 0.25848E-02
  rms(prec ) = 0.36074E-02
  weight for this iteration     100.00

 eigenvalues of (default mixing * dielectric matrix)
  average eigenvalue GAMMA=   1.8688
  5.1832  2.7944  2.3170  1.5102  1.4313  0.8504  0.8504  0.9413  0.9413

 Free energy of the ion-electron system (eV)
  ---------------------------------------------------
  alpha Z        PSCENC =         0.04144063
  Ewald energy   TEWEN  =       676.04451785
  -Hartree energ DENC   =     -1156.28313069
  -exchange      EXHF   =         0.00000000
  -V(xc)+E(xc)   XCENC  =        55.01058123
  PAW double counting   =      1377.91524690    -1380.71890253
  entropy T*S    EENTRO =         0.00000000
  eigenvalues    EBANDS =      -204.79243884
  atomic energy  EATOM  =       596.16534815
  Solvation  Ediel_sol  =         0.00000000
  ---------------------------------------------------
  free energy    TOTEN  =       -36.61733730 eV

  energy without entropy =      -36.61733730  energy(sigma->0) =      -36.61733730


--------------------------------------------------------------------------------------------------------




----------------------------------------- Iteration    1(  15)  ---------------------------------------


    POTLOK:  cpu time   35.0717: real time   35.1420
    SETDIJ:  cpu time    0.0060: real time    0.0063
     EDDAV:  cpu time   68.9665: real time   69.1068
       DOS:  cpu time    0.0000: real time    0.0002
    CHARGE:  cpu time    5.6151: real time    5.6257
    MIXING:  cpu time    1.0448: real time    1.0467
    --------------------------------------------
      LOOP:  cpu time  110.7052: real time  110.9310

 eigenvalue-minimisations  :   128
 total energy-change (2. order) :-0.3168929E-02  (-0.3151370E-04)
 number of electron      15.9999990 magnetization 
 augmentation part        0.4379542 magnetization 

 Broyden mixing:
  rms(total) = 0.16562E-02    rms(broyden)= 0.16560E-02
  rms(prec ) = 0.22259E-02
  weight for this iteration     100.00

 eigenvalues of (default mixing * dielectric matrix)
  average eigenvalue GAMMA=   1.9488
  5.9903  3.0425  2.3251  1.5740  1.4275  1.4275  0.8315  0.8883  0.9908  0.9908

 Free energy of the ion-electron system (eV)
  ---------------------------------------------------
  alpha Z        PSCENC =         0.04144063
  Ewald energy   TEWEN  =       676.04451785
  -Hartree energ DENC   =     -1156.40392387
  -exchange      EXHF   =         0.00000000
  -V(xc)+E(xc)   XCENC  =        55.00632773
  PAW double counting   =      1377.85854902    -1380.66281318
  entropy T*S    EENTRO =         0.00000000
  eigenvalues    EBANDS =      -204.66995255
  atomic energy  EATOM  =       596.16534815
  Solvation  Ediel_sol  =         0.00000000
  ---------------------------------------------------
  free energy    TOTEN  =       -36.62050623 eV

  energy without entropy =      -36.62050623  energy(sigma->0) =      -36.62050623


--------------------------------------------------------------------------------------------------------




----------------------------------------- Iteration    1(  16)  ---------------------------------------


    POTLOK:  cpu time   30.3834: real time   30.4465
    SETDIJ:  cpu time    0.0070: real time    0.0063
     EDDAV:  cpu time   65.4970: real time   65.6308
       DOS:  cpu time    0.0010: real time    0.0002
    CHARGE:  cpu time    5.5971: real time    5.6089
    MIXING:  cpu time    1.1758: real time    1.1781
    --------------------------------------------
      LOOP:  cpu time  102.6624: real time  102.8738

 eigenvalue-minimisations  :   120
 total energy-change (2. order) :-0.2085900E-02  (-0.2488117E-04)
 number of electron      15.9999990 magnetization 
 augmentation part        0.4378286 magnetization 

 Broyden mixing:
  rms(total) = 0.10735E-02    rms(broyden)= 0.10723E-02
  rms(prec ) = 0.13685E-02
  weight for this iteration     100.00

 eigenvalues of (default mixing * dielectric matrix)
  average eigenvalue GAMMA=   2.0948
  7.1352  3.6103  2.3314  2.3314  1.4620  1.2565  1.2565  0.8277  0.8836  0.9743
  0.9743

 Free energy of the ion-electron system (eV)
  ---------------------------------------------------
  alpha Z        PSCENC =         0.04144063
  Ewald energy   TEWEN  =       676.04451785
  -Hartree energ DENC   =     -1156.46852666
  -exchange      EXHF   =         0.00000000
  -V(xc)+E(xc)   XCENC  =        55.00413144
  PAW double counting   =      1378.19197760    -1380.99615771
  entropy T*S    EENTRO =         0.00000000
  eigenvalues    EBANDS =      -204.60532344
  atomic energy  EATOM  =       596.16534815
  Solvation  Ediel_sol  =         0.00000000
  ---------------------------------------------------
  free energy    TOTEN  =       -36.62259213 eV

  energy without entropy =      -36.62259213  energy(sigma->0) =      -36.62259213


--------------------------------------------------------------------------------------------------------




----------------------------------------- Iteration    1(  17)  ---------------------------------------


    POTLOK:  cpu time   35.1167: real time   35.1878
    SETDIJ:  cpu time    0.0060: real time    0.0063
     EDDAV:  cpu time   57.5513: real time   57.6695
       DOS:  cpu time    0.0000: real time    0.0002
    CHARGE:  cpu time    5.6331: real time    5.6453
    MIXING:  cpu time    1.2428: real time    1.2449
    --------------------------------------------
      LOOP:  cpu time   99.5519: real time   99.7577

 eigenvalue-minimisations  :    96
 total energy-change (2. order) :-0.1130188E-02  (-0.5907495E-05)
 number of electron      15.9999990 magnetization 
 augmentation part        0.4378783 magnetization 

 Broyden mixing:
  rms(total) = 0.39709E-03    rms(broyden)= 0.39700E-03
  rms(prec ) = 0.58285E-03
  weight for this iteration     100.00

 eigenvalues of (default mixing * dielectric matrix)
  average eigenvalue GAMMA=   2.1442
  7.7064  4.0637  2.5813  2.0526  1.8743  1.2565  1.2565  0.8258  1.1290  1.1290
  0.9108  0.9442

 Free energy of the ion-electron system (eV)
  ---------------------------------------------------
  alpha Z        PSCENC =         0.04144063
  Ewald energy   TEWEN  =       676.04451785
  -Hartree energ DENC   =     -1156.46643301
  -exchange      EXHF   =         0.00000000
  -V(xc)+E(xc)   XCENC  =        55.00090233
  PAW double counting   =      1378.52060290    -1381.32445752
  entropy T*S    EENTRO =         0.00000000
  eigenvalues    EBANDS =      -204.60564364
  atomic energy  EATOM  =       596.16534815
  Solvation  Ediel_sol  =         0.00000000
  ---------------------------------------------------
  free energy    TOTEN  =       -36.62372232 eV

  energy without entropy =      -36.62372232  energy(sigma->0) =      -36.62372232


--------------------------------------------------------------------------------------------------------




----------------------------------------- Iteration    1(  18)  ---------------------------------------


    POTLOK:  cpu time   34.6267: real time   34.6961
    SETDIJ:  cpu time    0.0060: real time    0.0063
     EDDAV:  cpu time   48.9266: real time   49.0246
       DOS:  cpu time    0.0000: real time    0.0002
    CHARGE:  cpu time    5.6391: real time    5.6518
    MIXING:  cpu time    1.3288: real time    1.3328
    --------------------------------------------
      LOOP:  cpu time   90.5292: real time   90.7150

 eigenvalue-minimisations  :    80
 total energy-change (2. order) :-0.4884578E-03  (-0.3280044E-05)
 number of electron      15.9999990 magnetization 
 augmentation part        0.4378631 magnetization 

 Broyden mixing:
  rms(total) = 0.28189E-03    rms(broyden)= 0.28184E-03
  rms(prec ) = 0.37919E-03
  weight for this iteration     100.00

 eigenvalues of (default mixing * dielectric matrix)
  average eigenvalue GAMMA=   2.2429
  8.2879  4.6503  2.7803  2.6135  2.1119  1.5292  1.2700  1.2700  0.8240  0.9104
  0.9104  1.0003  1.0003

 Free energy of the ion-electron system (eV)
  ---------------------------------------------------
  alpha Z        PSCENC =         0.04144063
  Ewald energy   TEWEN  =       676.04451785
  -Hartree energ DENC   =     -1156.47468371
  -exchange      EXHF   =         0.00000000
  -V(xc)+E(xc)   XCENC  =        55.00067152
  PAW double counting   =      1378.59257342    -1381.39653081
  entropy T*S    EENTRO =         0.00000000
  eigenvalues    EBANDS =      -204.59754783
  atomic energy  EATOM  =       596.16534815
  Solvation  Ediel_sol  =         0.00000000
  ---------------------------------------------------
  free energy    TOTEN  =       -36.62421078 eV

  energy without entropy =      -36.62421078  energy(sigma->0) =      -36.62421078


--------------------------------------------------------------------------------------------------------




----------------------------------------- Iteration    1(  19)  ---------------------------------------


    POTLOK:  cpu time   34.8017: real time   34.8717
    SETDIJ:  cpu time    0.0060: real time    0.0063
     EDDAV:  cpu time   53.5159: real time   53.6412
       DOS:  cpu time    0.0000: real time    0.0002
    CHARGE:  cpu time    5.5862: real time    5.5980
    MIXING:  cpu time    1.3788: real time    1.3820
    --------------------------------------------
      LOOP:  cpu time   95.2905: real time   95.5029

 eigenvalue-minimisations  :    88
 total energy-change (2. order) :-0.2958065E-03  (-0.1479177E-05)
 number of electron      15.9999990 magnetization 
 augmentation part        0.4378602 magnetization 

 Broyden mixing:
  rms(total) = 0.16635E-03    rms(broyden)= 0.16625E-03
  rms(prec ) = 0.20920E-03
  weight for this iteration     100.00

 eigenvalues of (default mixing * dielectric matrix)
  average eigenvalue GAMMA=   2.2716
  8.5537  5.0995  3.1927  2.4686  1.9975  1.9975  1.2414  1.2414  1.3454  1.0144
  1.0144  0.8249  0.9059  0.9059

 Free energy of the ion-electron system (eV)
  ---------------------------------------------------
  alpha Z        PSCENC =         0.04144063
  Ewald energy   TEWEN  =       676.04451785
  -Hartree energ DENC   =     -1156.46786028
  -exchange      EXHF   =         0.00000000
  -V(xc)+E(xc)   XCENC  =        54.99993467
  PAW double counting   =      1378.30297546    -1381.10689654
  entropy T*S    EENTRO =         0.00000000
  eigenvalues    EBANDS =      -204.60396653
  atomic energy  EATOM  =       596.16534815
  Solvation  Ediel_sol  =         0.00000000
  ---------------------------------------------------
  free energy    TOTEN  =       -36.62450658 eV

  energy without entropy =      -36.62450658  energy(sigma->0) =      -36.62450658


--------------------------------------------------------------------------------------------------------




----------------------------------------- Iteration    1(  20)  ---------------------------------------


    POTLOK:  cpu time   34.4668: real time   34.5368
    SETDIJ:  cpu time    0.0070: real time    0.0063
     EDDAV:  cpu time   49.0345: real time   49.1332
       DOS:  cpu time    0.0000: real time    0.0002
    CHARGE:  cpu time    5.6391: real time    5.6501
    MIXING:  cpu time    1.4328: real time    1.4365
    --------------------------------------------
      LOOP:  cpu time   90.5822: real time   90.7671

 eigenvalue-minimisations  :    80
 total energy-change (2. order) :-0.1049995E-03  (-0.3811941E-06)
 number of electron      15.9999990 magnetization 
 augmentation part        0.4378660 magnetization 

 Broyden mixing:
  rms(total) = 0.11247E-03    rms(broyden)= 0.11244E-03
  rms(prec ) = 0.13543E-03
  weight for this iteration     100.00

 eigenvalues of (default mixing * dielectric matrix)
  average eigenvalue GAMMA=   2.3160
  8.6888  5.7290  3.3572  2.6291  2.4421  2.1067  1.5838  1.2582  1.2582  1.0296
  1.0296  0.8255  0.9011  0.9507  0.9507

 Free energy of the ion-electron system (eV)
  ---------------------------------------------------
  alpha Z        PSCENC =         0.04144063
  Ewald energy   TEWEN  =       676.04451785
  -Hartree energ DENC   =     -1156.46816981
  -exchange      EXHF   =         0.00000000
  -V(xc)+E(xc)   XCENC  =        54.99973305
  PAW double counting   =      1378.33593162    -1381.13982974
  entropy T*S    EENTRO =         0.00000000
  eigenvalues    EBANDS =      -204.60358332
  atomic energy  EATOM  =       596.16534815
  Solvation  Ediel_sol  =         0.00000000
  ---------------------------------------------------
  free energy    TOTEN  =       -36.62461158 eV

  energy without entropy =      -36.62461158  energy(sigma->0) =      -36.62461158


--------------------------------------------------------------------------------------------------------




----------------------------------------- Iteration    1(  21)  ---------------------------------------


    POTLOK:  cpu time   34.7427: real time   34.8131
    SETDIJ:  cpu time    0.0070: real time    0.0063
     EDDAV:  cpu time   54.0668: real time   54.1784
       DOS:  cpu time    0.0000: real time    0.0002
    --------------------------------------------
      LOOP:  cpu time   88.8185: real time   89.0016

 eigenvalue-minimisations  :    88
 total energy-change (2. order) :-0.5696138E-04  (-0.1494329E-06)
 number of electron      15.9999990 magnetization 
 augmentation part        0.4378660 magnetization 

 Free energy of the ion-electron system (eV)
  ---------------------------------------------------
  alpha Z        PSCENC =         0.04144063
  Ewald energy   TEWEN  =       676.04451785
  -Hartree energ DENC   =     -1156.46990088
  -exchange      EXHF   =         0.00000000
  -V(xc)+E(xc)   XCENC  =        54.99967719
  PAW double counting   =      1378.35050038    -1381.15444733
  entropy T*S    EENTRO =         0.00000000
  eigenvalues    EBANDS =      -204.60180452
  atomic energy  EATOM  =       596.16534815
  Solvation  Ediel_sol  =         0.00000000
  ---------------------------------------------------
  free energy    TOTEN  =       -36.62466854 eV

  energy without entropy =      -36.62466854  energy(sigma->0) =      -36.62466854


--------------------------------------------------------------------------------------------------------




 average (electrostatic) potential at core
  the test charge radii are     0.5201  0.6991  0.7089
  (the norm of the test charge is              1.0000)
       1 -43.1692       2 -43.1677       3 -43.1766       4 -60.0652       5 -60.0608
       6 -73.2232
 
 
 
 E-fermi :  -7.0320     XC(G=0):  -0.0875     alpha+bet : -0.0137


 k-point     1 :       0.2500    0.2500    0.2500
  band No.  band energies     occupation 
      1     -22.5538      2.00000
      2     -19.3795      2.00000
      3     -12.7789      2.00000
      4     -11.4991      2.00000
      5     -11.4919      2.00000
      6      -8.5212      2.00000
      7      -8.0903      2.00000
      8      -7.9861      2.00000
      9      -0.9904      0.00000
     10      -0.4756      0.00000
     11      -0.4317      0.00000
     12      -0.0062      0.00000

 k-point     2 :      -0.2500    0.2500    0.2500
  band No.  band energies     occupation 
      1     -22.5538      2.00000
      2     -19.3795      2.00000
      3     -12.7789      2.00000
      4     -11.4991      2.00000
      5     -11.4919      2.00000
      6      -8.5212      2.00000
      7      -8.0903      2.00000
      8      -7.9861      2.00000
      9      -0.9904      0.00000
     10      -0.4756      0.00000
     11      -0.4317      0.00000
     12      -0.0087      0.00000

 k-point     3 :       0.2500   -0.2500    0.2500
  band No.  band energies     occupation 
      1     -22.5538      2.00000
      2     -19.3795      2.00000
      3     -12.7789      2.00000
      4     -11.4992      2.00000
      5     -11.4919      2.00000
      6      -8.5212      2.00000
      7      -8.0903      2.00000
      8      -7.9861      2.00000
      9      -0.9904      0.00000
     10      -0.4756      0.00000
     11      -0.4317      0.00000
     12      -0.0066      0.00000

 k-point     4 :      -0.2500   -0.2500    0.2500
  band No.  band energies     occupation 
      1     -22.5538      2.00000
      2     -19.3795      2.00000
      3     -12.7789      2.00000
      4     -11.4992      2.00000
      5     -11.4919      2.00000
      6      -8.5212      2.00000
      7      -8.0903      2.00000
      8      -7.9861      2.00000
      9      -0.9904      0.00000
     10      -0.4756      0.00000
     11      -0.4317      0.00000
     12      -0.0074      0.00000


--------------------------------------------------------------------------------------------------------


 soft charge-density along one line, spin component           1
         0         1         2         3         4         5         6         7         8         9
 total charge-density along one line
 
 pseudopotential strength for first ion, spin component:           1
 -2.364  -4.078  -0.002   0.000  -0.001
 -4.078  -6.948  -0.005   0.001  -0.002
 -0.002  -0.005  -0.330  -0.001   0.002
  0.000   0.001  -0.001  -0.334   0.000
 -0.001  -0.002   0.002   0.000  -0.333
 total augmentation occupancy for first ion, spin component:           1
  3.488  -0.628   0.405  -0.084   0.146
 -0.628   0.128  -0.075   0.015  -0.026
  0.405  -0.075   0.049  -0.008   0.015
 -0.084   0.015  -0.008   0.010  -0.003
  0.146  -0.026   0.015  -0.003   0.012


------------------------ aborting loop because EDIFF is reached ----------------------------------------


    CHARGE:  cpu time    5.5602: real time    5.5709
    FORLOC:  cpu time    3.1015: real time    3.1075
    FORNL :  cpu time   15.8446: real time   15.8770
    STRESS:  cpu time   49.6005: real time   49.7024
    FORCOR:  cpu time   35.2996: real time   35.3697
    FORHAR:  cpu time   10.9603: real time   10.9816
    MIXING:  cpu time    1.2038: real time    1.2066
    OFIELD:  cpu time    0.0000: real time    0.0000

  FORCE on cell =-STRESS in cart. coord.  units (eV):
  Direction    XX          YY          ZZ          XY          YZ          ZX
  --------------------------------------------------------------------------------------
  Alpha Z     0.04144     0.04144     0.04144
  Ewald     562.20019    55.13401    58.70999    91.32679    19.52341    99.78638
  Hartree   571.33059   291.79689   293.34424    44.34138     8.60315    48.29354
  E(xc)     -59.11685   -60.29876   -60.28805     0.25889     0.05814     0.28409
  Local   -1279.68710  -518.05389  -522.86369  -128.98232   -26.44535  -140.71581
  n-local   -27.80937   -25.01373   -25.07082    -0.94207    -0.29407    -1.03412
  augment     0.44092     0.37931     0.37820    -0.01557    -0.00749    -0.02314
  Kinetic   232.48499   255.00038   254.73512    -6.14080    -1.45871    -6.76685
  Fock        0.00000     0.00000     0.00000     0.00000     0.00000     0.00000
  -------------------------------------------------------------------------------------
  Total      -0.11518    -1.01434    -1.01358    -0.15370    -0.02092    -0.17591
  in kB      -0.00684    -0.06019    -0.06015    -0.00912    -0.00124    -0.01044
  external pressure =       -0.04 kB  Pullay stress =        0.00 kB


 VOLUME and BASIS-vectors are now :
 -----------------------------------------------------------------------------
  energy-cutoff  :      400.00
  volume of cell :    27000.00
      direct lattice vectors                 reciprocal lattice vectors
    30.000000000  0.000000000  0.000000000     0.033333333  0.000000000  0.000000000
     0.000000000 30.000000000  0.000000000     0.000000000  0.033333333  0.000000000
     0.000000000  0.000000000 30.000000000     0.000000000  0.000000000  0.033333333

  length of vectors
    30.000000000 30.000000000 30.000000000     0.033333333  0.033333333  0.033333333


 FORCES acting on ions
    electron-ion (+dipol)            ewald-force                    non-local-force                 convergence-correction
 -----------------------------------------------------------------------------------------------
   0.306E+02 0.564E+02 -.966E+01   -.324E+02 -.616E+02 0.107E+02   0.188E+01 0.518E+01 -.108E+01   0.553E-04 0.992E-04 -.159E-04
   0.309E+02 -.163E+02 0.547E+02   -.328E+02 0.179E+02 -.597E+02   0.191E+01 -.169E+01 0.500E+01   0.554E-04 -.288E-04 0.963E-04
   0.356E+02 -.360E+02 -.409E+02   -.379E+02 0.395E+02 0.448E+02   0.194E+01 -.348E+01 -.394E+01   0.584E-04 -.754E-04 -.841E-04
   0.973E+02 0.146E+02 0.159E+02   -.102E+03 -.152E+02 -.165E+02   0.461E+01 0.570E+00 0.617E+00   0.170E-03 0.214E-04 0.337E-04
   0.540E+02 0.374E+02 0.416E+02   -.558E+02 -.384E+02 -.428E+02   0.180E+01 0.130E+01 0.145E+01   -.123E-02 -.174E-03 -.180E-03
   -.223E+03 -.481E+02 -.528E+02   0.261E+03 0.578E+02 0.635E+02   -.376E+02 -.987E+01 -.109E+02   -.177E-03 -.607E-04 -.522E-04
 -----------------------------------------------------------------------------------------------
   0.255E+02 0.799E+01 0.884E+01   0.000E+00 0.142E-13 0.000E+00   -.255E+02 -.800E+01 -.883E+01   -.107E-02 -.218E-03 -.202E-03
 
 
 POSITION                                       TOTAL-FORCE (eV/Angst)
 -----------------------------------------------------------------------------------
     14.16434     13.89923     15.11801         0.053610     -0.010073     -0.057463
     14.15833     15.24616     13.92605         0.051820     -0.054447     -0.017968
     14.13609     15.59645     15.67892        -0.348363     -0.019488     -0.020238
     14.52281     14.91595     14.90815        -0.017383      0.056313      0.061826
     15.96229     15.03590     15.03546        -0.043271      0.239851      0.268256
     17.05681     15.30597     15.33281         0.303587     -0.212156     -0.234414
 -----------------------------------------------------------------------------------
    total drift:                               -0.008517     -0.001411      0.005127


--------------------------------------------------------------------------------------------------------



  FREE ENERGIE OF THE ION-ELECTRON SYSTEM (eV)
  ---------------------------------------------------
  free  energy   TOTEN  =       -36.62466854 eV

  energy  without entropy=      -36.62466854  energy(sigma->0) =      -36.62466854
 


--------------------------------------------------------------------------------------------------------


    POTLOK:  cpu time   29.7285: real time   29.7893


--------------------------------------------------------------------------------------------------------


 NEB: the previous image is higher in energy: T
 NEB: the next image is higher in energy    : F
 NEB: only prev energy greater

 NEB: Tangent
 ----------------------------------------------
      0.07328     -0.01521     -0.09241
      0.07885     -0.07394     -0.03107
     -0.50942     -0.02869     -0.03088
     -0.02645      0.08249      0.08657
     -0.06189      0.35132      0.40060
      0.44563     -0.31598     -0.33281

 NEB: forces: par spring, perp REAL, dneb     0.007321    0.013293    0.000000
 NEB: distance to prev, next image, angle between     0.249786    0.251250  154.833937
 NEB: projections on to tangent (spring, REAL)     0.007321    0.681911

 stress matrix after NEB project (eV)
     -0.11518     -0.15370     -0.17591
     -0.15370     -1.01434     -0.02092
     -0.17591     -0.02092     -1.01358
  FORCES: max atom, RMS     0.010387    0.006195
  FORCE total and by dimension    0.015176    0.009904
  Stress total and by dimension    1.476315    1.014344
 
 OPT: Flag T
 OPT: FIRE Step
 OPT: FIRE, TIMESTEP      0.10000
 OPT: FIRE, alpha         0.10000


--------------------------------------------------------------------------------------------------------


    WAVPRE:  cpu time    8.2987: real time    8.6516
 FEWALD executed in parallel
    FEWALD:  cpu time    0.0010: real time    0.0003
    ORTHCH:  cpu time    6.2011: real time    6.5845
     LOOP+:  cpu time 3182.1682: real time 3198.7216


----------------------------------------- Iteration    2(   1)  ---------------------------------------


    POTLOK:  cpu time   36.0525: real time   39.0759
    SETDIJ:  cpu time    0.0060: real time    0.0062
     EDDAV:  cpu time   50.0514: real time   55.9765
       DOS:  cpu time    0.0000: real time    0.0002
    CHARGE:  cpu time    5.6541: real time    5.9088
    MIXING:  cpu time    0.6199: real time    0.6790
    --------------------------------------------
      LOOP:  cpu time   92.3870: real time  101.6487

 eigenvalue-minimisations  :    80
 total energy-change (2. order) :-0.1347987E-03  (-0.4861623E-05)
 number of electron      15.9999990 magnetization 
 augmentation part        0.4378578 magnetization 

 Broyden mixing:
  rms(total) = 0.13971E-03    rms(broyden)= 0.13809E-03
  rms(prec ) = 0.14234E-03
  weight for this iteration     100.00

 Free energy of the ion-electron system (eV)
  ---------------------------------------------------
  alpha Z        PSCENC =         0.04144063
  Ewald energy   TEWEN  =       676.04412340
  -Hartree energ DENC   =     -1156.47134956
  -exchange      EXHF   =         0.00000000
  -V(xc)+E(xc)   XCENC  =        54.99967830
  PAW double counting   =      1378.33755346    -1381.14150472
  entropy T*S    EENTRO =         0.00000000
  eigenvalues    EBANDS =      -204.60003605
  atomic energy  EATOM  =       596.16534815
  Solvation  Ediel_sol  =         0.00000000
  ---------------------------------------------------
  free energy    TOTEN  =       -36.62474638 eV

  energy without entropy =      -36.62474638  energy(sigma->0) =      -36.62474638


--------------------------------------------------------------------------------------------------------




----------------------------------------- Iteration    2(   2)  ---------------------------------------


    POTLOK:  cpu time   31.8462: real time   33.6284
    SETDIJ:  cpu time    0.0060: real time    0.0063
     EDDAV:  cpu time   62.2315: real time   65.2697
       DOS:  cpu time    0.0000: real time    0.0002
    CHARGE:  cpu time    5.9501: real time    5.9619
    MIXING:  cpu time    0.7219: real time    0.7244
    --------------------------------------------
      LOOP:  cpu time  100.7577: real time  105.6046

 eigenvalue-minimisations  :    96
 total energy-change (2. order) :-0.6042547E-05  (-0.2324941E-06)
 number of electron      15.9999990 magnetization 
 augmentation part        0.4378593 magnetization 

 Broyden mixing:
  rms(total) = 0.90907E-04    rms(broyden)= 0.90807E-04
  rms(prec ) = 0.94404E-04
  weight for this iteration     100.00

 eigenvalues of (default mixing * dielectric matrix)
  average eigenvalue GAMMA=   1.3164
  1.3164

 Free energy of the ion-electron system (eV)
  ---------------------------------------------------
  alpha Z        PSCENC =         0.04144063
  Ewald energy   TEWEN  =       676.04412340
  -Hartree energ DENC   =     -1156.47110802
  -exchange      EXHF   =         0.00000000
  -V(xc)+E(xc)   XCENC  =        54.99965434
  PAW double counting   =      1378.34427456    -1381.14821017
  entropy T*S    EENTRO =         0.00000000
  eigenvalues    EBANDS =      -204.60027531
  atomic energy  EATOM  =       596.16534815
  Solvation  Ediel_sol  =         0.00000000
  ---------------------------------------------------
  free energy    TOTEN  =       -36.62475242 eV

  energy without entropy =      -36.62475242  energy(sigma->0) =      -36.62475242


--------------------------------------------------------------------------------------------------------




----------------------------------------- Iteration    2(   3)  ---------------------------------------


    POTLOK:  cpu time   34.2568: real time   34.3304
[...]
  Solvation  Ediel_sol  =         0.00000000
  ---------------------------------------------------
  free energy    TOTEN  =       -36.63219233 eV

  energy without entropy =      -36.63219233  energy(sigma->0) =      -36.63219233


--------------------------------------------------------------------------------------------------------




----------------------------------------- Iteration   74(   2)  ---------------------------------------


    POTLOK:  cpu time   20.8138: real time   20.8534
    SETDIJ:  cpu time    0.0060: real time    0.0062
     EDDAV:  cpu time   34.0958: real time   34.1616
       DOS:  cpu time    0.0000: real time    0.0002
    CHARGE:  cpu time    5.2602: real time    5.2704
    MIXING:  cpu time    0.5729: real time    0.5740
    --------------------------------------------
      LOOP:  cpu time   60.7498: real time   60.8695

 eigenvalue-minimisations  :    48
 total energy-change (2. order) :-0.5370862E-07  (-0.6560713E-07)
 number of electron      15.9999994 magnetization 
 augmentation part        0.4378344 magnetization 

 Broyden mixing:
  rms(total) = 0.43714E-04    rms(broyden)= 0.43665E-04
  rms(prec ) = 0.44307E-04
  weight for this iteration     100.00

 eigenvalues of (default mixing * dielectric matrix)
  average eigenvalue GAMMA=   1.1828
  1.1828

 Free energy of the ion-electron system (eV)
  ---------------------------------------------------
  alpha Z        PSCENC =         0.04144063
  Ewald energy   TEWEN  =       675.83256151
  -Hartree energ DENC   =     -1156.26026117
  -exchange      EXHF   =         0.00000000
  -V(xc)+E(xc)   XCENC  =        54.99815543
  PAW double counting   =      1378.20604345    -1381.00978241
  entropy T*S    EENTRO =         0.00000000
  eigenvalues    EBANDS =      -204.60569798
  atomic energy  EATOM  =       596.16534815
  Solvation  Ediel_sol  =         0.00000000
  ---------------------------------------------------
  free energy    TOTEN  =       -36.63219239 eV

  energy without entropy =      -36.63219239  energy(sigma->0) =      -36.63219239


--------------------------------------------------------------------------------------------------------




----------------------------------------- Iteration   74(   3)  ---------------------------------------


    POTLOK:  cpu time   21.4497: real time   21.4916
    SETDIJ:  cpu time    0.0050: real time    0.0061
     EDDAV:  cpu time   33.7309: real time   33.7949
       DOS:  cpu time    0.0000: real time    0.0002
    CHARGE:  cpu time    5.2792: real time    5.2899
    MIXING:  cpu time    0.6099: real time    0.6110
    --------------------------------------------
      LOOP:  cpu time   61.0767: real time   61.1981

 eigenvalue-minimisations  :    48
 total energy-change (2. order) :-0.1195212E-07  (-0.8280440E-08)
 number of electron      15.9999994 magnetization 
 augmentation part        0.4378342 magnetization 

 Broyden mixing:
  rms(total) = 0.25897E-04    rms(broyden)= 0.25881E-04
  rms(prec ) = 0.26418E-04
  weight for this iteration     100.00

 eigenvalues of (default mixing * dielectric matrix)
  average eigenvalue GAMMA=   1.5845
  1.0622  2.1067

 Free energy of the ion-electron system (eV)
  ---------------------------------------------------
  alpha Z        PSCENC =         0.04144063
  Ewald energy   TEWEN  =       675.83256151
  -Hartree energ DENC   =     -1156.26037636
  -exchange      EXHF   =         0.00000000
  -V(xc)+E(xc)   XCENC  =        54.99816213
  PAW double counting   =      1378.20677201    -1381.01051214
  entropy T*S    EENTRO =         0.00000000
  eigenvalues    EBANDS =      -204.60558832
  atomic energy  EATOM  =       596.16534815
  Solvation  Ediel_sol  =         0.00000000
  ---------------------------------------------------
  free energy    TOTEN  =       -36.63219240 eV

  energy without entropy =      -36.63219240  energy(sigma->0) =      -36.63219240


--------------------------------------------------------------------------------------------------------




----------------------------------------- Iteration   74(   4)  ---------------------------------------


    POTLOK:  cpu time   21.1298: real time   21.1685
    SETDIJ:  cpu time    0.0060: real time    0.0062
     EDDAV:  cpu time   33.1570: real time   33.2192
       DOS:  cpu time    0.0000: real time    0.0002
    CHARGE:  cpu time    5.1382: real time    5.1488
    MIXING:  cpu time    0.6219: real time    0.6223
    --------------------------------------------
      LOOP:  cpu time   60.0539: real time   60.1693

 eigenvalue-minimisations  :    48
 total energy-change (2. order) :-0.4528147E-08  (-0.2826201E-08)
 number of electron      15.9999994 magnetization 
 augmentation part        0.4378341 magnetization 

 Broyden mixing:
  rms(total) = 0.64519E-05    rms(broyden)= 0.64349E-05
  rms(prec ) = 0.65857E-05
  weight for this iteration     100.00

 eigenvalues of (default mixing * dielectric matrix)
  average eigenvalue GAMMA=   1.4799
  2.0882  1.4609  0.8906

 Free energy of the ion-electron system (eV)
  ---------------------------------------------------
  alpha Z        PSCENC =         0.04144063
  Ewald energy   TEWEN  =       675.83256151
  -Hartree energ DENC   =     -1156.26046821
  -exchange      EXHF   =         0.00000000
  -V(xc)+E(xc)   XCENC  =        54.99816761
  PAW double counting   =      1378.20683747    -1381.01057799
  entropy T*S    EENTRO =         0.00000000
  eigenvalues    EBANDS =      -204.60550157
  atomic energy  EATOM  =       596.16534815
  Solvation  Ediel_sol  =         0.00000000
  ---------------------------------------------------
  free energy    TOTEN  =       -36.63219240 eV

  energy without entropy =      -36.63219240  energy(sigma->0) =      -36.63219240


--------------------------------------------------------------------------------------------------------




----------------------------------------- Iteration   74(   5)  ---------------------------------------


    POTLOK:  cpu time   21.9607: real time   22.0037
    SETDIJ:  cpu time    0.0070: real time    0.0062
     EDDAV:  cpu time   33.1590: real time   33.2224
       DOS:  cpu time    0.0000: real time    0.0002
    CHARGE:  cpu time    5.0192: real time    5.0289
    MIXING:  cpu time    0.6819: real time    0.6836
    --------------------------------------------
      LOOP:  cpu time   60.8288: real time   60.9490

 eigenvalue-minimisations  :    48
 total energy-change (2. order) :-0.2446541E-09  (-0.1692993E-08)
 number of electron      15.9999994 magnetization 
 augmentation part        0.4378340 magnetization 

 Broyden mixing:
  rms(total) = 0.51922E-05    rms(broyden)= 0.51866E-05
  rms(prec ) = 0.53176E-05
  weight for this iteration     100.00

 eigenvalues of (default mixing * dielectric matrix)
  average eigenvalue GAMMA=   1.4654
  2.0760  2.0760  0.9910  0.7186

 Free energy of the ion-electron system (eV)
  ---------------------------------------------------
  alpha Z        PSCENC =         0.04144063
  Ewald energy   TEWEN  =       675.83256151
  -Hartree energ DENC   =     -1156.26046358
  -exchange      EXHF   =         0.00000000
  -V(xc)+E(xc)   XCENC  =        54.99816745
  PAW double counting   =      1378.20672050    -1381.01046071
  entropy T*S    EENTRO =         0.00000000
  eigenvalues    EBANDS =      -204.60550634
  atomic energy  EATOM  =       596.16534815
  Solvation  Ediel_sol  =         0.00000000
  ---------------------------------------------------
  free energy    TOTEN  =       -36.63219240 eV

  energy without entropy =      -36.63219240  energy(sigma->0) =      -36.63219240


--------------------------------------------------------------------------------------------------------




----------------------------------------- Iteration   74(   6)  ---------------------------------------


    POTLOK:  cpu time   20.4439: real time   20.4840
    SETDIJ:  cpu time    0.0060: real time    0.0062
     EDDAV:  cpu time   32.8490: real time   32.9113
       DOS:  cpu time    0.0000: real time    0.0002
    --------------------------------------------
      LOOP:  cpu time   53.3009: real time   53.4053

 eigenvalue-minimisations  :    48
 total energy-change (2. order) : 0.6866685E-10  (-0.1330402E-08)
 number of electron      15.9999994 magnetization 
 augmentation part        0.4378340 magnetization 

 Free energy of the ion-electron system (eV)
  ---------------------------------------------------
  alpha Z        PSCENC =         0.04144063
  Ewald energy   TEWEN  =       675.83256151
  -Hartree energ DENC   =     -1156.26044786
  -exchange      EXHF   =         0.00000000
  -V(xc)+E(xc)   XCENC  =        54.99816650
  PAW double counting   =      1378.20662534    -1381.01036518
  entropy T*S    EENTRO =         0.00000000
  eigenvalues    EBANDS =      -204.60552149
  atomic energy  EATOM  =       596.16534815
  Solvation  Ediel_sol  =         0.00000000
  ---------------------------------------------------
  free energy    TOTEN  =       -36.63219240 eV

  energy without entropy =      -36.63219240  energy(sigma->0) =      -36.63219240


--------------------------------------------------------------------------------------------------------




 average (electrostatic) potential at core
  the test charge radii are     0.5201  0.6991  0.7089
  (the norm of the test charge is              1.0000)
       1 -43.1699       2 -43.1684       3 -43.1776       4 -60.0667       5 -60.0613
       6 -73.2225
 
 
 
 E-fermi :  -7.0116     XC(G=0):  -0.0601     alpha+bet : -0.0137


 k-point     1 :       0.2500    0.2500    0.2500
  band No.  band energies     occupation 
      1     -22.5510      2.00000
      2     -19.3810      2.00000
      3     -12.7836      2.00000
      4     -11.4967      2.00000
      5     -11.4922      2.00000
      6      -8.5180      2.00000
      7      -8.0889      2.00000
      8      -7.9915      2.00000
      9      -0.9749      0.00000
     10      -0.4760      0.00000
     11      -0.4326      0.00000
     12       0.0233      0.00000

 k-point     2 :      -0.2500    0.2500    0.2500
  band No.  band energies     occupation 
      1     -22.5510      2.00000
      2     -19.3810      2.00000
      3     -12.7836      2.00000
      4     -11.4967      2.00000
      5     -11.4922      2.00000
      6      -8.5180      2.00000
      7      -8.0889      2.00000
      8      -7.9915      2.00000
      9      -0.9749      0.00000
     10      -0.4760      0.00000
     11      -0.4326      0.00000
     12       0.0208      0.00000

 k-point     3 :       0.2500   -0.2500    0.2500
  band No.  band energies     occupation 
      1     -22.5510      2.00000
      2     -19.3810      2.00000
      3     -12.7836      2.00000
      4     -11.4967      2.00000
      5     -11.4922      2.00000
      6      -8.5180      2.00000
      7      -8.0889      2.00000
      8      -7.9915      2.00000
      9      -0.9749      0.00000
     10      -0.4760      0.00000
     11      -0.4326      0.00000
     12       0.0220      0.00000

 k-point     4 :      -0.2500   -0.2500    0.2500
  band No.  band energies     occupation 
      1     -22.5510      2.00000
      2     -19.3810      2.00000
      3     -12.7836      2.00000
      4     -11.4967      2.00000
      5     -11.4922      2.00000
      6      -8.5180      2.00000
      7      -8.0889      2.00000
      8      -7.9915      2.00000
      9      -0.9749      0.00000
     10      -0.4760      0.00000
     11      -0.4326      0.00000
     12       0.0219      0.00000


--------------------------------------------------------------------------------------------------------


 soft charge-density along one line, spin component           1
         0         1         2         3         4         5         6         7         8         9
 total charge-density along one line
 
 pseudopotential strength for first ion, spin component:           1
 -2.364  -4.078  -0.002   0.000  -0.001
 -4.078  -6.948  -0.005   0.001  -0.002
 -0.002  -0.005  -0.330  -0.001   0.001
  0.000   0.001  -0.001  -0.334   0.000
 -0.001  -0.002   0.001   0.000  -0.333
 total augmentation occupancy for first ion, spin component:           1
  3.487  -0.628   0.406  -0.084   0.145
 -0.628   0.128  -0.075   0.015  -0.026
  0.406  -0.075   0.049  -0.008   0.014
 -0.084   0.015  -0.008   0.010  -0.003
  0.145  -0.026   0.014  -0.003   0.012


------------------------ aborting loop because EDIFF is reached ----------------------------------------


    CHARGE:  cpu time    4.9862: real time    4.9944
    FORLOC:  cpu time    2.3306: real time    2.3357
    FORNL :  cpu time   16.6055: real time   16.6389
    STRESS:  cpu time   51.9521: real time   52.0775
    FORCOR:  cpu time   19.1901: real time   19.2382
    FORHAR:  cpu time    7.0059: real time    7.0244
    MIXING:  cpu time    0.7149: real time    0.7168
    OFIELD:  cpu time    0.0000: real time    0.0000

  FORCE on cell =-STRESS in cart. coord.  units (eV):
  Direction    XX          YY          ZZ          XY          YZ          ZX
  --------------------------------------------------------------------------------------
  Alpha Z     0.04144     0.04144     0.04144
  Ewald     564.09225    54.43944    57.30056    90.26188    18.58702    97.01630
  Hartree   572.02521   291.51263   292.72262    43.96978     8.23036    47.00839
  E(xc)     -59.10876   -60.29966   -60.29098     0.25474     0.05521     0.27578
  Local   -1282.05181  -517.16205  -520.97398  -127.67468   -25.23242  -136.88234
  n-local   -27.83770   -25.00552   -25.05452    -0.91621    -0.27918    -0.99660
  augment     0.43873     0.38022     0.37918    -0.01510    -0.00661    -0.02250
  Kinetic   232.23230   255.08401   254.86535    -6.03354    -1.37566    -6.57580
  Fock        0.00000     0.00000     0.00000     0.00000     0.00000     0.00000
  -------------------------------------------------------------------------------------
  Total      -0.16835    -1.00949    -1.01033    -0.15314    -0.02129    -0.17677
  in kB      -0.00999    -0.05990    -0.05995    -0.00909    -0.00126    -0.01049
  external pressure =       -0.04 kB  Pullay stress =        0.00 kB


 VOLUME and BASIS-vectors are now :
 -----------------------------------------------------------------------------
  energy-cutoff  :      400.00
  volume of cell :    27000.00
      direct lattice vectors                 reciprocal lattice vectors
    30.000000000  0.000000000  0.000000000     0.033333333  0.000000000  0.000000000
     0.000000000 30.000000000  0.000000000     0.000000000  0.033333333  0.000000000
     0.000000000  0.000000000 30.000000000     0.000000000  0.000000000  0.033333333

  length of vectors
    30.000000000 30.000000000 30.000000000     0.033333333  0.033333333  0.033333333


 FORCES acting on ions
    electron-ion (+dipol)            ewald-force                    non-local-force                 convergence-correction
 -----------------------------------------------------------------------------------------------
   0.304E+02 0.565E+02 -.971E+01   -.322E+02 -.617E+02 0.107E+02   0.186E+01 0.519E+01 -.108E+01   -.110E-06 -.105E-06 0.764E-06
   0.309E+02 -.161E+02 0.547E+02   -.328E+02 0.177E+02 -.597E+02   0.191E+01 -.167E+01 0.501E+01   -.151E-05 -.252E-06 0.125E-05
   0.357E+02 -.359E+02 -.408E+02   -.381E+02 0.394E+02 0.447E+02   0.198E+01 -.347E+01 -.393E+01   0.289E-05 -.665E-06 0.184E-05
   0.972E+02 0.145E+02 0.155E+02   -.102E+03 -.150E+02 -.160E+02   0.460E+01 0.573E+00 0.605E+00   -.570E-06 0.845E-07 0.105E-04
   0.548E+02 0.359E+02 0.399E+02   -.567E+02 -.369E+02 -.410E+02   0.182E+01 0.124E+01 0.138E+01   -.136E-04 0.388E-05 0.519E-04
   -.223E+03 -.471E+02 -.510E+02   0.262E+03 0.565E+02 0.613E+02   -.378E+02 -.962E+01 -.105E+02   -.154E-04 0.906E-05 0.850E-04
 -----------------------------------------------------------------------------------------------
   0.257E+02 0.776E+01 0.851E+01   0.000E+00 0.711E-14 0.000E+00   -.257E+02 -.777E+01 -.851E+01   -.282E-04 0.120E-04 0.151E-03
 
 
 POSITION                                       TOTAL-FORCE (eV/Angst)
 -----------------------------------------------------------------------------------
     14.16761     13.89907     15.12083         0.054059     -0.009337     -0.053375
     14.15774     15.24352     13.92755         0.052873     -0.049394     -0.017337
     14.13004     15.59657     15.67961        -0.334311     -0.017811     -0.018241
     14.52248     14.91711     14.91087        -0.016160      0.055555      0.060842
     15.96195     15.03992     15.03681        -0.039108      0.224740      0.252241
     17.06085     15.30347     15.32373         0.282648     -0.203753     -0.224130
 -----------------------------------------------------------------------------------
    total drift:                               -0.006936     -0.003323      0.006354


--------------------------------------------------------------------------------------------------------



  FREE ENERGIE OF THE ION-ELECTRON SYSTEM (eV)
  ---------------------------------------------------
  free  energy   TOTEN  =       -36.63219240 eV

  energy  without entropy=      -36.63219240  energy(sigma->0) =      -36.63219240
 
 d Force = 0.1196983E-04[ 0.120E-04, 0.120E-04]  d Energy = 0.1197465E-04-0.483E-08
 d Force =-0.1337555E-02[-0.134E-02,-0.134E-02]  d Ewald  =-0.1337555E-02 0.699E-10


--------------------------------------------------------------------------------------------------------


    POTLOK:  cpu time   20.8988: real time   20.9373


--------------------------------------------------------------------------------------------------------


 NEB: the previous image is higher in energy: T
 NEB: the next image is higher in energy    : F
 NEB: only prev energy greater

 NEB: Tangent
 ----------------------------------------------
      0.08283     -0.01385     -0.08652
      0.08483     -0.07550     -0.02786
     -0.51881     -0.02831     -0.02946
     -0.02524      0.08558      0.09195
     -0.05843      0.34787      0.39335
      0.43482     -0.31578     -0.34146

 NEB: forces: par spring, perp REAL, dneb     0.005051    0.005976    0.000000
 NEB: distance to prev, next image, angle between     0.251769    0.252779  154.756562
 NEB: projections on to tangent (spring, REAL)     0.005051    0.646625

 stress matrix after NEB project (eV)
     -0.16835     -0.15314     -0.17677
     -0.15314     -1.00949     -0.02129
     -0.17677     -0.02129     -1.01033
  FORCES: max atom, RMS     0.006358    0.003194
  FORCE total and by dimension    0.007825    0.005058
  Stress total and by dimension    1.475973    1.010333
 OPT: skip step - force has converged


--------------------------------------------------------------------------------------------------------


  
 reached required accuracy - stopping structural energy minimisation
     LOOP+:  cpu time  580.0108: real time  581.1794
    4ORBIT:  cpu time    0.0000: real time    0.0000

 total amount of memory used by VASP on root node  3203889. kBytes
========================================================================

   base      :      30000. kBytes
   nonlr-proj:        693. kBytes
   fftplans  :     924480. kBytes
   grid      :    1872000. kBytes
   one-center:         18. kBytes
   wavefun   :     376698. kBytes
 
  
  
 General timing and accounting informations for this job:
 ========================================================
  
                  Total CPU time used (sec):    49378.816
                            User time (sec):    48722.334
                          System time (sec):      656.482
                         Elapsed time (sec):    49851.705
  
                   Maximum memory used (kb):     4781392.
                   Average memory used (kb):           0.
  
                          Minor page faults:      7529248
                          Major page faults:            9
                 Voluntary context switches:         9408
