unknown system                          
           1
    30.000000    0.000000    0.000000
     0.000000   30.000000    0.000000
     0.000000    0.000000   30.000000
   H    C    N 
   3   2   1
Direct configuration=     1
   0.47214606  0.46330756  0.50393531
   0.47194375  0.50820384  0.46420282
   0.47120140  0.51988162  0.52263076
   0.48409395  0.49719867  0.49693939
   0.53207588  0.50119771  0.50118149
   0.56856142  0.51019940  0.51109022
Direct configuration=     2
   0.47214872  0.46330759  0.50393845
   0.47194284  0.50820091  0.46420464
   0.47119821  0.51988157  0.52263120
   0.48409411  0.49719908  0.49694157
   0.53207583  0.50119985  0.50118058
   0.56856274  0.51019980  0.51108356
Direct configuration=     3
   0.47215246  0.46330742  0.50394292
   0.47194152  0.50819675  0.46420704
   0.47119367  0.51988153  0.52263195
   0.48409423  0.49719983  0.49694473
   0.53207558  0.50120283  0.50117928
   0.56856500  0.51020044  0.51107408
Direct configuration=     4
   0.47215704  0.46330700  0.50394849
   0.47193988  0.50819173  0.46420972
   0.47118802  0.51988161  0.52263315
   0.48409410  0.49720060  0.49694848
   0.53207496  0.50120651  0.50117775
   0.56856846  0.51020135  0.51106240
Direct configuration=     5
   0.47216212  0.46330625  0.50395481
   0.47193802  0.50818623  0.46421239
   0.47118158  0.51988184  0.52263490
   0.48409345  0.49720107  0.49695243
   0.53207538  0.50121127  0.50117656
   0.56857192  0.51020214  0.51104890
Direct configuration=     6
   0.47216723  0.46330503  0.50396143
   0.47193608  0.50818082  0.46421474
   0.47117501  0.51988200  0.52263703
   0.48409284  0.49720136  0.49695643
   0.53207378  0.50121623  0.50117504
   0.56857752  0.51020337  0.51103533
Direct configuration=     7
   0.47217240  0.46330337  0.50396802
   0.47193421  0.50817547  0.46421680
   0.47116792  0.51988184  0.52263914
   0.48409138  0.49720177  0.49696079
   0.53207670  0.50122304  0.50117534
   0.56857985  0.51020332  0.51101992
Direct configuration=     8
   0.47217236  0.46330335  0.50396793
   0.47193425  0.50817556  0.46421678
   0.47116803  0.51988178  0.52263910
   0.48409164  0.49720182  0.49696077
   0.53207503  0.50122266  0.50117501
   0.56858116  0.51020365  0.51102040
Direct configuration=     9
   0.47217227  0.46330329  0.50396772
   0.47193435  0.50817573  0.46421673
   0.47116813  0.51988164  0.52263903
   0.48409198  0.49720190  0.49696073
   0.53207290  0.50122224  0.50117476
   0.56858282  0.51020400  0.51102103
Direct configuration=    10
   0.47217227  0.46330329  0.50396769
   0.47193436  0.50817574  0.46421673
   0.47116810  0.51988162  0.52263902
   0.48409194  0.49720190  0.49696072
   0.53207317  0.50122233  0.50117488
   0.56858261  0.51020392  0.51102096
Direct configuration=    11
   0.47217226  0.46330328  0.50396764
   0.47193439  0.50817577  0.46421672
   0.47116804  0.51988160  0.52263900
   0.48409188  0.49720191  0.49696071
   0.53207366  0.50122250  0.50117510
   0.56858223  0.51020375  0.51102083
Direct configuration=    12
   0.47217225  0.46330327  0.50396755
   0.47193443  0.50817580  0.46421670
   0.47116794  0.51988155  0.52263898
   0.48409179  0.49720192  0.49696070
   0.53207427  0.50122274  0.50117542
   0.56858178  0.51020352  0.51102065
Direct configuration=    13
   0.47217224  0.46330325  0.50396741
   0.47193449  0.50817585  0.46421667
   0.47116779  0.51988149  0.52263895
   0.48409172  0.49720194  0.49696068
   0.53207482  0.50122302  0.50117582
   0.56858141  0.51020325  0.51102047
Direct configuration=    14
   0.47217224  0.46330325  0.50396740
   0.47193450  0.50817585  0.46421667
   0.47116778  0.51988148  0.52263894
   0.48409172  0.49720194  0.49696068
   0.53207479  0.50122303  0.50117583
   0.56858143  0.51020325  0.51102047
Direct configuration=    15
   0.47217224  0.46330325  0.50396739
   0.47193450  0.50817586  0.46421667
   0.47116776  0.51988148  0.52263894
   0.48409173  0.49720195  0.49696068
   0.53207474  0.50122303  0.50117584
   0.56858149  0.51020324  0.51102047
Direct configuration=    16
   0.47217225  0.46330325  0.50396737
   0.47193451  0.50817586  0.46421666
   0.47116772  0.51988147  0.52263893
   0.48409173  0.49720195  0.49696069
   0.53207466  0.50122305  0.50117588
   0.56858158  0.51020322  0.51102046
Direct configuration=    17
   0.47217225  0.46330324  0.50396734
   0.47193453  0.50817587  0.46421666
   0.47116766  0.51988145  0.52263893
   0.48409174  0.49720196  0.49696070
   0.53207457  0.50122309  0.50117593
   0.56858171  0.51020319  0.51102045
Direct configuration=    18
   0.47217226  0.46330324  0.50396730
   0.47193455  0.50817587  0.46421665
   0.47116757  0.51988144  0.52263892
   0.48409175  0.49720198  0.49696071
   0.53207446  0.50122315  0.50117601
   0.56858187  0.51020314  0.51102042
Direct configuration=    19
   0.47217228  0.46330323  0.50396726
   0.47193458  0.50817586  0.46421664
   0.47116744  0.51988142  0.52263890
   0.48409176  0.49720200  0.49696072
   0.53207434  0.50122323  0.50117612
   0.56858206  0.51020307  0.51102036
Direct configuration=    20
   0.47217231  0.46330322  0.50396720
   0.47193461  0.50817585  0.46421662
   0.47116725  0.51988139  0.52263888
   0.48409176  0.49720204  0.49696075
   0.53207421  0.50122336  0.50117629
   0.56858232  0.51020295  0.51102025
Direct configuration=    21
   0.47217235  0.46330320  0.50396712
   0.47193466  0.50817582  0.46421660
   0.47116696  0.51988135  0.52263886
   0.48409176  0.49720208  0.49696080
   0.53207407  0.50122357  0.50117654
   0.56858267  0.51020277  0.51102008
Direct configuration=    22
   0.47217242  0.46330317  0.50396702
   0.47193472  0.50817577  0.46421658
   0.47116653  0.51988131  0.52263882
   0.48409175  0.49720215  0.49696087
   0.53207392  0.50122390  0.50117692
   0.56858312  0.51020250  0.51101980
Direct configuration=    23
   0.47217252  0.46330314  0.50396689
   0.47193479  0.50817568  0.46421654
   0.47116591  0.51988125  0.52263877
   0.48409173  0.49720225  0.49696097
   0.53207379  0.50122438  0.50117746
   0.56858372  0.51020210  0.51101936
Direct configuration=    24
   0.47217268  0.46330309  0.50396673
   0.47193489  0.50817555  0.46421651
   0.47116504  0.51988118  0.52263871
   0.48409168  0.49720239  0.49696113
   0.53207369  0.50122507  0.50117822
   0.56858448  0.51020153  0.51101871
Direct configuration=    25
   0.47217291  0.46330303  0.50396655
   0.47193500  0.50817534  0.46421646
   0.47116385  0.51988108  0.52263862
   0.48409161  0.49720258  0.49696135
   0.53207363  0.50122603  0.50117924
   0.56858546  0.51020075  0.51101777
Direct configuration=    26
   0.47217324  0.46330294  0.50396636
   0.47193512  0.50817502  0.46421642
   0.47116228  0.51988098  0.52263852
   0.48409150  0.49720284  0.49696167
   0.53207364  0.50122732  0.50118058
   0.56858668  0.51019971  0.51101645
Direct configuration=    27
   0.47217372  0.46330282  0.50396619
   0.47193523  0.50817456  0.46421640
   0.47116020  0.51988085  0.52263839
   0.48409136  0.49720317  0.49696211
   0.53207371  0.50122903  0.50118228
   0.56858823  0.51019838  0.51101463
Direct configuration=    28
   0.47217441  0.46330266  0.50396608
   0.47193530  0.50817388  0.46421642
   0.47115753  0.51988071  0.52263824
   0.48409120  0.49720361  0.49696273
   0.53207380  0.50123123  0.50118438
   0.56859023  0.51019672  0.51101214
Direct configuration=    29
   0.47217540  0.46330246  0.50396612
   0.47193530  0.50817291  0.46421651
   0.47115412  0.51988055  0.52263807
   0.48409101  0.49720417  0.49696360
   0.53207383  0.50123401  0.50118690
   0.56859281  0.51019471  0.51100880
Direct configuration=    30
   0.47217676  0.46330221  0.50396636
   0.47193521  0.50817158  0.46421671
   0.47114984  0.51988039  0.52263789
   0.48409084  0.49720489  0.49696477
   0.53207370  0.50123741  0.50118983
   0.56859610  0.51019232  0.51100445
Direct configuration=    31
   0.47217861  0.46330192  0.50396687
   0.47193505  0.50816983  0.46421706
   0.47114453  0.51988022  0.52263769
   0.48409071  0.49720582  0.49696633
   0.53207338  0.50124149  0.50119315
   0.56860018  0.51018952  0.51099890
Direct configuration=    32
   0.47218110  0.46330163  0.50396774
   0.47193482  0.50816759  0.46421762
   0.47113802  0.51988006  0.52263749
   0.48409061  0.49720701  0.49696835
   0.53207295  0.50124628  0.50119685
   0.56860495  0.51018625  0.51099194
Direct configuration=    33
   0.47218440  0.46330136  0.50396914
   0.47193457  0.50816479  0.46421850
   0.47113017  0.51987993  0.52263731
   0.48409054  0.49720849  0.49697093
   0.53207262  0.50125177  0.50120080
   0.56861016  0.51018246  0.51098331
Direct configuration=    34
   0.47218878  0.46330121  0.50397127
   0.47193434  0.50816138  0.46421983
   0.47112088  0.51987990  0.52263723
   0.48409048  0.49721029  0.49697415
   0.53207238  0.50125777  0.50120463
   0.56861560  0.51017825  0.51097289
Direct configuration=    35
   0.47219445  0.46330123  0.50397449
   0.47193417  0.50815733  0.46422179
   0.47111035  0.51988003  0.52263736
   0.48409039  0.49721237  0.49697804
   0.53207189  0.50126386  0.50120746
   0.56862122  0.51017398  0.51096085
Direct configuration=    36
   0.47220143  0.46330144  0.50397914
   0.47193404  0.50815282  0.46422441
   0.47109929  0.51988045  0.52263786
   0.48409018  0.49721460  0.49698250
   0.53207082  0.50126929  0.50120831
   0.56862670  0.51017021  0.51094778
Direct configuration=    37
   0.47220152  0.46330144  0.50397928
   0.47193403  0.50815281  0.46422446
   0.47109935  0.51988048  0.52263790
   0.48409014  0.49721459  0.49698252
   0.53207089  0.50126921  0.50120810
   0.56862652  0.51017029  0.51094774
Direct configuration=    38
   0.47220169  0.46330144  0.50397957
   0.47193401  0.50815278  0.46422455
   0.47109946  0.51988054  0.52263799
   0.48409007  0.49721457  0.49698257
   0.53207101  0.50126905  0.50120768
   0.56862622  0.51017043  0.51094765
Direct configuration=    39
   0.47220195  0.46330143  0.50397999
   0.47193397  0.50815272  0.46422468
   0.47109958  0.51988062  0.52263812
   0.48408997  0.49721455  0.49698264
   0.53207112  0.50126885  0.50120707
   0.56862586  0.51017063  0.51094750
Direct configuration=    40
   0.47220231  0.46330142  0.50398054
   0.47193393  0.50815263  0.46422484
   0.47109966  0.51988073  0.52263828
   0.48408985  0.49721454  0.49698276
   0.53207117  0.50126862  0.50120632
   0.56862554  0.51017087  0.51094725
Direct configuration=    41
   0.47220275  0.46330139  0.50398121
   0.47193388  0.50815249  0.46422503
   0.47109965  0.51988085  0.52263848
   0.48408972  0.49721454  0.49698293
   0.53207112  0.50126843  0.50120548
   0.56862533  0.51017110  0.51094687
Direct configuration=    42
   0.47220328  0.46330135  0.50398195
   0.47193383  0.50815231  0.46422524
   0.47109948  0.51988098  0.52263870
   0.48408957  0.49721457  0.49698316
   0.53207099  0.50126833  0.50120466
   0.56862531  0.51017127  0.51094630
Direct configuration=    43
   0.47220396  0.46330127  0.50398281
   0.47193377  0.50815203  0.46422547
   0.47109902  0.51988112  0.52263894
   0.48408939  0.49721464  0.49698348
   0.53207079  0.50126844  0.50120390
   0.56862554  0.51017131  0.51094539
Direct configuration=    44
   0.47220481  0.46330115  0.50398379
   0.47193369  0.50815161  0.46422572
   0.47109810  0.51988125  0.52263922
   0.48408916  0.49721479  0.49698394
   0.53207059  0.50126892  0.50120338
   0.56862611  0.51017109  0.51094395
Direct configuration=    45
   0.47220587  0.46330098  0.50398489
   0.47193361  0.50815100  0.46422599
   0.47109647  0.51988136  0.52263950
   0.48408887  0.49721506  0.49698459
   0.53207047  0.50126999  0.50120331
   0.56862716  0.51017042  0.51094172
Direct configuration=    46
   0.47220721  0.46330074  0.50398612
   0.47193346  0.50815012  0.46422630
   0.47109399  0.51988145  0.52263980
   0.48408851  0.49721548  0.49698550
   0.53207048  0.50127185  0.50120384
   0.56862881  0.51016917  0.51093844
Direct configuration=    47
   0.47220889  0.46330043  0.50398757
   0.47193319  0.50814890  0.46422669
   0.47109045  0.51988149  0.52264011
   0.48408812  0.49721610  0.49698675
   0.53207053  0.50127468  0.50120508
   0.56863129  0.51016721  0.51093379
Direct configuration=    48
   0.47221103  0.46330007  0.50398934
   0.47193268  0.50814719  0.46422724
   0.47108565  0.51988150  0.52264046
   0.48408775  0.49721700  0.49698847
   0.53207037  0.50127863  0.50120708
   0.56863498  0.51016442  0.51092740
Direct configuration=    49
   0.47221380  0.46329971  0.50399160
   0.47193181  0.50814485  0.46422813
   0.47107936  0.51988147  0.52264087
   0.48408746  0.49721826  0.49699083
   0.53206987  0.50128386  0.50120983
   0.56864017  0.51016065  0.51091875
Direct configuration=    50
   0.47221750  0.46329947  0.50399461
   0.47193042  0.50814169  0.46422958
   0.47107129  0.51988148  0.52264146
   0.48408718  0.49721996  0.49699400
   0.53206934  0.50129051  0.50121326
   0.56864673  0.51015570  0.51090709
Direct configuration=    51
   0.47222242  0.46329953  0.50399866
   0.47192850  0.50813760  0.46423193
   0.47106146  0.51988158  0.52264234
   0.48408688  0.49722217  0.49699815
   0.53206917  0.50129832  0.50121693
   0.56865403  0.51014961  0.51089199
Direct configuration=    52
   0.47222894  0.46330012  0.50400429
   0.47192601  0.50813263  0.46423557
   0.47105046  0.51988197  0.52264374
   0.48408665  0.49722489  0.49700341
   0.53206809  0.50130598  0.50121921
   0.56866231  0.51014321  0.51087377
Direct configuration=    53
   0.47223699  0.46330123  0.50401198
   0.47192296  0.50812722  0.46424060
   0.47103974  0.51988290  0.52264600
   0.48408610  0.49722790  0.49700959
   0.53206775  0.50131221  0.50121871
   0.56866891  0.51013735  0.51085313
Direct configuration=    54
   0.47223707  0.46330124  0.50401224
   0.47192288  0.50812725  0.46424070
   0.47104005  0.51988300  0.52264613
   0.48408610  0.49722787  0.49700962
   0.53206756  0.50131181  0.50121816
   0.56866881  0.51013764  0.51085316
Direct configuration=    55
   0.47223722  0.46330124  0.50401274
   0.47192272  0.50812732  0.46424089
   0.47104062  0.51988318  0.52264639
   0.48408606  0.49722781  0.49700970
   0.53206730  0.50131109  0.50121715
   0.56866854  0.51013816  0.51085312
Direct configuration=    56
   0.47223746  0.46330124  0.50401348
   0.47192248  0.50812739  0.46424118
   0.47104135  0.51988345  0.52264678
   0.48408596  0.49722775  0.49700984
   0.53206716  0.50131019  0.50121582
   0.56866804  0.51013880  0.51085291
Direct configuration=    57
   0.47223779  0.46330122  0.50401443
   0.47192218  0.50812744  0.46424154
   0.47104210  0.51988378  0.52264728
   0.48408577  0.49722768  0.49701005
   0.53206727  0.50130925  0.50121435
   0.56866735  0.51013943  0.51085235
Direct configuration=    58
   0.47223821  0.46330118  0.50401553
   0.47192183  0.50812743  0.46424196
   0.47104267  0.51988417  0.52264786
   0.48408550  0.49722763  0.49701036
   0.53206749  0.50130847  0.50121296
   0.56866676  0.51013993  0.51085133
Direct configuration=    59
   0.47223871  0.46330110  0.50401667
   0.47192148  0.50812733  0.46424239
   0.47104284  0.51988456  0.52264848
   0.48408520  0.49722765  0.49701080
   0.53206760  0.50130799  0.50121184
   0.56866663  0.51014018  0.51084982
Direct configuration=    60
   0.47223934  0.46330097  0.50401788
   0.47192113  0.50812707  0.46424285
   0.47104236  0.51988496  0.52264914
   0.48408486  0.49722778  0.49701144
   0.53206748  0.50130799  0.50121117
   0.56866729  0.51014005  0.51084751
Direct configuration=    61
   0.47224017  0.46330077  0.50401909
   0.47192084  0.50812657  0.46424333
   0.47104072  0.51988531  0.52264979
   0.48408447  0.49722810  0.49701239
   0.53206717  0.50130888  0.50121140
   0.56866908  0.51013918  0.51084400
Direct configuration=    62
   0.47224124  0.46330053  0.50402025
   0.47192067  0.50812575  0.46424384
   0.47103757  0.51988556  0.52265041
   0.48408403  0.49722869  0.49701375
   0.53206698  0.50131102  0.50121289
   0.56867197  0.51013727  0.51083886
Direct configuration=    63
   0.47224265  0.46330026  0.50402132
   0.47192067  0.50812450  0.46424442
   0.47103247  0.51988566  0.52265094
   0.48408355  0.49722966  0.49701569
   0.53206710  0.50131475  0.50121601
   0.56867602  0.51013398  0.51083163
Direct configuration=    64
   0.47224450  0.46330008  0.50402234
   0.47192096  0.50812276  0.46424521
   0.47102517  0.51988555  0.52265134
   0.48408319  0.49723113  0.49701835
   0.53206704  0.50132004  0.50122064
   0.56868159  0.51012926  0.51082212
Direct configuration=    65
   0.47224702  0.46330015  0.50402334
   0.47192170  0.50812051  0.46424637
   0.47101554  0.51988516  0.52265153
   0.48408327  0.49723333  0.49702233
   0.53206595  0.50132639  0.50122613
   0.56868897  0.51012326  0.51081030
Direct configuration=    66
   0.47225058  0.46330088  0.50402458
   0.47192328  0.50811777  0.46424852
   0.47100355  0.51988472  0.52265181
   0.48408339  0.49723615  0.49702733
   0.53206573  0.50133341  0.50123193
   0.56869592  0.51011588  0.51079583
Direct configuration=    67
   0.47225070  0.46330096  0.50402467
   0.47192338  0.50811777  0.46424867
   0.47100348  0.51988477  0.52265189
   0.48408339  0.49723616  0.49702734
   0.53206549  0.50133319  0.50123164
   0.56869601  0.51011595  0.51079578
Direct configuration=    68
   0.47225096  0.46330113  0.50402486
   0.47192358  0.50811776  0.46424897
   0.47100333  0.51988487  0.52265205
   0.48408336  0.49723618  0.49702737
   0.53206516  0.50133280  0.50123112
   0.56869607  0.51011606  0.51079563
Direct configuration=    69
   0.47225133  0.46330136  0.50402516
   0.47192383  0.50811774  0.46424939
   0.47100308  0.51988502  0.52265228
   0.48408329  0.49723623  0.49702745
   0.53206494  0.50133233  0.50123043
   0.56869598  0.51011613  0.51079529
Direct configuration=    70
   0.47225180  0.46330161  0.50402557
   0.47192411  0.50811771  0.46424989
   0.47100275  0.51988519  0.52265257
   0.48408318  0.49723631  0.49702763
   0.53206496  0.50133186  0.50122966
   0.56869567  0.51011612  0.51079469
Direct configuration=    71
   0.47225235  0.46330187  0.50402610
   0.47192436  0.50811765  0.46425044
   0.47100233  0.51988538  0.52265289
   0.48408302  0.49723645  0.49702795
   0.53206514  0.50133142  0.50122883
   0.56869525  0.51011603  0.51079380
Direct configuration=    72
   0.47225297  0.46330210  0.50402677
   0.47192452  0.50811755  0.46425101
   0.47100184  0.51988559  0.52265324
   0.48408288  0.49723665  0.49702843
   0.53206526  0.50133104  0.50122795
   0.56869499  0.51011588  0.51079260
Direct configuration=    73
   0.47225371  0.46330228  0.50402769
   0.47192455  0.50811737  0.46425164
   0.47100121  0.51988583  0.52265366
   0.48408275  0.49723694  0.49702914
   0.53206513  0.50133074  0.50122696
   0.56869511  0.51011564  0.51079090
Direct configuration=    74
   0.47225371  0.46330228  0.50402769
   0.47192455  0.50811737  0.46425164
   0.47100121  0.51988583  0.52265366
   0.48408275  0.49723694  0.49702914
   0.53206513  0.50133074  0.50122696
   0.56869511  0.51011564  0.51079090
