   6   6   0   0
  0.4500000E+04  0.3000000E-08  0.3000000E-08  0.3000000E-08  0.0000000E+00
  1.000000000000000E-004
  CAR 
 unknown system                          
      2.02042170    -24.52342228  301     -7.09261911      1.00000000
    -24.523  0.0000E+00  0.0000E+00
    -24.435  0.0000E+00  0.0000E+00
    -24.346  0.0000E+00  0.0000E+00
    -24.258  0.0000E+00  0.0000E+00
    -24.170  0.0000E+00  0.0000E+00
    -24.081  0.0000E+00  0.0000E+00
    -23.993  0.0000E+00  0.0000E+00
    -23.904  0.0000E+00  0.0000E+00
    -23.816  0.0000E+00  0.0000E+00
    -23.727  0.0000E+00  0.0000E+00
    -23.639  0.1171E-15  0.1036E-16
    -23.550  0.1446E-13  0.1290E-14
    -23.462  0.1213E-11  0.1086E-12
    -23.373  0.6920E-10  0.6231E-11
    -23.285  0.2687E-08  0.2440E-09
    -23.196  0.7109E-07  0.6534E-08
    -23.108  0.1282E-05  0.1200E-06
    -23.019  0.1577E-04  0.1515E-05
    -22.931  0.1324E-03  0.1323E-04
    -22.842  0.7599E-03  0.8047E-04
    -22.754  0.2981E-02  0.3442E-03
    -22.665  0.7998E-02  0.1052E-02
    -22.577  0.1469E-01  0.2352E-02
    -22.488  0.1847E-01  0.3985E-02
    -22.400  0.1589E-01  0.5392E-02
    -22.311  0.9366E-02  0.6220E-02
    -22.223  0.3777E-02  0.6555E-02
    -22.134  0.1042E-02  0.6647E-02
    -22.046  0.1966E-03  0.6664E-02
    -21.958  0.2535E-04  0.6666E-02
    -21.869  0.2231E-05  0.6667E-02
    -21.781  0.1340E-06  0.6667E-02
    -21.692  0.5487E-08  0.6667E-02
    -21.604  0.1530E-09  0.6667E-02
    -21.515  0.2906E-11  0.6667E-02
    -21.427  0.3754E-13  0.6667E-02
    -21.338  0.3346E-15  0.6667E-02
    -21.250  0.0000E+00  0.6667E-02
    -21.161  0.0000E+00  0.6667E-02
    -21.073  0.0000E+00  0.6667E-02
    -20.984  0.0000E+00  0.6667E-02
    -20.896  0.0000E+00  0.6667E-02
    -20.807  0.0000E+00  0.6667E-02
    -20.719  0.0000E+00  0.6667E-02
    -20.630  0.0000E+00  0.6667E-02
    -20.542  0.8365E-17  0.6667E-02
    -20.453  0.1067E-14  0.6667E-02
    -20.365  0.1109E-12  0.6667E-02
    -20.276  0.7823E-11  0.6667E-02
    -20.188  0.3755E-09  0.6667E-02
    -20.099  0.1227E-07  0.6667E-02
    -20.011  0.2733E-06  0.6667E-02
    -19.922  0.4149E-05  0.6667E-02
    -19.834  0.4300E-04  0.6671E-02
    -19.746  0.3043E-03  0.6698E-02
    -19.657  0.1472E-02  0.6828E-02
    -19.569  0.4867E-02  0.7259E-02
    -19.480  0.1101E-01  0.8233E-02
    -19.392  0.1706E-01  0.9743E-02
    -19.303  0.1809E-01  0.1134E-01
    -19.215  0.1314E-01  0.1251E-01
    -19.126  0.6528E-02  0.1308E-01
    -19.038  0.2220E-02  0.1328E-01
    -18.949  0.5165E-03  0.1333E-01
    -18.861  0.8213E-04  0.1333E-01
    -18.772  0.8921E-05  0.1333E-01
    -18.684  0.6614E-06  0.1333E-01
    -18.595  0.3345E-07  0.1333E-01
    -18.507  0.1153E-08  0.1333E-01
    -18.418  0.2706E-10  0.1333E-01
    -18.330  0.4322E-12  0.1333E-01
    -18.241  0.4701E-14  0.1333E-01
    -18.153  0.3346E-16  0.1333E-01
    -18.064  0.0000E+00  0.1333E-01
    -17.976  0.0000E+00  0.1333E-01
    -17.887  0.0000E+00  0.1333E-01
    -17.799  0.0000E+00  0.1333E-01
    -17.711  0.0000E+00  0.1333E-01
    -17.622  0.0000E+00  0.1333E-01
    -17.534  0.0000E+00  0.1333E-01
    -17.445  0.0000E+00  0.1333E-01
    -17.357  0.0000E+00  0.1333E-01
    -17.268  0.0000E+00  0.1333E-01
    -17.180  0.0000E+00  0.1333E-01
    -17.091  0.0000E+00  0.1333E-01
    -17.003  0.0000E+00  0.1333E-01
    -16.914  0.0000E+00  0.1333E-01
    -16.826  0.0000E+00  0.1333E-01
    -16.737  0.0000E+00  0.1333E-01
    -16.649  0.0000E+00  0.1333E-01
    -16.560  0.0000E+00  0.1333E-01
    -16.472  0.0000E+00  0.1333E-01
    -16.383  0.0000E+00  0.1333E-01
    -16.295  0.0000E+00  0.1333E-01
    -16.206  0.0000E+00  0.1333E-01
    -16.118  0.0000E+00  0.1333E-01
    -16.029  0.0000E+00  0.1333E-01
    -15.941  0.0000E+00  0.1333E-01
    -15.852  0.0000E+00  0.1333E-01
    -15.764  0.0000E+00  0.1333E-01
    -15.675  0.0000E+00  0.1333E-01
    -15.587  0.0000E+00  0.1333E-01
    -15.499  0.0000E+00  0.1333E-01
    -15.410  0.0000E+00  0.1333E-01
    -15.322  0.0000E+00  0.1333E-01
    -15.233  0.0000E+00  0.1333E-01
    -15.145  0.0000E+00  0.1333E-01
    -15.056  0.0000E+00  0.1333E-01
    -14.968  0.0000E+00  0.1333E-01
    -14.879  0.0000E+00  0.1333E-01
    -14.791  0.0000E+00  0.1333E-01
    -14.702  0.0000E+00  0.1333E-01
    -14.614  0.0000E+00  0.1333E-01
    -14.525  0.0000E+00  0.1333E-01
    -14.437  0.0000E+00  0.1333E-01
    -14.348  0.0000E+00  0.1333E-01
    -14.260  0.0000E+00  0.1333E-01
    -14.171  0.0000E+00  0.1333E-01
    -14.083  0.0000E+00  0.1333E-01
    -13.994  0.8365E-17  0.1333E-01
    -13.906  0.1129E-14  0.1333E-01
    -13.817  0.1168E-12  0.1333E-01
    -13.729  0.8199E-11  0.1333E-01
    -13.640  0.3918E-09  0.1333E-01
    -13.552  0.1275E-07  0.1333E-01
    -13.463  0.2826E-06  0.1333E-01
    -13.375  0.4272E-05  0.1333E-01
    -13.287  0.4408E-04  0.1334E-01
    -13.198  0.3105E-03  0.1337E-01
    -13.110  0.1495E-02  0.1350E-01
    -13.021  0.4924E-02  0.1393E-01
    -12.933  0.1109E-01  0.1491E-01
    -12.844  0.1711E-01  0.1643E-01
    -12.756  0.1806E-01  0.1803E-01
    -12.667  0.1306E-01  0.1918E-01
    -12.579  0.6461E-02  0.1975E-01
    -12.490  0.2188E-02  0.1995E-01
    -12.402  0.5067E-03  0.1999E-01
    -12.313  0.8022E-04  0.2000E-01
    -12.225  0.8682E-05  0.2000E-01
    -12.136  0.8157E-06  0.2000E-01
    -12.048  0.3113E-05  0.2000E-01
    -11.959  0.3692E-04  0.2000E-01
    -11.871  0.3021E-03  0.2003E-01
    -11.782  0.1689E-02  0.2018E-01
    -11.694  0.6455E-02  0.2075E-01
    -11.605  0.1688E-01  0.2224E-01
    -11.517  0.3020E-01  0.2492E-01
    -11.428  0.3700E-01  0.2819E-01
    -11.340  0.3103E-01  0.3094E-01
    -11.252  0.1782E-01  0.3251E-01
    -11.163  0.7002E-02  0.3313E-01
    -11.075  0.1883E-02  0.3330E-01
    -10.986  0.3461E-03  0.3333E-01
    -10.898  0.4347E-04  0.3333E-01
    -10.809  0.3728E-05  0.3333E-01
    -10.721  0.2181E-06  0.3333E-01
    -10.632  0.8699E-08  0.3333E-01
    -10.544  0.2364E-09  0.3333E-01
    -10.455  0.4372E-11  0.3333E-01
    -10.367  0.5502E-13  0.3333E-01
    -10.278  0.4768E-15  0.3333E-01
    -10.190  0.0000E+00  0.3333E-01
    -10.101  0.0000E+00  0.3333E-01
    -10.013  0.0000E+00  0.3333E-01
     -9.924  0.0000E+00  0.3333E-01
     -9.836  0.0000E+00  0.3333E-01
     -9.747  0.0000E+00  0.3333E-01
     -9.659  0.8365E-17  0.3333E-01
     -9.570  0.1025E-14  0.3333E-01
     -9.482  0.1068E-12  0.3333E-01
     -9.393  0.7559E-11  0.3333E-01
     -9.305  0.3640E-09  0.3333E-01
     -9.216  0.1194E-07  0.3333E-01
     -9.128  0.2666E-06  0.3333E-01
     -9.040  0.4062E-05  0.3333E-01
     -8.951  0.4222E-04  0.3334E-01
     -8.863  0.2998E-03  0.3336E-01
     -8.774  0.1454E-02  0.3349E-01
     -8.686  0.4827E-02  0.3392E-01
     -8.597  0.1097E-01  0.3489E-01
     -8.509  0.1714E-01  0.3641E-01
     -8.420  0.1887E-01  0.3808E-01
     -8.332  0.1668E-01  0.3955E-01
     -8.243  0.1758E-01  0.4111E-01
     -8.155  0.2599E-01  0.4341E-01
     -8.066  0.3561E-01  0.4656E-01
     -7.978  0.3558E-01  0.4971E-01
     -7.889  0.2459E-01  0.5188E-01
     -7.801  0.1165E-01  0.5291E-01
     -7.712  0.3780E-02  0.5325E-01
     -7.624  0.8385E-03  0.5332E-01
     -7.535  0.1272E-03  0.5333E-01
     -7.447  0.1317E-04  0.5333E-01
     -7.358  0.9310E-06  0.5333E-01
     -7.270  0.4488E-07  0.5333E-01
     -7.181  0.1475E-08  0.5333E-01
     -7.093  0.3299E-10  0.5333E-01
     -7.004  0.5022E-12  0.5333E-01
     -6.916  0.5205E-14  0.5333E-01
     -6.828  0.3346E-16  0.5333E-01
     -6.739  0.0000E+00  0.5333E-01
     -6.651  0.0000E+00  0.5333E-01
     -6.562  0.0000E+00  0.5333E-01
     -6.474  0.0000E+00  0.5333E-01
     -6.385  0.0000E+00  0.5333E-01
     -6.297  0.0000E+00  0.5333E-01
     -6.208  0.0000E+00  0.5333E-01
     -6.120  0.0000E+00  0.5333E-01
     -6.031  0.0000E+00  0.5333E-01
     -5.943  0.0000E+00  0.5333E-01
     -5.854  0.0000E+00  0.5333E-01
     -5.766  0.0000E+00  0.5333E-01
     -5.677  0.0000E+00  0.5333E-01
     -5.589  0.0000E+00  0.5333E-01
     -5.500  0.0000E+00  0.5333E-01
     -5.412  0.0000E+00  0.5333E-01
     -5.323  0.0000E+00  0.5333E-01
     -5.235  0.0000E+00  0.5333E-01
     -5.146  0.0000E+00  0.5333E-01
     -5.058  0.0000E+00  0.5333E-01
     -4.969  0.0000E+00  0.5333E-01
     -4.881  0.0000E+00  0.5333E-01
     -4.792  0.0000E+00  0.5333E-01
     -4.704  0.0000E+00  0.5333E-01
     -4.616  0.0000E+00  0.5333E-01
     -4.527  0.0000E+00  0.5333E-01
     -4.439  0.0000E+00  0.5333E-01
     -4.350  0.0000E+00  0.5333E-01
     -4.262  0.0000E+00  0.5333E-01
     -4.173  0.0000E+00  0.5333E-01
     -4.085  0.0000E+00  0.5333E-01
     -3.996  0.0000E+00  0.5333E-01
     -3.908  0.0000E+00  0.5333E-01
     -3.819  0.0000E+00  0.5333E-01
     -3.731  0.0000E+00  0.5333E-01
     -3.642  0.0000E+00  0.5333E-01
     -3.554  0.0000E+00  0.5333E-01
     -3.465  0.0000E+00  0.5333E-01
     -3.377  0.0000E+00  0.5333E-01
     -3.288  0.0000E+00  0.5333E-01
     -3.200  0.0000E+00  0.5333E-01
     -3.111  0.0000E+00  0.5333E-01
     -3.023  0.0000E+00  0.5333E-01
     -2.934  0.0000E+00  0.5333E-01
     -2.846  0.0000E+00  0.5333E-01
     -2.757  0.0000E+00  0.5333E-01
     -2.669  0.0000E+00  0.5333E-01
     -2.581  0.0000E+00  0.5333E-01
     -2.492  0.0000E+00  0.5333E-01
     -2.404  0.0000E+00  0.5333E-01
     -2.315  0.0000E+00  0.5333E-01
     -2.227  0.0000E+00  0.5333E-01
     -2.138  0.0000E+00  0.5333E-01
     -2.050  0.0000E+00  0.5333E-01
     -1.961  0.6692E-16  0.5333E-01
     -1.873  0.8583E-14  0.5333E-01
     -1.784  0.7518E-12  0.5333E-01
     -1.696  0.4479E-10  0.5333E-01
     -1.607  0.1816E-08  0.5333E-01
     -1.519  0.5016E-07  0.5333E-01
     -1.430  0.9443E-06  0.5333E-01
     -1.342  0.1212E-04  0.5333E-01
     -1.253  0.1063E-03  0.5334E-01
     -1.165  0.6365E-03  0.5340E-01
     -1.076  0.2607E-02  0.5363E-01
     -0.988  0.7314E-02  0.5428E-01
     -0.899  0.1415E-01  0.5553E-01
     -0.811  0.1937E-01  0.5724E-01
     -0.722  0.2091E-01  0.5909E-01
     -0.634  0.2318E-01  0.6114E-01
     -0.545  0.3053E-01  0.6385E-01
     -0.457  0.3743E-01  0.6716E-01
     -0.369  0.3456E-01  0.7022E-01
     -0.280  0.2311E-01  0.7226E-01
     -0.192  0.1352E-01  0.7346E-01
     -0.103  0.1231E-01  0.7455E-01
     -0.015  0.1651E-01  0.7601E-01
      0.074  0.1855E-01  0.7765E-01
      0.162  0.1469E-01  0.7895E-01
      0.251  0.7996E-02  0.7966E-01
      0.339  0.2979E-02  0.7992E-01
      0.428  0.7593E-03  0.7999E-01
      0.516  0.1323E-03  0.8000E-01
      0.605  0.1575E-04  0.8000E-01
      0.693  0.1280E-05  0.8000E-01
      0.782  0.7099E-07  0.8000E-01
      0.870  0.2683E-08  0.8000E-01
      0.959  0.6907E-10  0.8000E-01
      1.047  0.1210E-11  0.8000E-01
      1.136  0.1443E-13  0.8000E-01
      1.224  0.1171E-15  0.8000E-01
      1.313  0.0000E+00  0.8000E-01
      1.401  0.0000E+00  0.8000E-01
      1.490  0.0000E+00  0.8000E-01
      1.578  0.0000E+00  0.8000E-01
      1.667  0.0000E+00  0.8000E-01
      1.755  0.0000E+00  0.8000E-01
      1.843  0.0000E+00  0.8000E-01
      1.932  0.0000E+00  0.8000E-01
      2.020  0.0000E+00  0.8000E-01
