    6    6  300    1
  0.4500000E+04  0.3000000E-08  0.3000000E-08  0.3000000E-08  0.0000000E+00
  1.000000000000000E-004
  CAR 
 unknown system                          
     16      4     12
 
  0.2500000E+00  0.2500000E+00  0.2500000E+00  0.2500000E+00
    1      -22.523422   1.000000
    2      -19.377902   1.000000
    3      -12.831445   1.000000
    4      -11.469984   1.000000
    5      -11.469081   1.000000
    6       -8.494184   1.000000
    7       -8.063577   1.000000
    8       -8.063544   1.000000
    9       -0.836012   0.000000
   10       -0.470818   0.000000
   11       -0.470550   0.000000
   12        0.020422   0.000000
 
 -0.2500000E+00  0.2500000E+00  0.2500000E+00  0.2500000E+00
    1      -22.523421   1.000000
    2      -19.377902   1.000000
    3      -12.831444   1.000000
    4      -11.469988   1.000000
    5      -11.469079   1.000000
    6       -8.494178   1.000000
    7       -8.063580   1.000000
    8       -8.063548   1.000000
    9       -0.836011   0.000000
   10       -0.470806   0.000000
   11       -0.470553   0.000000
   12        0.020336   0.000000
 
  0.2500000E+00 -0.2500000E+00  0.2500000E+00  0.2500000E+00
    1      -22.523421   1.000000
    2      -19.377902   1.000000
    3      -12.831444   1.000000
    4      -11.469988   1.000000
    5      -11.469076   1.000000
    6       -8.494179   1.000000
    7       -8.063574   1.000000
    8       -8.063557   1.000000
    9       -0.836012   0.000000
   10       -0.470811   0.000000
   11       -0.470550   0.000000
   12        0.020356   0.000000
 
 -0.2500000E+00 -0.2500000E+00  0.2500000E+00  0.2500000E+00
    1      -22.523422   1.000000
    2      -19.377903   1.000000
    3      -12.831445   1.000000
    4      -11.469986   1.000000
    5      -11.469078   1.000000
    6       -8.494182   1.000000
    7       -8.063573   1.000000
    8       -8.063551   1.000000
    9       -0.836012   0.000000
   10       -0.470813   0.000000
   11       -0.470557   0.000000
   12        0.020401   0.000000
