       N       E                     dE             d eps       ncg     rms          rms(c)
DAV:   1     0.115825187302E+03    0.11583E+03   -0.21193E+03   160   0.366E+02
DAV:   2    -0.274378222247E+00   -0.11610E+03   -0.11344E+03   192   0.108E+02
DAV:   3    -0.373151526090E+02   -0.37041E+02   -0.36926E+02   128   0.940E+01
DAV:   4    -0.407514378551E+02   -0.34363E+01   -0.34198E+01   128   0.268E+01
DAV:   5    -0.408277157662E+02   -0.76278E-01   -0.73777E-01   128   0.440E+00    0.109E+01
DAV:   6    -0.375441707866E+02    0.32835E+01   -0.66162E+00   116   0.176E+01    0.594E+00
DAV:   7    -0.368838888425E+02    0.66028E+00   -0.14184E+00   112   0.842E+00    0.301E+00
DAV:   8    -0.367100662455E+02    0.17382E+00   -0.41704E-01   128   0.481E+00    0.109E+00
DAV:   9    -0.366845489760E+02    0.25517E-01   -0.34289E-02   128   0.153E+00    0.331E-01
DAV:  10    -0.366801028590E+02    0.44461E-02   -0.47883E-03   128   0.597E-01    0.146E-01
DAV:  11    -0.366812793691E+02   -0.11765E-02   -0.18410E-03   128   0.329E-01    0.954E-02
DAV:  12    -0.366880385637E+02   -0.67592E-02   -0.48931E-03   112   0.525E-01    0.493E-02
DAV:  13    -0.366923262311E+02   -0.42877E-02   -0.12035E-03   160   0.236E-01    0.356E-02
DAV:  14    -0.366966166614E+02   -0.42904E-02   -0.56745E-04   128   0.148E-01    0.243E-02
DAV:  15    -0.366996447785E+02   -0.30281E-02   -0.29128E-04   128   0.901E-02    0.150E-02
DAV:  16    -0.367018705646E+02   -0.22258E-02   -0.26132E-04   128   0.937E-02    0.107E-02
DAV:  17    -0.367028137663E+02   -0.94320E-03   -0.46710E-05    96   0.503E-02    0.397E-03
DAV:  18    -0.367032794690E+02   -0.46570E-03   -0.27658E-05    80   0.308E-02    0.294E-03
DAV:  19    -0.367035457094E+02   -0.26624E-03   -0.12901E-05    72   0.201E-02    0.161E-03
DAV:  20    -0.367036542561E+02   -0.10855E-03   -0.34076E-06    96   0.128E-02    0.153E-03
DAV:  21    -0.367037008551E+02   -0.46599E-04   -0.13269E-06    64   0.763E-03
   1 F= -.36703701E+02 E0= -.36703701E+02  d E =-.367037E+02
       N       E                     dE             d eps       ncg     rms          rms(c)
DAV:   1    -0.367037575901E+02   -0.10333E-03   -0.12823E-03   120   0.328E-01    0.962E-03
DAV:   2    -0.367037631696E+02   -0.55795E-05   -0.17520E-05    92   0.360E-02    0.600E-03
DAV:   3    -0.367037685986E+02   -0.54289E-05   -0.27091E-06    76   0.150E-02    0.294E-03
DAV:   4    -0.367037750889E+02   -0.64903E-05   -0.11987E-06    64   0.946E-03    0.944E-04
DAV:   5    -0.367037779493E+02   -0.28604E-05   -0.23057E-07    84   0.421E-03    0.434E-04
DAV:   6    -0.367037809904E+02   -0.30411E-05   -0.67863E-08    64   0.193E-03
   2 F= -.36703781E+02 E0= -.36703781E+02  d E =-.801353E-04
       N       E                     dE             d eps       ncg     rms          rms(c)
DAV:   1    -0.367038529433E+02   -0.74994E-04   -0.36954E-03    96   0.550E-01    0.125E-02
DAV:   2    -0.367038557366E+02   -0.27932E-05   -0.43129E-05    48   0.540E-02    0.845E-03
DAV:   3    -0.367038568496E+02   -0.11130E-05   -0.57719E-06    80   0.213E-02    0.342E-03
DAV:   4    -0.367038580891E+02   -0.12396E-05   -0.16834E-06    80   0.110E-02    0.117E-03
DAV:   5    -0.367038587295E+02   -0.64038E-06   -0.38307E-07    64   0.501E-03    0.418E-04
DAV:   6    -0.367038592607E+02   -0.53120E-06   -0.12628E-07    72   0.242E-03
   3 F= -.36703859E+02 E0= -.36703859E+02  d E =-.782703E-04
       N       E                     dE             d eps       ncg     rms          rms(c)
DAV:   1    -0.367039552038E+02   -0.96474E-04   -0.74384E-03    96   0.779E-01    0.166E-02
DAV:   2    -0.367039598184E+02   -0.46146E-05   -0.82843E-05    72   0.744E-02    0.114E-02
DAV:   3    -0.367039607461E+02   -0.92771E-06   -0.10382E-05    88   0.286E-02    0.364E-03
DAV:   4    -0.367039613641E+02   -0.61797E-06   -0.25575E-06    64   0.130E-02    0.117E-03
DAV:   5    -0.367039615623E+02   -0.19821E-06   -0.64614E-07    64   0.606E-03    0.413E-04
DAV:   6    -0.367039617238E+02   -0.16145E-06   -0.23394E-07    48   0.316E-03
   4 F= -.36703962E+02 E0= -.36703962E+02  d E =-.102463E-03
       N       E                     dE             d eps       ncg     rms          rms(c)
DAV:   1    -0.367040833182E+02   -0.12176E-03   -0.12447E-02    96   0.101E+00    0.224E-02
DAV:   2    -0.367040915192E+02   -0.82009E-05   -0.16059E-04   128   0.983E-02    0.161E-02
DAV:   3    -0.367040902688E+02    0.12504E-05   -0.57024E-06    96   0.239E-02    0.717E-03
DAV:   4    -0.367040913170E+02   -0.10482E-05   -0.32517E-06    64   0.166E-02    0.184E-03
DAV:   5    -0.367040915202E+02   -0.20315E-06   -0.68156E-07    96   0.762E-03    0.758E-04
DAV:   6    -0.367040917232E+02   -0.20301E-06   -0.12492E-07    56   0.285E-03
   5 F= -.36704092E+02 E0= -.36704092E+02  d E =-.129999E-03
       N       E                     dE             d eps       ncg     rms          rms(c)
DAV:   1    -0.367042358146E+02   -0.14429E-03   -0.17119E-02    96   0.120E+00    0.263E-02
DAV:   2    -0.367042471717E+02   -0.11357E-04   -0.21704E-04   128   0.115E-01    0.189E-02
DAV:   3    -0.367042457549E+02    0.14168E-05   -0.76289E-06    64   0.278E-02    0.819E-03
DAV:   4    -0.367042471936E+02   -0.14387E-05   -0.41885E-06    64   0.186E-02    0.210E-03
DAV:   5    -0.367042474570E+02   -0.26341E-06   -0.90172E-07    48   0.878E-03    0.621E-04
DAV:   6    -0.367042476862E+02   -0.22922E-06   -0.14646E-07    48   0.306E-03
   6 F= -.36704248E+02 E0= -.36704248E+02  d E =-.155963E-03
       N       E                     dE             d eps       ncg     rms          rms(c)
DAV:   1    -0.367044015674E+02   -0.15411E-03   -0.20791E-02    96   0.132E+00    0.289E-02
DAV:   2    -0.367044148468E+02   -0.13279E-04   -0.25490E-04   128   0.125E-01    0.207E-02
DAV:   3    -0.367044136943E+02    0.11525E-05   -0.87251E-06    64   0.301E-02    0.850E-03
DAV:   4    -0.367044154772E+02   -0.17829E-05   -0.43075E-06    64   0.190E-02    0.217E-03
DAV:   5    -0.367044158962E+02   -0.41901E-06   -0.88884E-07    48   0.867E-03    0.819E-04
DAV:   6    -0.367044162988E+02   -0.40256E-06   -0.17274E-07    48   0.327E-03
   7 F= -.36704416E+02 E0= -.36704416E+02  d E =-.168613E-03
       N       E                     dE             d eps       ncg     rms          rms(c)
DAV:   1    -0.367045780401E+02   -0.16214E-03   -0.29642E-02    96   0.158E+00    0.347E-02
DAV:   2    -0.367045962517E+02   -0.18212E-04   -0.35001E-04   128   0.148E-01    0.248E-02
DAV:   3    -0.367045956894E+02    0.56232E-06   -0.12324E-05    64   0.358E-02    0.934E-03
DAV:   4    -0.367045981620E+02   -0.24726E-05   -0.54400E-06    64   0.210E-02    0.252E-03
DAV:   5    -0.367045986438E+02   -0.48177E-06   -0.10952E-06    48   0.970E-03    0.666E-04
DAV:   6    -0.367045990483E+02   -0.40452E-06   -0.20137E-07    48   0.351E-03
   8 F= -.36704599E+02 E0= -.36704599E+02  d E =-.182750E-03
       N       E                     dE             d eps       ncg     rms          rms(c)
DAV:   1    -0.367047219218E+02   -0.12328E-03   -0.41236E-02    96   0.188E+00    0.435E-02
DAV:   2    -0.367047413641E+02   -0.19442E-04   -0.50111E-04   128   0.179E-01    0.311E-02
DAV:   3    -0.367047377454E+02    0.36187E-05   -0.20879E-05    88   0.452E-02    0.142E-02
DAV:   4    -0.367047423082E+02   -0.45628E-05   -0.11507E-05    72   0.310E-02    0.359E-03
DAV:   5    -0.367047429948E+02   -0.68662E-06   -0.22726E-06    56   0.142E-02    0.146E-03
DAV:   6    -0.367047436848E+02   -0.68995E-06   -0.46796E-07    52   0.566E-03
   9 F= -.36704744E+02 E0= -.36704744E+02  d E =-.144636E-03
       N       E                     dE             d eps       ncg     rms          rms(c)
DAV:   1    -0.367045843101E+02    0.15868E-03   -0.69675E-02    96   0.247E+00    0.750E-02
DAV:   2    -0.367045731056E+02    0.11205E-04   -0.10480E-03   128   0.270E-01    0.487E-02
DAV:   3    -0.367045493604E+02    0.23745E-04   -0.79233E-05    64   0.830E-02    0.252E-02
DAV:   4    -0.367045565596E+02   -0.71992E-05   -0.60006E-05    96   0.678E-02    0.782E-03
DAV:   5    -0.367045563552E+02    0.20441E-06   -0.11535E-05    88   0.326E-02    0.317E-03
DAV:   6    -0.367045573529E+02   -0.99777E-06   -0.22103E-06    64   0.122E-02
  10 F= -.36704557E+02 E0= -.36704557E+02  d E =0.186332E-03
       N       E                     dE             d eps       ncg     rms          rms(c)
DAV:   1    -0.367049815812E+02   -0.42523E-03   -0.15813E-02    96   0.111E+00    0.614E-02
DAV:   2    -0.367049314032E+02    0.50178E-04   -0.28955E-04   128   0.156E-01    0.289E-02
DAV:   3    -0.367049184789E+02    0.12924E-04   -0.49373E-05    64   0.627E-02    0.138E-02
DAV:   4    -0.367049190308E+02   -0.55196E-06   -0.20724E-05    96   0.416E-02    0.465E-03
DAV:   5    -0.367049197011E+02   -0.67027E-06   -0.27265E-06    64   0.162E-02    0.187E-03
DAV:   6    -0.367049203692E+02   -0.66812E-06   -0.85217E-07    96   0.842E-03
  11 F= -.36704920E+02 E0= -.36704920E+02  d E =-.363016E-03
       N       E                     dE             d eps       ncg     rms          rms(c)
DAV:   1    -0.367049232376E+02   -0.35365E-05   -0.12046E-05    64   0.321E-02    0.149E-03
DAV:   2    -0.367049235698E+02   -0.33222E-06   -0.63555E-07    48   0.798E-03    0.880E-04
DAV:   3    -0.367049238784E+02   -0.30858E-06   -0.79010E-08    48   0.255E-03    0.481E-04
DAV:   4    -0.367049242957E+02   -0.41729E-06   -0.49367E-08    72   0.176E-03    0.137E-04
DAV:   5    -0.367049244076E+02   -0.11193E-06   -0.18346E-08    48   0.831E-04    0.977E-05
DAV:   6    -0.367049245917E+02   -0.18411E-06   -0.12904E-08    48   0.445E-04
  12 F= -.36704925E+02 E0= -.36704925E+02  d E =-.422250E-05
       N       E                     dE             d eps       ncg     rms          rms(c)
DAV:   1    -0.367049277137E+02   -0.33061E-05   -0.36667E-05    52   0.559E-02    0.238E-03
DAV:   2    -0.367049278786E+02   -0.16494E-06   -0.17809E-06    48   0.134E-02    0.134E-03
DAV:   3    -0.367049279610E+02   -0.82337E-07   -0.18857E-07    48   0.401E-03    0.772E-04
DAV:   4    -0.367049281027E+02   -0.14173E-06   -0.11255E-07    68   0.292E-03    0.250E-04
DAV:   5    -0.367049281355E+02   -0.32800E-07   -0.29414E-08    48   0.129E-03    0.174E-04
DAV:   6    -0.367049281933E+02   -0.57841E-07   -0.15058E-08    48   0.637E-04
  13 F= -.36704928E+02 E0= -.36704928E+02  d E =-.360159E-05
       N       E                     dE             d eps       ncg     rms          rms(c)
DAV:   1    -0.367049298343E+02   -0.16988E-05   -0.50226E-05    48   0.661E-02    0.258E-03
DAV:   2    -0.367049299952E+02   -0.16090E-06   -0.24344E-06    48   0.157E-02    0.150E-03
DAV:   3    -0.367049300218E+02   -0.26602E-07   -0.26089E-07    72   0.473E-03    0.883E-04
DAV:   4    -0.367049300727E+02   -0.50866E-07   -0.14190E-07    76   0.332E-03    0.281E-04
DAV:   5    -0.367049300829E+02   -0.10256E-07   -0.36617E-08    48   0.147E-03    0.199E-04
DAV:   6    -0.367049301013E+02   -0.18381E-07   -0.17794E-08    48   0.737E-04
  14 F= -.36704930E+02 E0= -.36704930E+02  d E =-.190800E-05
       N       E                     dE             d eps       ncg     rms          rms(c)
DAV:   1    -0.367049309275E+02   -0.84457E-06   -0.41820E-05    48   0.611E-02    0.186E-03
DAV:   2    -0.367049310741E+02   -0.14663E-06   -0.19802E-06    48   0.143E-02    0.118E-03
DAV:   3    -0.367049310897E+02   -0.15546E-07   -0.22502E-07    48   0.429E-03    0.736E-04
DAV:   4    -0.367049311052E+02   -0.15489E-07   -0.98264E-08    48   0.271E-03    0.220E-04
DAV:   5    -0.367049311075E+02   -0.23422E-08   -0.31083E-08    48   0.122E-03    0.167E-04
DAV:   6    -0.367049311118E+02   -0.42960E-08   -0.17049E-08    48   0.620E-04
  15 F= -.36704931E+02 E0= -.36704931E+02  d E =-.101049E-05
       N       E                     dE             d eps       ncg     rms          rms(c)
DAV:   1    -0.367049331229E+02   -0.20154E-05   -0.35600E-05    48   0.559E-02    0.122E-03
DAV:   2    -0.367049332604E+02   -0.13751E-06   -0.15708E-06    48   0.129E-02    0.803E-04
DAV:   3    -0.367049332873E+02   -0.26877E-07   -0.19110E-07    48   0.381E-03    0.432E-04
DAV:   4    -0.367049332976E+02   -0.10306E-07   -0.58402E-08    48   0.183E-03    0.104E-04
DAV:   5    -0.367049332997E+02   -0.20989E-08   -0.26441E-08    48   0.878E-04    0.875E-05
DAV:   6    -0.367049333017E+02   -0.19938E-08   -0.16949E-08    48   0.490E-04
  16 F= -.36704933E+02 E0= -.36704933E+02  d E =-.218985E-05
       N       E                     dE             d eps       ncg     rms          rms(c)
DAV:   1    -0.367049370633E+02   -0.37637E-05   -0.49550E-05    48   0.662E-02    0.149E-03
DAV:   2    -0.367049372363E+02   -0.17297E-06   -0.22222E-06    48   0.152E-02    0.100E-03
DAV:   3    -0.367049372594E+02   -0.23093E-07   -0.26647E-07    48   0.454E-03    0.595E-04
DAV:   4    -0.367049372663E+02   -0.68960E-08   -0.81778E-08    48   0.229E-03    0.156E-04
DAV:   5    -0.367049372701E+02   -0.38658E-08   -0.33329E-08    48   0.109E-03    0.131E-04
DAV:   6    -0.367049372718E+02   -0.16062E-08   -0.18954E-08    48   0.592E-04
  17 F= -.36704937E+02 E0= -.36704937E+02  d E =-.397009E-05
       N       E                     dE             d eps       ncg     rms          rms(c)
DAV:   1    -0.367049418132E+02   -0.45431E-05   -0.97052E-05    48   0.932E-02    0.244E-03
DAV:   2    -0.367049421157E+02   -0.30245E-06   -0.44869E-06    48   0.215E-02    0.162E-03
DAV:   3    -0.367049421305E+02   -0.14831E-07   -0.51332E-07    48   0.647E-03    0.103E-03
DAV:   4    -0.367049421272E+02    0.33168E-08   -0.18072E-07    48   0.372E-03    0.298E-04
DAV:   5    -0.367049421344E+02   -0.72150E-08   -0.56618E-08    48   0.171E-03    0.241E-04
DAV:   6    -0.367049421367E+02   -0.22749E-08   -0.24659E-08    48   0.876E-04
  18 F= -.36704942E+02 E0= -.36704942E+02  d E =-.486492E-05
       N       E                     dE             d eps       ncg     rms          rms(c)
DAV:   1    -0.367049462096E+02   -0.40752E-05   -0.15463E-04    80   0.116E-01    0.325E-03
DAV:   2    -0.367049461473E+02    0.62323E-07   -0.20246E-06    48   0.123E-02    0.206E-03
DAV:   3    -0.367049461095E+02    0.37768E-07   -0.34396E-07    48   0.521E-03    0.991E-04
DAV:   4    -0.367049461161E+02   -0.65504E-08   -0.14619E-07    48   0.315E-03    0.336E-04
DAV:   5    -0.367049461252E+02   -0.91356E-08   -0.38578E-08    48   0.143E-03    0.143E-04
DAV:   6    -0.367049461308E+02   -0.55677E-08   -0.19904E-08    48   0.645E-04
  19 F= -.36704946E+02 E0= -.36704946E+02  d E =-.399412E-05
       N       E                     dE             d eps       ncg     rms          rms(c)
DAV:   1    -0.367049507785E+02   -0.46532E-05   -0.18166E-04    96   0.124E-01    0.275E-03
DAV:   2    -0.367049508304E+02   -0.51978E-07   -0.19849E-06    48   0.119E-02    0.187E-03
DAV:   3    -0.367049508456E+02   -0.15140E-07   -0.28046E-07    48   0.463E-03    0.671E-04
DAV:   4    -0.367049508620E+02   -0.16406E-07   -0.82954E-08    48   0.221E-03    0.226E-04
DAV:   5    -0.367049508701E+02   -0.80856E-08   -0.30755E-08    48   0.103E-03    0.952E-05
DAV:   6    -0.367049508792E+02   -0.90837E-08   -0.19271E-08    48   0.539E-04
  20 F= -.36704951E+02 E0= -.36704951E+02  d E =-.474836E-05
       N       E                     dE             d eps       ncg     rms          rms(c)
DAV:   1    -0.367049581905E+02   -0.73205E-05   -0.26316E-04    96   0.150E-01    0.342E-03
DAV:   2    -0.367049582810E+02   -0.90453E-07   -0.29218E-06    48   0.146E-02    0.231E-03
DAV:   3    -0.367049583179E+02   -0.36868E-07   -0.43580E-07    48   0.581E-03    0.901E-04
DAV:   4    -0.367049583484E+02   -0.30501E-07   -0.13275E-07    48   0.292E-03    0.313E-04
DAV:   5    -0.367049583520E+02   -0.35843E-08   -0.41641E-08    48   0.136E-03    0.109E-04
DAV:   6    -0.367049583595E+02   -0.75518E-08   -0.22976E-08    48   0.680E-04
  21 F= -.36704958E+02 E0= -.36704958E+02  d E =-.748035E-05
       N       E                     dE             d eps       ncg     rms          rms(c)
DAV:   1    -0.367049651291E+02   -0.67771E-05   -0.41468E-04    96   0.190E-01    0.477E-03
DAV:   2    -0.367049651835E+02   -0.54469E-07   -0.49484E-06    48   0.193E-02    0.315E-03
DAV:   3    -0.367049651899E+02   -0.63679E-08   -0.80025E-07    48   0.794E-03    0.144E-03
DAV:   4    -0.367049652426E+02   -0.52704E-07   -0.28452E-07    48   0.448E-03    0.488E-04
DAV:   5    -0.367049652437E+02   -0.10527E-08   -0.70428E-08    48   0.206E-03    0.169E-04
DAV:   6    -0.367049652543E+02   -0.10617E-07   -0.30902E-08    48   0.939E-04
  22 F= -.36704965E+02 E0= -.36704965E+02  d E =-.689477E-05
       N       E                     dE             d eps       ncg     rms          rms(c)
DAV:   1    -0.367049723956E+02   -0.71519E-05   -0.47664E-04    96   0.202E-01    0.435E-03
DAV:   2    -0.367049725892E+02   -0.19363E-06   -0.49205E-06    48   0.189E-02    0.296E-03
DAV:   3    -0.367049726826E+02   -0.93449E-07   -0.68997E-07    48   0.738E-03    0.802E-04
DAV:   4    -0.367049727154E+02   -0.32742E-07   -0.17532E-07    48   0.324E-03    0.274E-04
DAV:   5    -0.367049727266E+02   -0.11230E-07   -0.58847E-08    48   0.156E-03    0.983E-05
DAV:   6    -0.367049727410E+02   -0.14355E-07   -0.31470E-08    48   0.855E-04
  23 F= -.36704973E+02 E0= -.36704973E+02  d E =-.748669E-05
       N       E                     dE             d eps       ncg     rms          rms(c)
DAV:   1    -0.367049812426E+02   -0.85160E-05   -0.66495E-04    96   0.240E-01    0.581E-03
DAV:   2    -0.367049813210E+02   -0.78397E-07   -0.75879E-06    48   0.237E-02    0.388E-03
DAV:   3    -0.367049813172E+02    0.37795E-08   -0.11443E-06    48   0.954E-03    0.170E-03
DAV:   4    -0.367049813859E+02   -0.68661E-07   -0.37736E-07    48   0.517E-03    0.573E-04
DAV:   5    -0.367049814067E+02   -0.20797E-07   -0.95881E-08    48   0.237E-03    0.235E-04
DAV:   6    -0.367049814250E+02   -0.18332E-07   -0.39012E-08    48   0.114E-03
  24 F= -.36704981E+02 E0= -.36704981E+02  d E =-.868404E-05
       N       E                     dE             d eps       ncg     rms          rms(c)
DAV:   1    -0.367049886179E+02   -0.72112E-05   -0.72069E-04    96   0.250E-01    0.545E-03
DAV:   2    -0.367049888625E+02   -0.24456E-06   -0.70885E-06    48   0.230E-02    0.369E-03
DAV:   3    -0.367049890126E+02   -0.15015E-06   -0.10245E-06    48   0.902E-03    0.945E-04
DAV:   4    -0.367049890608E+02   -0.48174E-07   -0.25182E-07    48   0.393E-03    0.336E-04
DAV:   5    -0.367049890806E+02   -0.19832E-07   -0.81300E-08    48   0.191E-03    0.139E-04
DAV:   6    -0.367049891051E+02   -0.24429E-07   -0.40220E-08    48   0.106E-03
  25 F= -.36704989E+02 E0= -.36704989E+02  d E =-.768005E-05
       N       E                     dE             d eps       ncg     rms          rms(c)
DAV:   1    -0.367049958946E+02   -0.68139E-05   -0.86615E-04    96   0.277E-01    0.675E-03
DAV:   2    -0.367049960232E+02   -0.12860E-06   -0.92563E-06    48   0.268E-02    0.448E-03
DAV:   3    -0.367049961203E+02   -0.97108E-07   -0.15317E-06    48   0.110E-02    0.185E-03
DAV:   4    -0.367049962363E+02   -0.11600E-06   -0.47809E-07    48   0.581E-03    0.624E-04
DAV:   5    -0.367049962493E+02   -0.12996E-07   -0.12095E-07    48   0.273E-03    0.214E-04
DAV:   6    -0.367049962733E+02   -0.23994E-07   -0.48783E-08    48   0.133E-03
  26 F= -.36704996E+02 E0= -.36704996E+02  d E =-.716822E-05
       N       E                     dE             d eps       ncg     rms          rms(c)
DAV:   1    -0.367049967873E+02   -0.53807E-06   -0.40247E-06    48   0.182E-02    0.838E-04
DAV:   2    -0.367049968021E+02   -0.14788E-07   -0.20942E-07    48   0.437E-03    0.458E-04
DAV:   3    -0.367049968171E+02   -0.14963E-07   -0.34106E-08    48   0.132E-03    0.256E-04
DAV:   4    -0.367049968506E+02   -0.33491E-07   -0.26503E-08    48   0.974E-04    0.857E-05
DAV:   5    -0.367049968649E+02   -0.14322E-07   -0.16726E-08    48   0.438E-04    0.575E-05
DAV:   6    -0.367049968874E+02   -0.22534E-07   -0.14858E-08    48   0.220E-04
  27 F= -.36704997E+02 E0= -.36704997E+02  d E =-.614175E-06
       N       E                     dE             d eps       ncg     rms          rms(c)
DAV:   1    -0.367049972433E+02   -0.37838E-06   -0.10492E-05    48   0.295E-02    0.136E-03
DAV:   2    -0.367049972546E+02   -0.11280E-07   -0.51368E-07    48   0.704E-03    0.740E-04
DAV:   3    -0.367049972524E+02    0.21726E-08   -0.63261E-08    48   0.212E-03    0.415E-04
DAV:   4    -0.367049972642E+02   -0.11848E-07   -0.44876E-08    48   0.160E-03    0.145E-04
DAV:   5    -0.367049972708E+02   -0.65249E-08   -0.18531E-08    48   0.706E-04    0.987E-05
DAV:   6    -0.367049972787E+02   -0.79626E-08   -0.14332E-08    48   0.348E-04
  28 F= -.36704997E+02 E0= -.36704997E+02  d E =-.391289E-06
       N       E                     dE             d eps       ncg     rms          rms(c)
DAV:   1    -0.367049971238E+02    0.14694E-06   -0.92951E-06    48   0.281E-02    0.121E-03
DAV:   2    -0.367049971303E+02   -0.64715E-08   -0.46278E-07    48   0.673E-03    0.679E-04
DAV:   3    -0.367049971210E+02    0.93207E-08   -0.58548E-08    48   0.204E-03    0.386E-04
DAV:   4    -0.367049971188E+02    0.21810E-08   -0.39429E-08    48   0.150E-03    0.134E-04
DAV:   5    -0.367049971219E+02   -0.30643E-08   -0.17273E-08    48   0.660E-04    0.945E-05
DAV:   6    -0.367049971246E+02   -0.27233E-08   -0.13703E-08    48   0.339E-04
  29 F= -.36704997E+02 E0= -.36704997E+02  d E =0.154142E-06
       N       E                     dE             d eps       ncg     rms          rms(c)
DAV:   1    -0.367049971767E+02   -0.54843E-07   -0.90598E-08    48   0.258E-03    0.113E-04
DAV:   2    -0.367049971788E+02   -0.20750E-08   -0.15773E-08    48   0.626E-04    0.618E-05
DAV:   3    -0.367049971803E+02   -0.15045E-08   -0.12323E-08    48   0.183E-04    0.360E-05
DAV:   4    -0.367049971823E+02   -0.20443E-08   -0.12191E-08    48   0.125E-04    0.966E-06
DAV:   5    -0.367049971825E+02   -0.12142E-09   -0.12026E-08    48   0.543E-05    0.709E-06
DAV:   6    -0.367049971829E+02   -0.39768E-09   -0.12016E-08    48   0.246E-05
  30 F= -.36704997E+02 E0= -.36704997E+02  d E =-.582631E-07
       N       E                     dE             d eps       ncg     rms          rms(c)
DAV:   1    -0.367049972698E+02   -0.87312E-07   -0.29539E-07    48   0.489E-03    0.224E-04
DAV:   2    -0.367049972728E+02   -0.29866E-08   -0.25751E-08    48   0.118E-03    0.122E-04
DAV:   3    -0.367049972739E+02   -0.11055E-08   -0.13400E-08    48   0.354E-04    0.688E-05
DAV:   4    -0.367049972747E+02   -0.82582E-09   -0.12933E-08    48   0.263E-04    0.226E-05
DAV:   5    -0.367049972744E+02    0.26853E-09   -0.12259E-08    48   0.115E-04    0.156E-05
DAV:   6    -0.367049972742E+02    0.18599E-09   -0.12116E-08    48   0.548E-05
  31 F= -.36704997E+02 E0= -.36704997E+02  d E =-.913776E-07
       N       E                     dE             d eps       ncg     rms          rms(c)
DAV:   1    -0.367049973715E+02   -0.97064E-07   -0.55047E-07    48   0.676E-03    0.306E-04
DAV:   2    -0.367049973755E+02   -0.39826E-08   -0.38307E-08    48   0.163E-03    0.168E-04
DAV:   3    -0.367049973765E+02   -0.10530E-08   -0.14764E-08    48   0.490E-04    0.945E-05
DAV:   4    -0.367049973771E+02   -0.58549E-09   -0.13798E-08    48   0.362E-04    0.309E-05
DAV:   5    -0.367049973768E+02    0.32719E-09   -0.12467E-08    48   0.158E-04    0.213E-05
DAV:   6    -0.367049973767E+02    0.11073E-09   -0.12315E-08    48   0.757E-05
  32 F= -.36704997E+02 E0= -.36704997E+02  d E =-.102433E-06
       N       E                     dE             d eps       ncg     rms          rms(c)
DAV:   1    -0.367049974604E+02   -0.83627E-07   -0.75456E-07    48   0.798E-03    0.355E-04
DAV:   2    -0.367049974651E+02   -0.47398E-08   -0.48424E-08    48   0.192E-03    0.196E-04
DAV:   3    -0.367049974663E+02   -0.11491E-08   -0.15915E-08    48   0.581E-04    0.111E-04
DAV:   4    -0.367049974670E+02   -0.67939E-09   -0.14497E-08    48   0.424E-04    0.360E-05
DAV:   5    -0.367049974665E+02    0.43224E-09   -0.12711E-08    48   0.185E-04    0.249E-05
DAV:   6    -0.367049974664E+02    0.98908E-10   -0.12410E-08    48   0.892E-05
  33 F= -.36704997E+02 E0= -.36704997E+02  d E =-.897746E-07
       N       E                     dE             d eps       ncg     rms          rms(c)
DAV:   1    -0.367049975252E+02   -0.58691E-07   -0.80172E-07    48   0.830E-03    0.356E-04
DAV:   2    -0.367049975301E+02   -0.48697E-08   -0.50885E-08    48   0.200E-03    0.199E-04
DAV:   3    -0.367049975315E+02   -0.13524E-08   -0.16329E-08    48   0.606E-04    0.113E-04
DAV:   4    -0.367049975325E+02   -0.10616E-08   -0.14601E-08    48   0.434E-04    0.364E-05
DAV:   5    -0.367049975318E+02    0.74601E-09   -0.12787E-08    48   0.190E-04    0.253E-05
DAV:   6    -0.367049975316E+02    0.12915E-09   -0.12497E-08    48   0.924E-05
  34 F= -.36704998E+02 E0= -.36704998E+02  d E =-.651985E-07
       N       E                     dE             d eps       ncg     rms          rms(c)
DAV:   1    -0.367049975752E+02   -0.43462E-07   -0.65374E-07    48   0.760E-03    0.300E-04
DAV:   2    -0.367049975795E+02   -0.42533E-08   -0.43622E-08    48   0.181E-03    0.173E-04
DAV:   3    -0.367049975806E+02   -0.11416E-08   -0.15647E-08    48   0.555E-04    0.995E-05
DAV:   4    -0.367049975815E+02   -0.86038E-09   -0.14125E-08    48   0.381E-04    0.314E-05
DAV:   5    -0.367049975810E+02    0.44270E-09   -0.12746E-08    48   0.168E-04    0.219E-05
DAV:   6    -0.367049975809E+02    0.14552E-09   -0.12490E-08    48   0.831E-05
  35 F= -.36704998E+02 E0= -.36704998E+02  d E =-.492585E-07
       N       E                     dE             d eps       ncg     rms          rms(c)
DAV:   1    -0.367049976390E+02   -0.57968E-07   -0.52530E-07    48   0.694E-03    0.226E-04
DAV:   2    -0.367049976430E+02   -0.39468E-08   -0.36845E-08    48   0.162E-03    0.138E-04
DAV:   3    -0.367049976442E+02   -0.12687E-08   -0.15099E-08    48   0.501E-04    0.819E-05
DAV:   4    -0.367049976451E+02   -0.86084E-09   -0.13502E-08    48   0.311E-04    0.240E-05
DAV:   5    -0.367049976446E+02    0.52796E-09   -0.12638E-08    48   0.139E-04    0.172E-05
DAV:   6    -0.367049976443E+02    0.22078E-09   -0.12438E-08    48   0.697E-05
  36 F= -.36704998E+02 E0= -.36704998E+02  d E =-.634411E-07
       N       E                     dE             d eps       ncg     rms          rms(c)
DAV:   1    -0.367049977378E+02   -0.93255E-07   -0.47584E-07    48   0.655E-03    0.157E-04
DAV:   2    -0.367049977407E+02   -0.29045E-08   -0.33477E-08    48   0.151E-03    0.102E-04
DAV:   3    -0.367049977418E+02   -0.10709E-08   -0.14904E-08    48   0.467E-04    0.538E-05
DAV:   4    -0.367049977422E+02   -0.39813E-09   -0.13019E-08    48   0.226E-04    0.126E-05
DAV:   5    -0.367049977420E+02    0.19008E-09   -0.12581E-08    48   0.109E-04    0.101E-05
DAV:   6    -0.367049977419E+02    0.13551E-09   -0.12406E-08    48   0.605E-05
  37 F= -.36704998E+02 E0= -.36704998E+02  d E =-.975236E-07
       N       E                     dE             d eps       ncg     rms          rms(c)
DAV:   1    -0.367049978760E+02   -0.13399E-06   -0.79035E-07    48   0.845E-03    0.193E-04
DAV:   2    -0.367049978784E+02   -0.24136E-08   -0.48308E-08    48   0.197E-03    0.127E-04
DAV:   3    -0.367049978785E+02   -0.75488E-10   -0.16602E-08    48   0.602E-04    0.680E-05
DAV:   4    -0.367049978785E+02   -0.44793E-10   -0.13446E-08    48   0.293E-04    0.175E-05
DAV:   5    -0.367049978787E+02   -0.17485E-09   -0.12658E-08    48   0.141E-04    0.151E-05
DAV:   6    -0.367049978789E+02   -0.18554E-09   -0.12417E-08    48   0.793E-05
  38 F= -.36704998E+02 E0= -.36704998E+02  d E =-.137022E-06
       N       E                     dE             d eps       ncg     rms          rms(c)
DAV:   1    -0.367049980184E+02   -0.13971E-06   -0.18060E-06    48   0.128E-02    0.322E-04
DAV:   2    -0.367049980226E+02   -0.41691E-08   -0.97826E-08    48   0.299E-03    0.213E-04
DAV:   3    -0.367049980220E+02    0.61164E-09   -0.22047E-08    48   0.909E-04    0.132E-04
DAV:   4    -0.367049980213E+02    0.67689E-09   -0.15296E-08    48   0.505E-04    0.381E-05
DAV:   5    -0.367049980218E+02   -0.56298E-09   -0.13067E-08    48   0.233E-04    0.314E-05
DAV:   6    -0.367049980220E+02   -0.12642E-09   -0.12489E-08    48   0.123E-04
  39 F= -.36704998E+02 E0= -.36704998E+02  d E =-.143093E-06
       N       E                     dE             d eps       ncg     rms          rms(c)
DAV:   1    -0.367049980917E+02   -0.69812E-07   -0.38622E-06    48   0.184E-02    0.461E-04
DAV:   2    -0.367049981026E+02   -0.10900E-07   -0.19655E-07    48   0.433E-03    0.306E-04
DAV:   3    -0.367049981017E+02    0.84037E-09   -0.32968E-08    48   0.130E-03    0.190E-04
DAV:   4    -0.367049981004E+02    0.13517E-08   -0.18611E-08    48   0.729E-04    0.556E-05
DAV:   5    -0.367049981014E+02   -0.10280E-08   -0.13889E-08    48   0.337E-04    0.455E-05
DAV:   6    -0.367049981015E+02   -0.13210E-09   -0.12660E-08    48   0.176E-04
  40 F= -.36704998E+02 E0= -.36704998E+02  d E =-.795537E-07
       N       E                     dE             d eps       ncg     rms          rms(c)
DAV:   1    -0.367049980305E+02    0.70873E-07   -0.76457E-06    48   0.254E-02    0.578E-04
DAV:   2    -0.367049980572E+02   -0.26722E-07   -0.37398E-07    48   0.600E-03    0.385E-04
DAV:   3    -0.367049980585E+02   -0.12446E-08   -0.52878E-08    48   0.178E-03    0.230E-04
DAV:   4    -0.367049980574E+02    0.10448E-08   -0.23196E-08    48   0.930E-04    0.620E-05
DAV:   5    -0.367049980584E+02   -0.98885E-09   -0.15310E-08    48   0.435E-04    0.533E-05
DAV:   6    -0.367049980586E+02   -0.12437E-09   -0.13017E-08    48   0.232E-04
  41 F= -.36704998E+02 E0= -.36704998E+02  d E =0.429698E-07
       N       E                     dE             d eps       ncg     rms          rms(c)
DAV:   1    -0.367049978647E+02    0.19370E-06   -0.13950E-05    48   0.338E-02    0.705E-04
DAV:   2    -0.367049979207E+02   -0.55979E-07   -0.66483E-07    48   0.800E-03    0.468E-04
DAV:   3    -0.367049979277E+02   -0.69813E-08   -0.85250E-08    48   0.234E-03    0.251E-04
DAV:   4    -0.367049979280E+02   -0.25409E-09   -0.29780E-08    48   0.113E-03    0.591E-05
DAV:   5    -0.367049979289E+02   -0.98430E-09   -0.17628E-08    48   0.537E-04    0.547E-05
DAV:   6    -0.367049979285E+02    0.38835E-09   -0.13714E-08    48   0.299E-04
  42 F= -.36704998E+02 E0= -.36704998E+02  d E =0.130013E-06
       N       E                     dE             d eps       ncg     rms          rms(c)
DAV:   1    -0.367049976359E+02    0.29299E-06   -0.25331E-05    48   0.453E-02    0.940E-04
DAV:   2    -0.367049977419E+02   -0.10599E-06   -0.11971E-06    48   0.107E-02    0.623E-04
DAV:   3    -0.367049977584E+02   -0.16500E-07   -0.14522E-07    48   0.313E-03    0.333E-04
DAV:   4    -0.367049977609E+02   -0.25116E-08   -0.43835E-08    48   0.150E-03    0.732E-05
DAV:   5    -0.367049977613E+02   -0.39745E-09   -0.22120E-08    48   0.712E-04    0.684E-05
DAV:   6    -0.367049977608E+02    0.49477E-09   -0.15135E-08    48   0.398E-04
  43 F= -.36704998E+02 E0= -.36704998E+02  d E =0.167698E-06
       N       E                     dE             d eps       ncg     rms          rms(c)
DAV:   1    -0.367049972753E+02    0.48608E-06   -0.44602E-05    48   0.602E-02    0.128E-03
DAV:   2    -0.367049974628E+02   -0.18750E-06   -0.21072E-06    48   0.143E-02    0.849E-04
DAV:   3    -0.367049974910E+02   -0.28275E-07   -0.24832E-07    48   0.417E-03    0.473E-04
DAV:   4    -0.367049974964E+02   -0.53890E-08   -0.70129E-08    48   0.205E-03    0.106E-04
DAV:   5    -0.367049974968E+02   -0.33583E-09   -0.30072E-08    48   0.964E-04    0.973E-05
DAV:   6    -0.367049974959E+02    0.86106E-09   -0.17590E-08    48   0.533E-04
  44 F= -.36704997E+02 E0= -.36704997E+02  d E =0.264953E-06
       N       E                     dE             d eps       ncg     rms          rms(c)
DAV:   1    -0.367049967072E+02    0.78958E-06   -0.71733E-05    48   0.761E-02    0.159E-03
DAV:   2    -0.367049970088E+02   -0.30161E-06   -0.33747E-06    48   0.181E-02    0.105E-03
DAV:   3    -0.367049970543E+02   -0.45484E-07   -0.39073E-07    48   0.526E-03    0.570E-04
DAV:   4    -0.367049970629E+02   -0.86040E-08   -0.10345E-07    48   0.255E-03    0.126E-04
DAV:   5    -0.367049970640E+02   -0.11657E-08   -0.41029E-08    48   0.120E-03    0.117E-04
DAV:   6    -0.367049970632E+02    0.79172E-09   -0.21080E-08    48   0.669E-04
  45 F= -.36704997E+02 E0= -.36704997E+02  d E =0.432655E-06
       N       E                     dE             d eps       ncg     rms          rms(c)
DAV:   1    -0.367049960480E+02    0.10160E-05   -0.10816E-04    48   0.933E-02    0.192E-03
DAV:   2    -0.367049964998E+02   -0.45183E-06   -0.50739E-06    48   0.221E-02    0.127E-03
DAV:   3    -0.367049965661E+02   -0.66208E-07   -0.58064E-07    48   0.644E-03    0.672E-04
DAV:   4    -0.367049965772E+02   -0.11193E-07   -0.14798E-07    48   0.308E-03    0.150E-04
DAV:   5    -0.367049965807E+02   -0.34336E-08   -0.55879E-08    48   0.146E-03    0.141E-04
DAV:   6    -0.367049965795E+02    0.11601E-08   -0.25733E-08    48   0.817E-04
  46 F= -.36704997E+02 E0= -.36704997E+02  d E =0.483723E-06
       N       E                     dE             d eps       ncg     rms          rms(c)
DAV:   1    -0.367049958881E+02    0.69258E-06   -0.16472E-04    96   0.113E-01    0.253E-03
DAV:   2    -0.367049959462E+02   -0.58062E-07   -0.18376E-06    48   0.108E-02    0.166E-03
DAV:   3    -0.367049959506E+02   -0.44485E-08   -0.24688E-07    48   0.426E-03    0.544E-04
DAV:   4    -0.367049959596E+02   -0.89433E-08   -0.79007E-08    48   0.206E-03    0.194E-04
DAV:   5    -0.367049959633E+02   -0.37714E-08   -0.28172E-08    48   0.951E-04    0.794E-05
DAV:   6    -0.367049959679E+02   -0.45954E-08   -0.17959E-08    48   0.490E-04
  47 F= -.36704996E+02 E0= -.36704996E+02  d E =0.611601E-06
       N       E                     dE             d eps       ncg     rms          rms(c)
DAV:   1    -0.367049952975E+02    0.66586E-06   -0.21535E-04    96   0.130E-01    0.285E-03
DAV:   2    -0.367049953985E+02   -0.10104E-06   -0.23430E-06    48   0.123E-02    0.187E-03
DAV:   3    -0.367049954200E+02   -0.21524E-07   -0.29858E-07    48   0.473E-03    0.584E-04
DAV:   4    -0.367049954352E+02   -0.15222E-07   -0.89658E-08    48   0.220E-03    0.193E-04
DAV:   5    -0.367049954401E+02   -0.48354E-08   -0.31078E-08    48   0.102E-03    0.743E-05
DAV:   6    -0.367049954469E+02   -0.68528E-08   -0.19047E-08    48   0.521E-04
  48 F= -.36704995E+02 E0= -.36704995E+02  d E =0.520984E-06
       N       E                     dE             d eps       ncg     rms          rms(c)
DAV:   1    -0.367049948701E+02    0.57002E-06   -0.26315E-04    96   0.144E-01    0.325E-03
DAV:   2    -0.367049949962E+02   -0.12610E-06   -0.28607E-06    48   0.138E-02    0.212E-03
DAV:   3    -0.367049950285E+02   -0.32307E-07   -0.37323E-07    48   0.535E-03    0.691E-04
DAV:   4    -0.367049950494E+02   -0.20934E-07   -0.11214E-07    48   0.254E-03    0.237E-04
DAV:   5    -0.367049950544E+02   -0.50038E-08   -0.36135E-08    48   0.118E-03    0.951E-05
DAV:   6    -0.367049950614E+02   -0.70347E-08   -0.20733E-08    48   0.606E-04
  49 F= -.36704995E+02 E0= -.36704995E+02  d E =0.385493E-06
       N       E                     dE             d eps       ncg     rms          rms(c)
DAV:   1    -0.367049948669E+02    0.18753E-06   -0.27242E-04    96   0.149E-01    0.342E-03
DAV:   2    -0.367049949644E+02   -0.97569E-07   -0.29376E-06    48   0.143E-02    0.222E-03
DAV:   3    -0.367049949910E+02   -0.26596E-07   -0.40362E-07    48   0.564E-03    0.739E-04
DAV:   4    -0.367049950133E+02   -0.22248E-07   -0.12429E-07    48   0.274E-03    0.271E-04
DAV:   5    -0.367049950211E+02   -0.77857E-08   -0.39070E-08    48   0.129E-03    0.113E-04
DAV:   6    -0.367049950305E+02   -0.94504E-08   -0.21947E-08    48   0.674E-04
  50 F= -.36704995E+02 E0= -.36704995E+02  d E =0.309167E-07
       N       E                     dE             d eps       ncg     rms          rms(c)
DAV:   1    -0.367049953002E+02   -0.27914E-06   -0.24683E-04    96   0.143E-01    0.333E-03
DAV:   2    -0.367049954056E+02   -0.10537E-06   -0.25023E-06    48   0.136E-02    0.214E-03
DAV:   3    -0.367049954605E+02   -0.54962E-07   -0.35037E-07    48   0.532E-03    0.593E-04
DAV:   4    -0.367049954797E+02   -0.19189E-07   -0.10067E-07    48   0.241E-03    0.220E-04
DAV:   5    -0.367049954873E+02   -0.75479E-08   -0.34759E-08    48   0.118E-03    0.887E-05
DAV:   6    -0.367049954976E+02   -0.10353E-07   -0.20598E-08    48   0.635E-04
  51 F= -.36704995E+02 E0= -.36704995E+02  d E =-.467116E-06
       N       E                     dE             d eps       ncg     rms          rms(c)
DAV:   1    -0.367049962952E+02   -0.80791E-06   -0.21060E-04    96   0.134E-01    0.325E-03
DAV:   2    -0.367049963676E+02   -0.72448E-07   -0.19149E-06    48   0.124E-02    0.205E-03
DAV:   3    -0.367049964392E+02   -0.71578E-07   -0.29472E-07    48   0.490E-03    0.455E-04
DAV:   4    -0.367049964545E+02   -0.15308E-07   -0.82244E-08    48   0.217E-03    0.175E-04
DAV:   5    -0.367049964631E+02   -0.85851E-08   -0.31336E-08    48   0.110E-03    0.697E-05
DAV:   6    -0.367049964737E+02   -0.10552E-07   -0.19145E-08    48   0.610E-04
  52 F= -.36704996E+02 E0= -.36704996E+02  d E =-.976024E-06
       N       E                     dE             d eps       ncg     rms          rms(c)
DAV:   1    -0.367049977319E+02   -0.12688E-05   -0.20763E-04    96   0.132E-01    0.351E-03
DAV:   2    -0.367049977490E+02   -0.17073E-07   -0.16280E-06    48   0.118E-02    0.216E-03
DAV:   3    -0.367049978197E+02   -0.70760E-07   -0.29985E-07    48   0.480E-03    0.476E-04
DAV:   4    -0.367049978367E+02   -0.16973E-07   -0.83861E-08    48   0.221E-03    0.177E-04
DAV:   5    -0.367049978452E+02   -0.85168E-08   -0.30895E-08    48   0.110E-03    0.900E-05
DAV:   6    -0.367049978556E+02   -0.10388E-07   -0.19164E-08    48   0.653E-04
  53 F= -.36704998E+02 E0= -.36704998E+02  d E =-.138196E-05
       N       E                     dE             d eps       ncg     rms          rms(c)
DAV:   1    -0.367049990608E+02   -0.12155E-05   -0.28984E-04    96   0.159E-01    0.459E-03
DAV:   2    -0.367049990593E+02    0.14697E-08   -0.26342E-06    48   0.153E-02    0.271E-03
DAV:   3    -0.367049991275E+02   -0.68255E-07   -0.53817E-07    48   0.668E-03    0.957E-04
DAV:   4    -0.367049991652E+02   -0.37605E-07   -0.18200E-07    48   0.350E-03    0.343E-04
DAV:   5    -0.367049991660E+02   -0.82764E-09   -0.47925E-08    48   0.166E-03    0.162E-04
DAV:   6    -0.367049991721E+02   -0.61209E-08   -0.28217E-08    48   0.100E-03
  54 F= -.36704999E+02 E0= -.36704999E+02  d E =-.131648E-05
       N       E                     dE             d eps       ncg     rms          rms(c)
DAV:   1    -0.367049997731E+02   -0.60709E-06   -0.14912E-05    48   0.349E-02    0.162E-03
DAV:   2    -0.367049997819E+02   -0.88299E-08   -0.71662E-07    48   0.828E-03    0.873E-04
DAV:   3    -0.367049997705E+02    0.11396E-07   -0.80352E-08    48   0.247E-03    0.493E-04
DAV:   4    -0.367049997711E+02   -0.55161E-09   -0.53856E-08    48   0.184E-03    0.164E-04
DAV:   5    -0.367049997755E+02   -0.44470E-08   -0.19581E-08    48   0.810E-04    0.111E-04
DAV:   6    -0.367049997793E+02   -0.38310E-08   -0.13989E-08    48   0.386E-04
  55 F= -.36705000E+02 E0= -.36705000E+02  d E =-.607237E-06
       N       E                     dE             d eps       ncg     rms          rms(c)
DAV:   1    -0.367049995806E+02    0.19486E-06   -0.18255E-05    48   0.387E-02    0.171E-03
DAV:   2    -0.367049995952E+02   -0.14579E-07   -0.88828E-07    48   0.922E-03    0.941E-04
DAV:   3    -0.367049995762E+02    0.19005E-07   -0.99619E-08    48   0.278E-03    0.531E-04
DAV:   4    -0.367049995677E+02    0.85234E-08   -0.63100E-08    48   0.204E-03    0.179E-04
DAV:   5    -0.367049995711E+02   -0.34081E-08   -0.21459E-08    48   0.892E-04    0.125E-04
DAV:   6    -0.367049995731E+02   -0.19729E-08   -0.14628E-08    48   0.431E-04
  56 F= -.36705000E+02 E0= -.36705000E+02  d E =0.206264E-06
       N       E                     dE             d eps       ncg     rms          rms(c)
DAV:   1    -0.367049997185E+02   -0.14736E-06   -0.61759E-07    48   0.711E-03    0.330E-04
DAV:   2    -0.367049997231E+02   -0.46794E-08   -0.39557E-08    48   0.167E-03    0.175E-04
DAV:   3    -0.367049997256E+02   -0.24818E-08   -0.14684E-08    48   0.480E-04    0.100E-04
DAV:   4    -0.367049997281E+02   -0.25136E-08   -0.13562E-08    48   0.352E-04    0.307E-05
DAV:   5    -0.367049997281E+02    0.57526E-10   -0.12368E-08    48   0.153E-04    0.212E-05
DAV:   6    -0.367049997282E+02   -0.15666E-09   -0.12189E-08    48   0.705E-05
  57 F= -.36705000E+02 E0= -.36705000E+02  d E =-.155156E-06
       N       E                     dE             d eps       ncg     rms          rms(c)
DAV:   1    -0.367049998858E+02   -0.15772E-06   -0.19422E-06    48   0.127E-02    0.594E-04
DAV:   2    -0.367049998940E+02   -0.81800E-08   -0.10320E-07    48   0.301E-03    0.321E-04
DAV:   3    -0.367049998958E+02   -0.18434E-08   -0.21278E-08    48   0.902E-04    0.180E-04
DAV:   4    -0.367049998969E+02   -0.10930E-08   -0.18107E-08    48   0.687E-04    0.611E-05
DAV:   5    -0.367049998962E+02    0.69758E-09   -0.13299E-08    48   0.304E-04    0.410E-05
DAV:   6    -0.367049998957E+02    0.52796E-09   -0.12539E-08    48   0.147E-04
  58 F= -.36705000E+02 E0= -.36705000E+02  d E =-.167456E-06
       N       E                     dE             d eps       ncg     rms          rms(c)
DAV:   1    -0.367049999338E+02   -0.37633E-07   -0.28545E-06    48   0.155E-02    0.706E-04
DAV:   2    -0.367049999444E+02   -0.10589E-07   -0.14757E-07    48   0.369E-03    0.387E-04
DAV:   3    -0.367049999455E+02   -0.10368E-08   -0.25993E-08    48   0.111E-03    0.217E-04
DAV:   4    -0.367049999460E+02   -0.57548E-09   -0.20914E-08    48   0.833E-04    0.733E-05
DAV:   5    -0.367049999452E+02    0.83446E-09   -0.13952E-08    48   0.369E-04    0.499E-05
DAV:   6    -0.367049999446E+02    0.56980E-09   -0.12850E-08    48   0.181E-04
  59 F= -.36705000E+02 E0= -.36705000E+02  d E =-.489576E-07
       N       E                     dE             d eps       ncg     rms          rms(c)
DAV:   1    -0.367049998573E+02    0.87935E-07   -0.21677E-06    48   0.136E-02    0.571E-04
DAV:   2    -0.367049998663E+02   -0.90187E-08   -0.11598E-07    48   0.324E-03    0.325E-04
DAV:   3    -0.367049998675E+02   -0.11837E-08   -0.23222E-08    48   0.977E-04    0.184E-04
DAV:   4    -0.367049998680E+02   -0.53910E-09   -0.18519E-08    48   0.708E-04    0.609E-05
DAV:   5    -0.367049998673E+02    0.75352E-09   -0.13609E-08    48   0.315E-04    0.429E-05
DAV:   6    -0.367049998669E+02    0.34402E-09   -0.12802E-08    48   0.161E-04
  60 F= -.36705000E+02 E0= -.36705000E+02  d E =0.777210E-07
       N       E                     dE             d eps       ncg     rms          rms(c)
DAV:   1    -0.367049998771E+02   -0.98712E-08   -0.22015E-08    48   0.889E-04    0.382E-05
DAV:   2    -0.367049998767E+02    0.41837E-09   -0.12950E-08    48   0.219E-04    0.209E-05
DAV:   3    -0.367049998768E+02   -0.40018E-10   -0.12546E-08    48   0.654E-05    0.122E-05
DAV:   4    -0.367049998769E+02   -0.19008E-09   -0.12522E-08    48   0.416E-05    0.315E-06
DAV:   5    -0.367049998772E+02   -0.30013E-09   -0.12460E-08    48   0.187E-05    0.232E-06
DAV:   6    -0.367049998774E+02   -0.11823E-09   -0.12469E-08    48   0.914E-06
  61 F= -.36705000E+02 E0= -.36705000E+02  d E =-.104453E-07
       N       E                     dE             d eps       ncg     rms          rms(c)
DAV:   1    -0.367049998979E+02   -0.20629E-07   -0.48256E-08    48   0.171E-03    0.775E-05
DAV:   2    -0.367049998971E+02    0.81536E-09   -0.14157E-08    48   0.409E-04    0.423E-05
DAV:   3    -0.367049998970E+02    0.70031E-10   -0.12559E-08    48   0.123E-04    0.239E-05
DAV:   4    -0.367049998967E+02    0.33788E-09   -0.12490E-08    48   0.911E-05    0.805E-06
DAV:   5    -0.367049998968E+02   -0.18417E-09   -0.12411E-08    48   0.400E-05    0.559E-06
DAV:   6    -0.367049998971E+02   -0.21146E-09   -0.12392E-08    48   0.191E-05
  62 F= -.36705000E+02 E0= -.36705000E+02  d E =-.196833E-07
       N       E                     dE             d eps       ncg     rms          rms(c)
DAV:   1    -0.367049999233E+02   -0.26479E-07   -0.86149E-08    48   0.246E-03    0.110E-04
DAV:   2    -0.367049999224E+02    0.94769E-09   -0.15939E-08    48   0.588E-04    0.602E-05
DAV:   3    -0.367049999218E+02    0.52978E-09   -0.12709E-08    48   0.176E-04    0.341E-05
DAV:   4    -0.367049999216E+02    0.24079E-09   -0.12563E-08    48   0.130E-04    0.115E-05
DAV:   5    -0.367049999219E+02   -0.32583E-09   -0.12405E-08    48   0.572E-05    0.799E-06
DAV:   6    -0.367049999219E+02    0.66166E-10   -0.12365E-08    48   0.275E-05
  63 F= -.36705000E+02 E0= -.36705000E+02  d E =-.248086E-07
       N       E                     dE             d eps       ncg     rms          rms(c)
DAV:   1    -0.367049999512E+02   -0.29318E-07   -0.12798E-07    48   0.308E-03    0.135E-04
DAV:   2    -0.367049999499E+02    0.13081E-08   -0.17959E-08    48   0.737E-04    0.748E-05
DAV:   3    -0.367049999492E+02    0.77625E-09   -0.12913E-08    48   0.222E-04    0.424E-05
DAV:   4    -0.367049999487E+02    0.50318E-09   -0.12632E-08    48   0.162E-04    0.142E-05
DAV:   5    -0.367049999489E+02   -0.28444E-09   -0.12393E-08    48   0.712E-05    0.997E-06
DAV:   6    -0.367049999490E+02   -0.38426E-10   -0.12354E-08    48   0.344E-05
  64 F= -.36705000E+02 E0= -.36705000E+02  d E =-.271200E-07
       N       E                     dE             d eps       ncg     rms          rms(c)
DAV:   1    -0.367049999772E+02   -0.28229E-07   -0.16457E-07    48   0.354E-03    0.152E-04
DAV:   2    -0.367049999760E+02    0.11480E-08   -0.19696E-08    48   0.847E-04    0.846E-05
DAV:   3    -0.367049999752E+02    0.84447E-09   -0.13063E-08    48   0.255E-04    0.481E-05
DAV:   4    -0.367049999747E+02    0.46407E-09   -0.12718E-08    48   0.184E-04    0.160E-05
DAV:   5    -0.367049999749E+02   -0.15052E-09   -0.12392E-08    48   0.810E-05    0.114E-05
DAV:   6    -0.367049999750E+02   -0.10164E-09   -0.12362E-08    48   0.394E-05
  65 F= -.36705000E+02 E0= -.36705000E+02  d E =-.259859E-07
       N       E                     dE             d eps       ncg     rms          rms(c)
DAV:   1    -0.367049999998E+02   -0.24949E-07   -0.18653E-07    48   0.379E-03    0.156E-04
DAV:   2    -0.367049999987E+02    0.11164E-08   -0.20734E-08    48   0.905E-04    0.882E-05
DAV:   3    -0.367049999978E+02    0.85674E-09   -0.13186E-08    48   0.274E-04    0.504E-05
DAV:   4    -0.367049999973E+02    0.53979E-09   -0.12733E-08    48   0.193E-04    0.167E-05
DAV:   5    -0.367049999975E+02   -0.19554E-09   -0.12416E-08    48   0.850E-05    0.120E-05
DAV:   6    -0.367049999976E+02   -0.59572E-10   -0.12352E-08    48   0.414E-05
  66 F= -.36705000E+02 E0= -.36705000E+02  d E =-.225897E-07
       N       E                     dE             d eps       ncg     rms          rms(c)
DAV:   1    -0.367050000220E+02   -0.24552E-07   -0.22531E-07    48   0.420E-03    0.159E-04
DAV:   2    -0.367050000209E+02    0.11380E-08   -0.22599E-08    48   0.997E-04    0.926E-05
DAV:   3    -0.367050000199E+02    0.10200E-08   -0.13353E-08    48   0.302E-04    0.536E-05
DAV:   4    -0.367050000194E+02    0.49704E-09   -0.12789E-08    48   0.205E-04    0.175E-05
DAV:   5    -0.367050000197E+02   -0.25966E-09   -0.12383E-08    48   0.906E-05    0.127E-05
DAV:   6    -0.367050000197E+02   -0.27740E-10   -0.12344E-08    48   0.443E-05
  67 F= -.36705000E+02 E0= -.36705000E+02  d E =-.221244E-07
       N       E                     dE             d eps       ncg     rms          rms(c)
DAV:   1    -0.367050000456E+02   -0.25938E-07   -0.24252E-07    48   0.435E-03    0.142E-04
DAV:   2    -0.367050000447E+02    0.91222E-09   -0.23367E-08    48   0.103E-03    0.870E-05
DAV:   3    -0.367050000440E+02    0.70258E-09   -0.13465E-08    48   0.311E-04    0.516E-05
DAV:   4    -0.367050000435E+02    0.42905E-09   -0.12756E-08    48   0.197E-04    0.167E-05
DAV:   5    -0.367050000437E+02   -0.19736E-09   -0.12409E-08    48   0.887E-05    0.122E-05
DAV:   6    -0.367050000439E+02   -0.20259E-09   -0.12350E-08    48   0.436E-05
  68 F= -.36705000E+02 E0= -.36705000E+02  d E =-.242662E-07
       N       E                     dE             d eps       ncg     rms          rms(c)
DAV:   1    -0.367050000773E+02   -0.33549E-07   -0.25192E-07    48   0.440E-03    0.113E-04
DAV:   2    -0.367050000772E+02    0.11198E-09   -0.23643E-08    48   0.103E-03    0.737E-05
DAV:   3    -0.367050000768E+02    0.37085E-09   -0.13511E-08    48   0.307E-04    0.446E-05
DAV:   4    -0.367050000762E+02    0.60868E-09   -0.12674E-08    48   0.176E-04    0.136E-05
DAV:   5    -0.367050000766E+02   -0.35971E-09   -0.12450E-08    48   0.811E-05    0.105E-05
DAV:   6    -0.367050000765E+02    0.97771E-10   -0.12337E-08    48   0.410E-05
  69 F= -.36705000E+02 E0= -.36705000E+02  d E =-.325168E-07
       N       E                     dE             d eps       ncg     rms          rms(c)
DAV:   1    -0.367050001249E+02   -0.48303E-07   -0.29401E-07    48   0.472E-03    0.978E-05
DAV:   2    -0.367050001257E+02   -0.87812E-09   -0.25357E-08    48   0.111E-03    0.650E-05
DAV:   3    -0.367050001255E+02    0.22521E-09   -0.13783E-08    48   0.322E-04    0.352E-05
DAV:   4    -0.367050001252E+02    0.29218E-09   -0.12670E-08    48   0.159E-04    0.879E-06
DAV:   5    -0.367050001253E+02   -0.47294E-10   -0.12408E-08    48   0.753E-05    0.784E-06
DAV:   6    -0.367050001254E+02   -0.11460E-09   -0.12355E-08    48   0.415E-05
  70 F= -.36705000E+02 E0= -.36705000E+02  d E =-.489233E-07
       N       E                     dE             d eps       ncg     rms          rms(c)
DAV:   1    -0.367050001941E+02   -0.68841E-07   -0.42543E-07    48   0.577E-03    0.121E-04
DAV:   2    -0.367050001959E+02   -0.18097E-08   -0.31565E-08    48   0.136E-03    0.809E-05
DAV:   3    -0.367050001962E+02   -0.26830E-09   -0.14520E-08    48   0.396E-04    0.457E-05
DAV:   4    -0.367050001963E+02   -0.10800E-09   -0.12881E-08    48   0.199E-04    0.101E-05
DAV:   5    -0.367050001961E+02    0.15280E-09   -0.12514E-08    48   0.931E-05    0.937E-06
DAV:   6    -0.367050001963E+02   -0.11255E-09   -0.12422E-08    48   0.517E-05
  71 F= -.36705000E+02 E0= -.36705000E+02  d E =-.708721E-07
       N       E                     dE             d eps       ncg     rms          rms(c)
DAV:   1    -0.367050002827E+02   -0.86582E-07   -0.70000E-07    48   0.754E-03    0.180E-04
DAV:   2    -0.367050002865E+02   -0.37294E-08   -0.44832E-08    48   0.178E-03    0.120E-04
DAV:   3    -0.367050002872E+02   -0.72941E-09   -0.16017E-08    48   0.526E-04    0.726E-05
DAV:   4    -0.367050002877E+02   -0.51318E-09   -0.13432E-08    48   0.290E-04    0.183E-05
DAV:   5    -0.367050002875E+02    0.22555E-09   -0.12666E-08    48   0.134E-04    0.155E-05
DAV:   6    -0.367050002872E+02    0.25057E-09   -0.12456E-08    48   0.712E-05
  72 F= -.36705000E+02 E0= -.36705000E+02  d E =-.909653E-07
       N       E                     dE             d eps       ncg     rms          rms(c)
DAV:   1    -0.367050003830E+02   -0.95535E-07   -0.11205E-06    48   0.961E-03    0.243E-04
DAV:   2    -0.367050003885E+02   -0.55370E-08   -0.64977E-08    48   0.227E-03    0.160E-04
DAV:   3    -0.367050003899E+02   -0.13820E-08   -0.18291E-08    48   0.673E-04    0.975E-05
DAV:   4    -0.367050003905E+02   -0.55934E-09   -0.14212E-08    48   0.383E-04    0.259E-05
DAV:   5    -0.367050003900E+02    0.46748E-09   -0.12867E-08    48   0.176E-04    0.212E-05
DAV:   6    -0.367050003901E+02   -0.57753E-10   -0.12574E-08    48   0.924E-05
  73 F= -.36705000E+02 E0= -.36705000E+02  d E =-.102854E-06
       N       E                     dE             d eps       ncg     rms          rms(c)
DAV:   1    -0.367050004907E+02   -0.10073E-06   -0.15809E-06    48   0.114E-02    0.266E-04
DAV:   2    -0.367050004983E+02   -0.75163E-08   -0.86432E-08    48   0.268E-03    0.177E-04
DAV:   3    -0.367050004999E+02   -0.16214E-08   -0.20831E-08    48   0.791E-04    0.106E-04
DAV:   4    -0.367050005002E+02   -0.30718E-09   -0.14835E-08    48   0.431E-04    0.266E-05
DAV:   5    -0.367050005000E+02    0.20782E-09   -0.13163E-08    48   0.200E-04    0.228E-05
DAV:   6    -0.367050004998E+02    0.16848E-09   -0.12664E-08    48   0.106E-04
  74 F= -.36705000E+02 E0= -.36705000E+02  d E =-.109737E-06
       N       E                     dE             d eps       ncg     rms          rms(c)
DAV:   1    -0.367050006193E+02   -0.11935E-06   -0.20717E-06    48   0.128E-02    0.264E-04
DAV:   2    -0.367050006282E+02   -0.89169E-08   -0.10823E-07    48   0.302E-03    0.176E-04
DAV:   3    -0.367050006298E+02   -0.15166E-08   -0.23303E-08    48   0.879E-04    0.969E-05
DAV:   4    -0.367050006299E+02   -0.18781E-09   -0.15144E-08    48   0.435E-04    0.214E-05
DAV:   5    -0.367050006299E+02    0.61391E-11   -0.13298E-08    48   0.204E-04    0.200E-05
DAV:   6    -0.367050006299E+02    0.52069E-10   -0.12762E-08    48   0.114E-04
  75 F= -.36705001E+02 E0= -.36705001E+02  d E =-.130078E-06
       N       E                     dE             d eps       ncg     rms          rms(c)
DAV:   1    -0.367050007810E+02   -0.15105E-06   -0.29769E-06    48   0.153E-02    0.313E-04
DAV:   2    -0.367050007926E+02   -0.11570E-07   -0.15004E-07    48   0.360E-03    0.209E-04
DAV:   3    -0.367050007933E+02   -0.71282E-09   -0.27897E-08    48   0.104E-03    0.114E-04
DAV:   4    -0.367050007930E+02    0.28012E-09   -0.16242E-08    48   0.514E-04    0.269E-05
DAV:   5    -0.367050007934E+02   -0.40654E-09   -0.13677E-08    48   0.243E-04    0.246E-05
DAV:   6    -0.367050007933E+02    0.86629E-10   -0.12860E-08    48   0.134E-04
  76 F= -.36705001E+02 E0= -.36705001E+02  d E =-.163427E-06
       N       E                     dE             d eps       ncg     rms          rms(c)
DAV:   1    -0.367050009604E+02   -0.16699E-06   -0.45882E-06    48   0.191E-02    0.419E-04
DAV:   2    -0.367050009767E+02   -0.16344E-07   -0.22646E-07    48   0.449E-03    0.279E-04
DAV:   3    -0.367050009775E+02   -0.73101E-09   -0.36381E-08    48   0.131E-03    0.163E-04
DAV:   4    -0.367050009765E+02    0.97384E-09   -0.18779E-08    48   0.684E-04    0.423E-05
DAV:   5    -0.367050009772E+02   -0.70440E-09   -0.14392E-08    48   0.319E-04    0.368E-05
DAV:   6    -0.367050009772E+02    0.15461E-10   -0.13063E-08    48   0.169E-04
  77 F= -.36705001E+02 E0= -.36705001E+02  d E =-.183863E-06
       N       E                     dE             d eps       ncg     rms          rms(c)
DAV:   1    -0.367050011428E+02   -0.16563E-06   -0.64601E-06    48   0.226E-02    0.476E-04
DAV:   2    -0.367050011678E+02   -0.25012E-07   -0.31240E-07    48   0.532E-03    0.317E-04
DAV:   3    -0.367050011698E+02   -0.19118E-08   -0.45980E-08    48   0.154E-03    0.179E-04
DAV:   4    -0.367050011690E+02    0.76352E-09   -0.20937E-08    48   0.779E-04    0.436E-05
DAV:   5    -0.367050011696E+02   -0.64688E-09   -0.15100E-08    48   0.365E-04    0.394E-05
DAV:   6    -0.367050011698E+02   -0.14666E-09   -0.13283E-08    48   0.197E-04
  78 F= -.36705001E+02 E0= -.36705001E+02  d E =-.192599E-06
       N       E                     dE             d eps       ncg     rms          rms(c)
DAV:   1    -0.367050013566E+02   -0.18692E-06   -0.87211E-06    48   0.262E-02    0.529E-04
DAV:   2    -0.367050013936E+02   -0.37014E-07   -0.41568E-07    48   0.618E-03    0.353E-04
DAV:   3    -0.367050013988E+02   -0.52087E-08   -0.57737E-08    48   0.179E-03    0.187E-04
DAV:   4    -0.367050013996E+02   -0.85060E-09   -0.23340E-08    48   0.862E-04    0.409E-05
DAV:   5    -0.367050013997E+02   -0.10618E-09   -0.15961E-08    48   0.407E-04    0.384E-05
DAV:   6    -0.367050013997E+02    0.41837E-10   -0.13587E-08    48   0.227E-04
  79 F= -.36705001E+02 E0= -.36705001E+02  d E =-.229910E-06
       N       E                     dE             d eps       ncg     rms          rms(c)
DAV:   1    -0.367050015816E+02   -0.18189E-06   -0.12885E-05    48   0.320E-02    0.676E-04
DAV:   2    -0.367050016373E+02   -0.55724E-07   -0.61217E-07    48   0.754E-03    0.451E-04
DAV:   3    -0.367050016460E+02   -0.86739E-08   -0.80328E-08    48   0.220E-03    0.253E-04
DAV:   4    -0.367050016478E+02   -0.17383E-08   -0.29460E-08    48   0.110E-03    0.577E-05
DAV:   5    -0.367050016475E+02    0.22374E-09   -0.17812E-08    48   0.515E-04    0.530E-05
DAV:   6    -0.367050016473E+02    0.25057E-09   -0.14153E-08    48   0.282E-04
  80 F= -.36705002E+02 E0= -.36705002E+02  d E =-.247591E-06
       N       E                     dE             d eps       ncg     rms          rms(c)
DAV:   1    -0.367050018015E+02   -0.15397E-06   -0.18212E-05    48   0.377E-02    0.773E-04
DAV:   2    -0.367050018787E+02   -0.77240E-07   -0.85489E-07    48   0.890E-03    0.514E-04
DAV:   3    -0.367050018904E+02   -0.11659E-07   -0.10719E-07    48   0.257E-03    0.273E-04
DAV:   4    -0.367050018925E+02   -0.20616E-08   -0.35315E-08    48   0.124E-03    0.599E-05
DAV:   5    -0.367050018925E+02   -0.66620E-10   -0.19980E-08    48   0.582E-04    0.564E-05
DAV:   6    -0.367050018925E+02    0.76852E-10   -0.14976E-08    48   0.324E-04
  81 F= -.36705002E+02 E0= -.36705002E+02  d E =-.245175E-06
       N       E                     dE             d eps       ncg     rms          rms(c)
DAV:   1    -0.367050020194E+02   -0.12689E-06   -0.27083E-05    48   0.460E-02    0.961E-04
DAV:   2    -0.367050021293E+02   -0.10990E-06   -0.12685E-06    48   0.109E-02    0.639E-04
DAV:   3    -0.367050021436E+02   -0.14284E-07   -0.15279E-07    48   0.313E-03    0.351E-04
DAV:   4    -0.367050021448E+02   -0.12340E-08   -0.46983E-08    48   0.153E-03    0.798E-05
DAV:   5    -0.367050021461E+02   -0.12885E-08   -0.23569E-08    48   0.713E-04    0.742E-05
DAV:   6    -0.367050021460E+02    0.16621E-09   -0.16055E-08    48   0.389E-04
  82 F= -.36705002E+02 E0= -.36705002E+02  d E =-.253510E-06
       N       E                     dE             d eps       ncg     rms          rms(c)
DAV:   1    -0.367050021650E+02   -0.18856E-07   -0.40377E-05    48   0.560E-02    0.116E-03
DAV:   2    -0.367050023320E+02   -0.16700E-06   -0.18812E-06    48   0.132E-02    0.767E-04
DAV:   3    -0.367050023558E+02   -0.23796E-07   -0.22116E-07    48   0.381E-03    0.408E-04
DAV:   4    -0.367050023595E+02   -0.37148E-08   -0.62678E-08    48   0.182E-03    0.899E-05
DAV:   5    -0.367050023607E+02   -0.11983E-08   -0.28862E-08    48   0.851E-04    0.847E-05
DAV:   6    -0.367050023604E+02    0.30855E-09   -0.17755E-08    48   0.470E-04
  83 F= -.36705002E+02 E0= -.36705002E+02  d E =-.214427E-06
       N       E                     dE             d eps       ncg     rms          rms(c)
DAV:   1    -0.367050022427E+02    0.11800E-06   -0.61910E-05    48   0.695E-02    0.145E-03
DAV:   2    -0.367050025033E+02   -0.26060E-06   -0.28833E-06    48   0.164E-02    0.965E-04
DAV:   3    -0.367050025431E+02   -0.39797E-07   -0.33414E-07    48   0.474E-03    0.520E-04
DAV:   4    -0.367050025510E+02   -0.78730E-08   -0.90721E-08    48   0.228E-03    0.117E-04
DAV:   5    -0.367050025519E+02   -0.90563E-09   -0.37764E-08    48   0.107E-03    0.110E-04
DAV:   6    -0.367050025512E+02    0.71941E-09   -0.20676E-08    48   0.592E-04
  84 F= -.36705003E+02 E0= -.36705003E+02  d E =-.190770E-06
       N       E                     dE             d eps       ncg     rms          rms(c)
DAV:   1    -0.367050021986E+02    0.35324E-06   -0.94341E-05    48   0.858E-02    0.178E-03
DAV:   2    -0.367050025904E+02   -0.39177E-06   -0.43745E-06    48   0.203E-02    0.117E-03
DAV:   3    -0.367050026483E+02   -0.57918E-07   -0.49886E-07    48   0.582E-03    0.615E-04
DAV:   4    -0.367050026585E+02   -0.10204E-07   -0.12877E-07    48   0.275E-03    0.135E-04
DAV:   5    -0.367050026614E+02   -0.28419E-08   -0.50521E-08    48   0.129E-03    0.128E-04
DAV:   6    -0.367050026605E+02    0.84538E-09   -0.24908E-08    48   0.718E-04
  85 F= -.36705003E+02 E0= -.36705003E+02  d E =-.109372E-06
       N       E                     dE             d eps       ncg     rms          rms(c)
DAV:   1    -0.367050025511E+02    0.11029E-06   -0.15336E-04    96   0.107E-01    0.235E-03
DAV:   2    -0.367050026201E+02   -0.69040E-07   -0.17358E-06    48   0.100E-02    0.157E-03
DAV:   3    -0.367050026273E+02   -0.71321E-08   -0.22439E-07    48   0.390E-03    0.513E-04
DAV:   4    -0.367050026357E+02   -0.84019E-08   -0.70524E-08    48   0.185E-03    0.166E-04
DAV:   5    -0.367050026381E+02   -0.24784E-08   -0.27306E-08    48   0.846E-04    0.651E-05
DAV:   6    -0.367050026422E+02   -0.40731E-08   -0.18318E-08    48   0.427E-04
  86 F= -.36705003E+02 E0= -.36705003E+02  d E =0.183207E-07
       N       E                     dE             d eps       ncg     rms          rms(c)
DAV:   1    -0.367050023671E+02    0.27100E-06   -0.23649E-04    96   0.134E-01    0.299E-03
DAV:   2    -0.367050024849E+02   -0.11780E-06   -0.26712E-06    48   0.126E-02    0.199E-03
DAV:   3    -0.367050025042E+02   -0.19222E-07   -0.34326E-07    48   0.494E-03    0.685E-04
DAV:   4    -0.367050025225E+02   -0.18385E-07   -0.10607E-07    48   0.242E-03    0.230E-04
DAV:   5    -0.367050025255E+02   -0.29299E-08   -0.35064E-08    48   0.110E-03    0.946E-05
DAV:   6    -0.367050025304E+02   -0.48890E-08   -0.21085E-08    48   0.549E-04
  87 F= -.36705003E+02 E0= -.36705003E+02  d E =0.111852E-06
       N       E                     dE             d eps       ncg     rms          rms(c)
DAV:   1    -0.367050019534E+02    0.57203E-06   -0.34869E-04    96   0.164E-01    0.400E-03
DAV:   2    -0.367050020364E+02   -0.82956E-07   -0.41217E-06    48   0.161E-02    0.259E-03
DAV:   3    -0.367050020183E+02    0.18149E-07   -0.56096E-07    48   0.647E-03    0.103E-03
DAV:   4    -0.367050020426E+02   -0.24347E-07   -0.19163E-07    48   0.353E-03    0.343E-04
DAV:   5    -0.367050020517E+02   -0.90947E-08   -0.51105E-08    48   0.157E-03    0.148E-04
DAV:   6    -0.367050020602E+02   -0.84881E-08   -0.25561E-08    48   0.761E-04
  88 F= -.36705002E+02 E0= -.36705002E+02  d E =0.470183E-06
       N       E                     dE             d eps       ncg     rms          rms(c)
DAV:   1    -0.367050024919E+02   -0.44017E-06   -0.11491E-05    48   0.307E-02    0.146E-03
DAV:   2    -0.367050025292E+02   -0.37386E-07   -0.55032E-07    48   0.721E-03    0.776E-04
DAV:   3    -0.367050025409E+02   -0.11608E-07   -0.66392E-08    48   0.216E-03    0.435E-04
DAV:   4    -0.367050025613E+02   -0.20395E-07   -0.47324E-08    48   0.163E-03    0.148E-04
DAV:   5    -0.367050025658E+02   -0.45518E-08   -0.19724E-08    48   0.722E-04    0.985E-05
DAV:   6    -0.367050025753E+02   -0.94925E-08   -0.15244E-08    48   0.351E-04
  89 F= -.36705003E+02 E0= -.36705003E+02  d E =-.515115E-06
       N       E                     dE             d eps       ncg     rms          rms(c)
DAV:   1    -0.367050023968E+02    0.16900E-06   -0.13979E-05    48   0.341E-02    0.155E-03
DAV:   2    -0.367050024386E+02   -0.41780E-07   -0.68302E-07    48   0.814E-03    0.846E-04
DAV:   3    -0.367050024425E+02   -0.38739E-08   -0.80494E-08    48   0.245E-03    0.475E-04
DAV:   4    -0.367050024525E+02   -0.99997E-08   -0.54881E-08    48   0.184E-03    0.162E-04
DAV:   5    -0.367050024528E+02   -0.38085E-09   -0.20952E-08    48   0.811E-04    0.112E-04
DAV:   6    -0.367050024555E+02   -0.26819E-08   -0.15354E-08    48   0.394E-04
  90 F= -.36705002E+02 E0= -.36705002E+02  d E =0.119780E-06
       N       E                     dE             d eps       ncg     rms          rms(c)
DAV:   1    -0.367050025936E+02   -0.14081E-06   -0.56153E-07    48   0.673E-03    0.308E-04
DAV:   2    -0.367050025939E+02   -0.23738E-09   -0.38333E-08    48   0.159E-03    0.164E-04
DAV:   3    -0.367050025948E+02   -0.89881E-09   -0.15420E-08    48   0.460E-04    0.939E-05
DAV:   4    -0.367050025981E+02   -0.33558E-08   -0.14316E-08    48   0.335E-04    0.294E-05
DAV:   5    -0.367050025998E+02   -0.16271E-08   -0.13174E-08    48   0.146E-04    0.205E-05
DAV:   6    -0.367050026015E+02   -0.17603E-08   -0.12932E-08    48   0.679E-05
  91 F= -.36705003E+02 E0= -.36705003E+02  d E =-.146005E-06
       N       E                     dE             d eps       ncg     rms          rms(c)
DAV:   1    -0.367050027731E+02   -0.17334E-06   -0.17576E-06    48   0.120E-02    0.552E-04
DAV:   2    -0.367050027709E+02    0.22133E-08   -0.95296E-08    48   0.285E-03    0.299E-04
DAV:   3    -0.367050027679E+02    0.29765E-08   -0.20946E-08    48   0.854E-04    0.168E-04
DAV:   4    -0.367050027673E+02    0.56684E-09   -0.17798E-08    48   0.643E-04    0.577E-05
DAV:   5    -0.367050027683E+02   -0.99476E-09   -0.13557E-08    48   0.284E-04    0.392E-05
DAV:   6    -0.367050027694E+02   -0.10223E-08   -0.12841E-08    48   0.137E-04
  92 F= -.36705003E+02 E0= -.36705003E+02  d E =-.167840E-06
       N       E                     dE             d eps       ncg     rms          rms(c)
DAV:   1    -0.367050028697E+02   -0.10136E-06   -0.25851E-06    48   0.146E-02    0.637E-04
DAV:   2    -0.367050028678E+02    0.18561E-08   -0.13521E-07    48   0.348E-03    0.354E-04
DAV:   3    -0.367050028635E+02    0.43613E-08   -0.24962E-08    48   0.105E-03    0.200E-04
DAV:   4    -0.367050028613E+02    0.21562E-08   -0.19749E-08    48   0.773E-04    0.684E-05
DAV:   5    -0.367050028625E+02   -0.11294E-08   -0.13772E-08    48   0.341E-04    0.477E-05
DAV:   6    -0.367050028631E+02   -0.60095E-09   -0.12813E-08    48   0.169E-04
  93 F= -.36705003E+02 E0= -.36705003E+02  d E =-.936959E-07
       N       E                     dE             d eps       ncg     rms          rms(c)
DAV:   1    -0.367050028954E+02   -0.32981E-07   -0.23172E-06    48   0.139E-02    0.513E-04
DAV:   2    -0.367050028966E+02   -0.11794E-08   -0.12261E-07    48   0.329E-03    0.305E-04
DAV:   3    -0.367050028933E+02    0.33119E-08   -0.23999E-08    48   0.997E-04    0.177E-04
DAV:   4    -0.367050028915E+02    0.18157E-08   -0.17862E-08    48   0.682E-04    0.590E-05
DAV:   5    -0.367050028923E+02   -0.83128E-09   -0.13518E-08    48   0.303E-04    0.432E-05
DAV:   6    -0.367050028929E+02   -0.62596E-09   -0.12653E-08    48   0.155E-04
  94 F= -.36705003E+02 E0= -.36705003E+02  d E =-.298886E-07
       N       E                     dE             d eps       ncg     rms          rms(c)
DAV:   1    -0.367050029666E+02   -0.74255E-07   -0.19295E-06    48   0.125E-02    0.312E-04
DAV:   2    -0.367050029717E+02   -0.51734E-08   -0.10234E-07    48   0.294E-03    0.208E-04
DAV:   3    -0.367050029713E+02    0.45179E-09   -0.22281E-08    48   0.872E-04    0.127E-04
DAV:   4    -0.367050029706E+02    0.66166E-09   -0.15428E-08    48   0.499E-04    0.368E-05
DAV:   5    -0.367050029712E+02   -0.56912E-09   -0.13152E-08    48   0.231E-04    0.298E-05
DAV:   6    -0.367050029714E+02   -0.15666E-09   -0.12577E-08    48   0.120E-04
  95 F= -.36705003E+02 E0= -.36705003E+02  d E =-.784152E-07
       N       E                     dE             d eps       ncg     rms          rms(c)
DAV:   1    -0.367050031513E+02   -0.18007E-06   -0.26370E-06    48   0.143E-02    0.289E-04
DAV:   2    -0.367050031629E+02   -0.11637E-07   -0.13297E-07    48   0.338E-03    0.194E-04
DAV:   3    -0.367050031649E+02   -0.20038E-08   -0.25734E-08    48   0.973E-04    0.102E-04
DAV:   4    -0.367050031657E+02   -0.77739E-09   -0.15561E-08    48   0.465E-04    0.227E-05
DAV:   5    -0.367050031657E+02   -0.30241E-10   -0.13412E-08    48   0.220E-04    0.213E-05
DAV:   6    -0.367050031656E+02    0.83901E-10   -0.12712E-08    48   0.123E-04
  96 F= -.36705003E+02 E0= -.36705003E+02  d E =-.194278E-06
       N       E                     dE             d eps       ncg     rms          rms(c)
DAV:   1    -0.367050034700E+02   -0.30425E-06   -0.55708E-06    48   0.210E-02    0.478E-04
DAV:   2    -0.367050034953E+02   -0.25328E-07   -0.27221E-07    48   0.496E-03    0.319E-04
DAV:   3    -0.367050034999E+02   -0.45911E-08   -0.41088E-08    48   0.144E-03    0.192E-04
DAV:   4    -0.367050035021E+02   -0.21948E-08   -0.20296E-08    48   0.768E-04    0.491E-05
DAV:   5    -0.367050035016E+02    0.48385E-09   -0.14732E-08    48   0.355E-04    0.422E-05
DAV:   6    -0.367050035015E+02    0.83674E-10   -0.13093E-08    48   0.186E-04
  97 F= -.36705004E+02 E0= -.36705004E+02  d E =-.335877E-06
       N       E                     dE             d eps       ncg     rms          rms(c)
DAV:   1    -0.367050038527E+02   -0.35111E-06   -0.11057E-05    48   0.298E-02    0.740E-04
DAV:   2    -0.367050039004E+02   -0.47695E-07   -0.53368E-07    48   0.704E-03    0.487E-04
DAV:   3    -0.367050039078E+02   -0.73762E-08   -0.69812E-08    48   0.207E-03    0.299E-04
DAV:   4    -0.367050039109E+02   -0.30984E-08   -0.29875E-08    48   0.116E-03    0.819E-05
DAV:   5    -0.367050039103E+02    0.58435E-09   -0.17453E-08    48   0.534E-04    0.669E-05
DAV:   6    -0.367050039097E+02    0.56843E-09   -0.14016E-08    48   0.274E-04
  98 F= -.36705004E+02 E0= -.36705004E+02  d E =-.408211E-06
       N       E                     dE             d eps       ncg     rms          rms(c)
DAV:   1    -0.367050042169E+02   -0.30659E-06   -0.17912E-05    48   0.378E-02    0.869E-04
DAV:   2    -0.367050042930E+02   -0.76126E-07   -0.85064E-07    48   0.891E-03    0.579E-04
DAV:   3    -0.367050043046E+02   -0.11569E-07   -0.10553E-07    48   0.260E-03    0.348E-04
DAV:   4    -0.367050043088E+02   -0.41747E-08   -0.38689E-08    48   0.140E-03    0.902E-05
DAV:   5    -0.367050043082E+02    0.55786E-09   -0.20404E-08    48   0.644E-04    0.768E-05
DAV:   6    -0.367050043076E+02    0.54683E-09   -0.15045E-08    48   0.337E-04
  99 F= -.36705004E+02 E0= -.36705004E+02  d E =-.397920E-06
       N       E                     dE             d eps       ncg     rms          rms(c)
DAV:   1    -0.367050047109E+02   -0.40274E-06   -0.26079E-05    48   0.451E-02    0.918E-04
DAV:   2    -0.367050048208E+02   -0.10983E-06   -0.12135E-06    48   0.107E-02    0.615E-04
DAV:   3    -0.367050048383E+02   -0.17511E-07   -0.14653E-07    48   0.307E-03    0.328E-04
DAV:   4    -0.367050048427E+02   -0.44299E-08   -0.45246E-08    48   0.148E-03    0.733E-05
DAV:   5    -0.367050048430E+02   -0.26739E-09   -0.23480E-08    48   0.696E-04    0.682E-05
DAV:   6    -0.367050048426E+02    0.33401E-09   -0.16225E-08    48   0.386E-04
 100 F= -.36705005E+02 E0= -.36705005E+02  d E =-.534993E-06
       N       E                     dE             d eps       ncg     rms          rms(c)
DAV:   1    -0.367050054198E+02   -0.57686E-06   -0.41251E-05    48   0.569E-02    0.119E-03
DAV:   2    -0.367050055847E+02   -0.16489E-06   -0.19217E-06    48   0.134E-02    0.804E-04
DAV:   3    -0.367050056056E+02   -0.20919E-07   -0.22716E-07    48   0.390E-03    0.455E-04
DAV:   4    -0.367050056085E+02   -0.28413E-08   -0.66973E-08    48   0.195E-03    0.107E-04
DAV:   5    -0.367050056103E+02   -0.17696E-08   -0.29988E-08    48   0.913E-04    0.981E-05
DAV:   6    -0.367050056101E+02    0.13119E-09   -0.18318E-08    48   0.499E-04
 101 F= -.36705006E+02 E0= -.36705006E+02  d E =-.767483E-06
       N       E                     dE             d eps       ncg     rms          rms(c)
DAV:   1    -0.367050061268E+02   -0.51654E-06   -0.64121E-05    48   0.711E-02    0.152E-03
DAV:   2    -0.367050063800E+02   -0.25319E-06   -0.29898E-06    48   0.168E-02    0.103E-03
DAV:   3    -0.367050064093E+02   -0.29348E-07   -0.34754E-07    48   0.488E-03    0.594E-04
DAV:   4    -0.367050064122E+02   -0.28399E-08   -0.99762E-08    48   0.250E-03    0.145E-04
DAV:   5    -0.367050064150E+02   -0.28544E-08   -0.39904E-08    48   0.117E-03    0.131E-04
DAV:   6    -0.367050064148E+02    0.18122E-09   -0.21307E-08    48   0.631E-04
 102 F= -.36705006E+02 E0= -.36705006E+02  d E =-.804727E-06
       N       E                     dE             d eps       ncg     rms          rms(c)
DAV:   1    -0.367050069893E+02   -0.57426E-06   -0.84316E-05    48   0.809E-02    0.163E-03
DAV:   2    -0.367050073403E+02   -0.35098E-06   -0.38984E-06    48   0.191E-02    0.109E-03
DAV:   3    -0.367050073916E+02   -0.51325E-07   -0.44720E-07    48   0.550E-03    0.577E-04
DAV:   4    -0.367050074011E+02   -0.95124E-08   -0.11772E-07    48   0.263E-03    0.127E-04
DAV:   5    -0.367050074035E+02   -0.23581E-08   -0.47520E-08    48   0.124E-03    0.119E-04
DAV:   6    -0.367050074028E+02    0.68053E-09   -0.24209E-08    48   0.693E-04
 103 F= -.36705007E+02 E0= -.36705007E+02  d E =-.987938E-06
       N       E                     dE             d eps       ncg     rms          rms(c)
DAV:   1    -0.367050084539E+02   -0.10504E-05   -0.11808E-04    80   0.942E-02    0.216E-03
DAV:   2    -0.367050085071E+02   -0.53195E-07   -0.14152E-06    48   0.931E-03    0.142E-03
DAV:   3    -0.367050085113E+02   -0.41712E-08   -0.19629E-07    48   0.368E-03    0.566E-04
DAV:   4    -0.367050085205E+02   -0.92082E-08   -0.71387E-08    48   0.195E-03    0.190E-04
DAV:   5    -0.367050085224E+02   -0.19575E-08   -0.27417E-08    48   0.883E-04    0.777E-05
DAV:   6    -0.367050085265E+02   -0.41034E-08   -0.18751E-08    48   0.436E-04
 104 F= -.36705009E+02 E0= -.36705009E+02  d E =-.112376E-05
       N       E                     dE             d eps       ncg     rms          rms(c)
DAV:   1    -0.367050096477E+02   -0.11253E-05   -0.13091E-04    80   0.984E-02    0.209E-03
DAV:   2    -0.367050097123E+02   -0.64623E-07   -0.14984E-06    48   0.938E-03    0.141E-03
DAV:   3    -0.367050097165E+02   -0.41482E-08   -0.19154E-07    48   0.359E-03    0.487E-04
DAV:   4    -0.367050097260E+02   -0.94772E-08   -0.64097E-08    48   0.172E-03    0.146E-04
DAV:   5    -0.367050097308E+02   -0.48192E-08   -0.26883E-08    48   0.783E-04    0.590E-05
DAV:   6    -0.367050097368E+02   -0.59993E-08   -0.18978E-08    48   0.395E-04
 105 F= -.36705010E+02 E0= -.36705010E+02  d E =-.121024E-05
       N       E                     dE             d eps       ncg     rms          rms(c)
DAV:   1    -0.367050097553E+02   -0.24515E-07   -0.10244E-07    48   0.268E-03    0.937E-05
DAV:   2    -0.367050097601E+02   -0.47980E-08   -0.19477E-08    48   0.657E-04    0.571E-05
DAV:   3    -0.367050097655E+02   -0.54044E-08   -0.15138E-08    48   0.217E-04    0.345E-05
DAV:   4    -0.367050097749E+02   -0.93989E-08   -0.14436E-08    48   0.145E-04    0.113E-05
DAV:   5    -0.367050097789E+02   -0.40145E-08   -0.14100E-08    48   0.748E-05    0.846E-06
DAV:   6    -0.367050097847E+02   -0.57435E-08   -0.13826E-08    48   0.447E-05
 106 F= -.36705010E+02 E0= -.36705010E+02  d E =-.478755E-07
       N       E                     dE             d eps       ncg     rms          rms(c)
DAV:   1    -0.367050097969E+02   -0.17939E-07   -0.30228E-07    48   0.486E-03    0.160E-04
DAV:   2    -0.367050097982E+02   -0.13395E-08   -0.27195E-08    48   0.114E-03    0.972E-05
DAV:   3    -0.367050097994E+02   -0.12426E-08   -0.14735E-08    48   0.341E-04    0.577E-05
DAV:   4    -0.367050098015E+02   -0.20655E-08   -0.13689E-08    48   0.216E-04    0.180E-05
DAV:   5    -0.367050098026E+02   -0.10857E-08   -0.13201E-08    48   0.983E-05    0.134E-05
DAV:   6    -0.367050098037E+02   -0.10621E-08   -0.12962E-08    48   0.488E-05
 107 F= -.36705010E+02 E0= -.36705010E+02  d E =-.189910E-07
       N       E                     dE             d eps       ncg     rms          rms(c)
DAV:   1    -0.367050098052E+02   -0.25624E-08   -0.49670E-07    48   0.621E-03    0.176E-04
DAV:   2    -0.367050098053E+02   -0.17735E-09   -0.35492E-08    48   0.145E-03    0.112E-04
DAV:   3    -0.367050098049E+02    0.40791E-09   -0.15225E-08    48   0.429E-04    0.669E-05
DAV:   4    -0.367050098045E+02    0.44543E-09   -0.13512E-08    48   0.253E-04    0.198E-05
DAV:   5    -0.367050098049E+02   -0.37312E-09   -0.12891E-08    48   0.116E-04    0.153E-05
DAV:   6    -0.367050098049E+02   -0.80490E-10   -0.12687E-08    48   0.570E-05
 108 F= -.36705010E+02 E0= -.36705010E+02  d E =-.127795E-08
       N       E                     dE             d eps       ncg     rms          rms(c)
DAV:   1    -0.367050098065E+02   -0.16504E-08   -0.65275E-07    48   0.699E-03    0.161E-04
DAV:   2    -0.367050098080E+02   -0.14595E-08   -0.41724E-08    48   0.163E-03    0.106E-04
DAV:   3    -0.367050098077E+02    0.28967E-09   -0.15689E-08    48   0.470E-04    0.609E-05
DAV:   4    -0.367050098072E+02    0.47407E-09   -0.13325E-08    48   0.241E-04    0.156E-05
DAV:   5    -0.367050098074E+02   -0.23601E-09   -0.12720E-08    48   0.112E-04    0.135E-05
DAV:   6    -0.367050098073E+02    0.95042E-10   -0.12492E-08    48   0.570E-05
 109 F= -.36705010E+02 E0= -.36705010E+02  d E =-.240664E-08
       N       E                     dE             d eps       ncg     rms          rms(c)
DAV:   1    -0.367050098209E+02   -0.13499E-07   -0.87045E-07    48   0.804E-03    0.171E-04
DAV:   2    -0.367050098242E+02   -0.32712E-08   -0.50939E-08    48   0.188E-03    0.112E-04
DAV:   3    -0.367050098244E+02   -0.18917E-09   -0.16583E-08    48   0.535E-04    0.581E-05
DAV:   4    -0.367050098244E+02    0.20464E-10   -0.13376E-08    48   0.250E-04    0.128E-05
DAV:   5    -0.367050098244E+02   -0.66620E-10   -0.12671E-08    48   0.116E-04    0.118E-05
DAV:   6    -0.367050098243E+02    0.11073E-09   -0.12454E-08    48   0.623E-05
 110 F= -.36705010E+02 E0= -.36705010E+02  d E =-.169898E-07
       N       E                     dE             d eps       ncg     rms          rms(c)
DAV:   1    -0.367050098524E+02   -0.27914E-07   -0.12094E-06    48   0.959E-03    0.209E-04
DAV:   2    -0.367050098575E+02   -0.51555E-08   -0.66801E-08    48   0.225E-03    0.140E-04
DAV:   3    -0.367050098586E+02   -0.10941E-08   -0.18355E-08    48   0.648E-04    0.793E-05
DAV:   4    -0.367050098586E+02   -0.44338E-10   -0.13891E-08    48   0.324E-04    0.186E-05
DAV:   5    -0.367050098586E+02    0.91177E-10   -0.12818E-08    48   0.151E-04    0.169E-05
DAV:   6    -0.367050098585E+02    0.75715E-10   -0.12512E-08    48   0.801E-05
 111 F= -.36705010E+02 E0= -.36705010E+02  d E =-.341518E-07
       N       E                     dE             d eps       ncg     rms          rms(c)
DAV:   1    -0.367050099011E+02   -0.42501E-07   -0.19827E-06    48   0.123E-02    0.274E-04
DAV:   2    -0.367050099099E+02   -0.88710E-08   -0.10237E-07    48   0.289E-03    0.183E-04
DAV:   3    -0.367050099116E+02   -0.16787E-08   -0.22375E-08    48   0.837E-04    0.106E-04
DAV:   4    -0.367050099118E+02   -0.19691E-09   -0.14996E-08    48   0.430E-04    0.255E-05
DAV:   5    -0.367050099120E+02   -0.19190E-09   -0.13170E-08    48   0.200E-04    0.229E-05
DAV:   6    -0.367050099118E+02    0.20168E-09   -0.12632E-08    48   0.106E-04
 112 F= -.36705010E+02 E0= -.36705010E+02  d E =-.533131E-07
       N       E                     dE             d eps       ncg     rms          rms(c)
DAV:   1    -0.367050099785E+02   -0.66543E-07   -0.30016E-06    48   0.151E-02    0.319E-04
DAV:   2    -0.367050099916E+02   -0.13028E-07   -0.14798E-07    48   0.352E-03    0.212E-04
DAV:   3    -0.367050099934E+02   -0.18015E-08   -0.27367E-08    48   0.101E-03    0.116E-04
DAV:   4    -0.367050099939E+02   -0.56161E-09   -0.16075E-08    48   0.494E-04    0.259E-05
DAV:   5    -0.367050099942E+02   -0.25079E-09   -0.13574E-08    48   0.231E-04    0.240E-05
DAV:   6    -0.367050099940E+02    0.13802E-09   -0.12793E-08    48   0.124E-04
 113 F= -.36705010E+02 E0= -.36705010E+02  d E =-.822486E-07
       N       E                     dE             d eps       ncg     rms          rms(c)
DAV:   1    -0.367050101089E+02   -0.11476E-06   -0.46129E-06    48   0.186E-02    0.382E-04
DAV:   2    -0.367050101273E+02   -0.18335E-07   -0.22075E-07    48   0.435E-03    0.254E-04
DAV:   3    -0.367050101298E+02   -0.25764E-08   -0.35335E-08    48   0.124E-03    0.133E-04
DAV:   4    -0.367050101300E+02   -0.15075E-09   -0.17897E-08    48   0.595E-04    0.284E-05
DAV:   5    -0.367050101303E+02   -0.33106E-09   -0.14266E-08    48   0.279E-04    0.267E-05
DAV:   6    -0.367050101303E+02    0.70258E-10   -0.13062E-08    48   0.151E-04
 114 F= -.36705010E+02 E0= -.36705010E+02  d E =-.136216E-06
       N       E                     dE             d eps       ncg     rms          rms(c)
DAV:   1    -0.367050103062E+02   -0.17592E-06   -0.76177E-06    48   0.241E-02    0.498E-04
DAV:   2    -0.367050103361E+02   -0.29886E-07   -0.35914E-07    48   0.563E-03    0.333E-04
DAV:   3    -0.367050103398E+02   -0.36450E-08   -0.50848E-08    48   0.162E-03    0.182E-04
DAV:   4    -0.367050103400E+02   -0.17508E-09   -0.21881E-08    48   0.797E-04    0.405E-05
DAV:   5    -0.367050103403E+02   -0.33720E-09   -0.15541E-08    48   0.373E-04    0.376E-05
DAV:   6    -0.367050103403E+02   -0.51159E-10   -0.13481E-08    48   0.201E-04
 115 F= -.36705010E+02 E0= -.36705010E+02  d E =-.210082E-06
       N       E                     dE             d eps       ncg     rms          rms(c)
DAV:   1    -0.367050105918E+02   -0.25153E-06   -0.12988E-05    48   0.315E-02    0.637E-04
DAV:   2    -0.367050106444E+02   -0.52578E-07   -0.60445E-07    48   0.737E-03    0.425E-04
DAV:   3    -0.367050106517E+02   -0.73087E-08   -0.78215E-08    48   0.211E-03    0.227E-04
DAV:   4    -0.367050106527E+02   -0.96452E-09   -0.28368E-08    48   0.103E-03    0.495E-05
DAV:   5    -0.367050106532E+02   -0.56343E-09   -0.17648E-08    48   0.482E-04    0.466E-05
DAV:   6    -0.367050106532E+02    0.85493E-10   -0.14206E-08    48   0.264E-04
 116 F= -.36705011E+02 E0= -.36705011E+02  d E =-.312811E-06
       N       E                     dE             d eps       ncg     rms          rms(c)
DAV:   1    -0.367050109991E+02   -0.34582E-06   -0.23837E-05    48   0.426E-02    0.855E-04
DAV:   2    -0.367050110988E+02   -0.99759E-07   -0.11010E-06    48   0.100E-02    0.571E-04
DAV:   3    -0.367050111141E+02   -0.15256E-07   -0.13315E-07    48   0.286E-03    0.303E-04
DAV:   4    -0.367050111172E+02   -0.31168E-08   -0.41571E-08    48   0.138E-03    0.656E-05
DAV:   5    -0.367050111176E+02   -0.46657E-09   -0.22105E-08    48   0.647E-04    0.620E-05
DAV:   6    -0.367050111172E+02    0.49295E-09   -0.15662E-08    48   0.357E-04
 117 F= -.36705011E+02 E0= -.36705011E+02  d E =-.464006E-06
       N       E                     dE             d eps       ncg     rms          rms(c)
DAV:   1    -0.367050115759E+02   -0.45829E-06   -0.46772E-05    48   0.598E-02    0.121E-03
DAV:   2    -0.367050117718E+02   -0.19584E-06   -0.21555E-06    48   0.141E-02    0.806E-04
DAV:   3    -0.367050118012E+02   -0.29470E-07   -0.25017E-07    48   0.402E-03    0.431E-04
DAV:   4    -0.367050118072E+02   -0.59688E-08   -0.69970E-08    48   0.195E-03    0.948E-05
DAV:   5    -0.367050118077E+02   -0.43383E-09   -0.31493E-08    48   0.911E-04    0.892E-05
DAV:   6    -0.367050118073E+02    0.36880E-09   -0.18742E-08    48   0.502E-04
 118 F= -.36705012E+02 E0= -.36705012E+02  d E =-.690127E-06
       N       E                     dE             d eps       ncg     rms          rms(c)
DAV:   1    -0.367050123480E+02   -0.54037E-06   -0.84664E-05    48   0.805E-02    0.161E-03
DAV:   2    -0.367050126997E+02   -0.35169E-06   -0.38958E-06    48   0.190E-02    0.108E-03
DAV:   3    -0.367050127504E+02   -0.50667E-07   -0.44485E-07    48   0.542E-03    0.570E-04
DAV:   4    -0.367050127592E+02   -0.88318E-08   -0.11666E-07    48   0.261E-03    0.124E-04
DAV:   5    -0.367050127608E+02   -0.15880E-08   -0.47040E-08    48   0.123E-03    0.118E-04
DAV:   6    -0.367050127598E+02    0.10300E-08   -0.23989E-08    48   0.682E-04
 119 F= -.36705013E+02 E0= -.36705013E+02  d E =-.952489E-06
       N       E                     dE             d eps       ncg     rms          rms(c)
DAV:   1    -0.367050138890E+02   -0.11282E-05   -0.14779E-04    96   0.104E-01    0.221E-03
DAV:   2    -0.367050139642E+02   -0.75180E-07   -0.17160E-06    48   0.101E-02    0.149E-03
DAV:   3    -0.367050139652E+02   -0.98225E-09   -0.22014E-07    48   0.385E-03    0.530E-04
DAV:   4    -0.367050139726E+02   -0.74081E-08   -0.72900E-08    48   0.188E-03    0.158E-04
DAV:   5    -0.367050139750E+02   -0.24045E-08   -0.28995E-08    48   0.869E-04    0.628E-05
DAV:   6    -0.367050139787E+02   -0.37485E-08   -0.19564E-08    48   0.439E-04
 120 F= -.36705014E+02 E0= -.36705014E+02  d E =-.121896E-05
       N       E                     dE             d eps       ncg     rms          rms(c)
DAV:   1    -0.367050153361E+02   -0.13611E-05   -0.22424E-04    96   0.129E-01    0.271E-03
DAV:   2    -0.367050154616E+02   -0.12549E-06   -0.25801E-06    48   0.123E-02    0.183E-03
DAV:   3    -0.367050154719E+02   -0.10326E-07   -0.31846E-07    48   0.469E-03    0.659E-04
DAV:   4    -0.367050154882E+02   -0.16327E-07   -0.10070E-07    48   0.228E-03    0.193E-04
DAV:   5    -0.367050154915E+02   -0.33319E-08   -0.35877E-08    48   0.104E-03    0.801E-05
DAV:   6    -0.367050154966E+02   -0.51018E-08   -0.22244E-08    48   0.518E-04
 121 F= -.36705015E+02 E0= -.36705015E+02  d E =-.151791E-05
       N       E                     dE             d eps       ncg     rms          rms(c)
DAV:   1    -0.367050169862E+02   -0.14947E-05   -0.30181E-04    96   0.149E-01    0.316E-03
DAV:   2    -0.367050171412E+02   -0.15499E-06   -0.34804E-06    48   0.144E-02    0.213E-03
DAV:   3    -0.367050171397E+02    0.15103E-08   -0.43115E-07    48   0.550E-03    0.779E-04
DAV:   4    -0.367050171583E+02   -0.18621E-07   -0.13484E-07    48   0.271E-03    0.239E-04
DAV:   5    -0.367050171652E+02   -0.68421E-08   -0.44212E-08    48   0.123E-03    0.944E-05
DAV:   6    -0.367050171723E+02   -0.71212E-08   -0.25330E-08    48   0.613E-04
 122 F= -.36705017E+02 E0= -.36705017E+02  d E =-.167566E-05
       N       E                     dE             d eps       ncg     rms          rms(c)
DAV:   1    -0.367050185823E+02   -0.14172E-05   -0.35245E-04    96   0.162E-01    0.359E-03
DAV:   2    -0.367050187616E+02   -0.17931E-06   -0.42141E-06    48   0.161E-02    0.240E-03
DAV:   3    -0.367050187626E+02   -0.95713E-09   -0.53604E-07    48   0.619E-03    0.980E-04
DAV:   4    -0.367050187920E+02   -0.29394E-07   -0.17831E-07    48   0.328E-03    0.306E-04
DAV:   5    -0.367050187981E+02   -0.61025E-08   -0.53346E-08    48   0.148E-03    0.127E-04
DAV:   6    -0.367050188073E+02   -0.92457E-08   -0.28413E-08    48   0.720E-04
 123 F= -.36705019E+02 E0= -.36705019E+02  d E =-.163504E-05
       N       E                     dE             d eps       ncg     rms          rms(c)
DAV:   1    -0.367050189747E+02   -0.17656E-06   -0.46087E-06    48   0.195E-02    0.863E-04
DAV:   2    -0.367050189821E+02   -0.74647E-08   -0.23786E-07    48   0.465E-03    0.477E-04
DAV:   3    -0.367050189861E+02   -0.39365E-08   -0.38664E-08    48   0.139E-03    0.272E-04
DAV:   4    -0.367050190017E+02   -0.15681E-07   -0.29043E-08    48   0.102E-03    0.895E-05
DAV:   5    -0.367050190104E+02   -0.86145E-08   -0.18328E-08    48   0.455E-04    0.623E-05
DAV:   6    -0.367050190225E+02   -0.12115E-07   -0.16196E-08    48   0.224E-04
 124 F= -.36705019E+02 E0= -.36705019E+02  d E =-.215127E-06
       N       E                     dE             d eps       ncg     rms          rms(c)
DAV:   1    -0.367050188948E+02    0.11558E-06   -0.74260E-06    48   0.249E-02    0.987E-04
DAV:   2    -0.367050189070E+02   -0.12214E-07   -0.37330E-07    48   0.592E-03    0.572E-04
DAV:   3    -0.367050189051E+02    0.18708E-08   -0.51404E-08    48   0.178E-03    0.332E-04
DAV:   4    -0.367050189104E+02   -0.52512E-08   -0.32931E-08    48   0.125E-03    0.108E-04
DAV:   5    -0.367050189150E+02   -0.46246E-08   -0.17678E-08    48   0.557E-04    0.781E-05
DAV:   6    -0.367050189203E+02   -0.52644E-08   -0.14663E-08    48   0.276E-04
 125 F= -.36705019E+02 E0= -.36705019E+02  d E =0.102214E-06
       N       E                     dE             d eps       ncg     rms          rms(c)
DAV:   1    -0.367050189554E+02   -0.40443E-07   -0.16190E-07    48   0.354E-03    0.148E-04
DAV:   2    -0.367050189592E+02   -0.37228E-08   -0.20364E-08    48   0.842E-04    0.824E-05
DAV:   3    -0.367050189619E+02   -0.27107E-08   -0.13798E-08    48   0.247E-04    0.483E-05
DAV:   4    -0.367050189654E+02   -0.35361E-08   -0.13293E-08    48   0.170E-04    0.136E-05
DAV:   5    -0.367050189658E+02   -0.41223E-09   -0.12964E-08    48   0.754E-05    0.101E-05
DAV:   6    -0.367050189670E+02   -0.11376E-08   -0.12848E-08    48   0.351E-05
 126 F= -.36705019E+02 E0= -.36705019E+02  d E =-.466983E-07
       N       E                     dE             d eps       ncg     rms          rms(c)
DAV:   1    -0.367050190062E+02   -0.40344E-07   -0.50695E-07    48   0.644E-03    0.273E-04
DAV:   2    -0.367050190100E+02   -0.38810E-08   -0.36439E-08    48   0.153E-03    0.154E-04
DAV:   3    -0.367050190116E+02   -0.15384E-08   -0.15034E-08    48   0.458E-04    0.879E-05
DAV:   4    -0.367050190127E+02   -0.11673E-08   -0.13904E-08    48   0.333E-04    0.287E-05
DAV:   5    -0.367050190125E+02    0.28194E-09   -0.12837E-08    48   0.147E-04    0.204E-05
DAV:   6    -0.367050190121E+02    0.31673E-09   -0.12604E-08    48   0.725E-05
 127 F= -.36705019E+02 E0= -.36705019E+02  d E =-.451943E-07
       N       E                     dE             d eps       ncg     rms          rms(c)
DAV:   1    -0.367050190271E+02   -0.14648E-07   -0.81170E-07    48   0.821E-03    0.333E-04
DAV:   2    -0.367050190321E+02   -0.49788E-08   -0.50989E-08    48   0.194E-03    0.191E-04
DAV:   3    -0.367050190335E+02   -0.14570E-08   -0.16461E-08    48   0.584E-04    0.110E-04
DAV:   4    -0.367050190341E+02   -0.57685E-09   -0.14610E-08    48   0.415E-04    0.355E-05
DAV:   5    -0.367050190337E+02    0.44224E-09   -0.12941E-08    48   0.184E-04    0.256E-05
DAV:   6    -0.367050190333E+02    0.34561E-09   -0.12643E-08    48   0.911E-05
 128 F= -.36705019E+02 E0= -.36705019E+02  d E =-.211896E-07
       N       E                     dE             d eps       ncg     rms          rms(c)
DAV:   1    -0.367050190183E+02    0.15358E-07   -0.84640E-07    48   0.839E-03    0.303E-04
DAV:   2    -0.367050190234E+02   -0.50634E-08   -0.52580E-08    48   0.197E-03    0.181E-04
DAV:   3    -0.367050190246E+02   -0.11842E-08   -0.16719E-08    48   0.594E-04    0.107E-04
DAV:   4    -0.367050190253E+02   -0.77171E-09   -0.14386E-08    48   0.400E-04    0.338E-05
DAV:   5    -0.367050190250E+02    0.34493E-09   -0.12887E-08    48   0.179E-04    0.249E-05
DAV:   6    -0.367050190249E+02    0.13938E-09   -0.12605E-08    48   0.888E-05
 129 F= -.36705019E+02 E0= -.36705019E+02  d E =0.847706E-08
       N       E                     dE             d eps       ncg     rms          rms(c)
DAV:   1    -0.367050190075E+02    0.17534E-07   -0.65427E-07    48   0.726E-03    0.204E-04
DAV:   2    -0.367050190115E+02   -0.39993E-08   -0.42700E-08    48   0.169E-03    0.131E-04
DAV:   3    -0.367050190124E+02   -0.89221E-09   -0.15787E-08    48   0.505E-04    0.793E-05
DAV:   4    -0.367050190132E+02   -0.87994E-09   -0.13599E-08    48   0.302E-04    0.230E-05
DAV:   5    -0.367050190129E+02    0.32651E-09   -0.12780E-08    48   0.138E-04    0.182E-05
DAV:   6    -0.367050190129E+02    0.13642E-10   -0.12565E-08    48   0.697E-05
 130 F= -.36705019E+02 E0= -.36705019E+02  d E =0.119634E-07
       N       E                     dE             d eps       ncg     rms          rms(c)
DAV:   1    -0.367050190231E+02   -0.10203E-07   -0.56785E-07    48   0.651E-03    0.139E-04
DAV:   2    -0.367050190256E+02   -0.25191E-08   -0.37526E-08    48   0.152E-03    0.916E-05
DAV:   3    -0.367050190264E+02   -0.72032E-09   -0.15236E-08    48   0.434E-04    0.482E-05
DAV:   4    -0.367050190264E+02   -0.30468E-10   -0.13154E-08    48   0.208E-04    0.108E-05
DAV:   5    -0.367050190266E+02   -0.19031E-09   -0.12720E-08    48   0.978E-05    0.996E-06
DAV:   6    -0.367050190264E+02    0.14825E-09   -0.12512E-08    48   0.527E-05
 131 F= -.36705019E+02 E0= -.36705019E+02  d E =-.135290E-07
       N       E                     dE             d eps       ncg     rms          rms(c)
DAV:   1    -0.367050190775E+02   -0.50906E-07   -0.87948E-07    48   0.823E-03    0.189E-04
DAV:   2    -0.367050190802E+02   -0.27087E-08   -0.52285E-08    48   0.192E-03    0.126E-04
DAV:   3    -0.367050190800E+02    0.15939E-09   -0.16833E-08    48   0.557E-04    0.755E-05
DAV:   4    -0.367050190797E+02    0.31719E-09   -0.13661E-08    48   0.298E-04    0.191E-05
DAV:   5    -0.367050190800E+02   -0.25329E-09   -0.12801E-08    48   0.138E-04    0.167E-05
DAV:   6    -0.367050190800E+02   -0.90949E-12   -0.12537E-08    48   0.709E-05
 132 F= -.36705019E+02 E0= -.36705019E+02  d E =-.535402E-07
       N       E                     dE             d eps       ncg     rms          rms(c)
DAV:   1    -0.367050191622E+02   -0.82228E-07   -0.15837E-06    48   0.113E-02    0.301E-04
DAV:   2    -0.367050191656E+02   -0.33594E-08   -0.86300E-08    48   0.264E-03    0.197E-04
DAV:   3    -0.367050191649E+02    0.62096E-09   -0.20460E-08    48   0.778E-04    0.121E-04
DAV:   4    -0.367050191641E+02    0.79785E-09   -0.15104E-08    48   0.464E-04    0.351E-05
DAV:   5    -0.367050191647E+02   -0.56821E-09   -0.13122E-08    48   0.213E-04    0.283E-05
DAV:   6    -0.367050191648E+02   -0.68667E-10   -0.12636E-08    48   0.107E-04
 133 F= -.36705019E+02 E0= -.36705019E+02  d E =-.848048E-07
       N       E                     dE             d eps       ncg     rms          rms(c)
DAV:   1    -0.367050192643E+02   -0.99565E-07   -0.25247E-06    48   0.142E-02    0.366E-04
DAV:   2    -0.367050192711E+02   -0.68378E-08   -0.13030E-07    48   0.334E-03    0.240E-04
DAV:   3    -0.367050192705E+02    0.65052E-09   -0.25281E-08    48   0.982E-04    0.148E-04
DAV:   4    -0.367050192695E+02    0.94474E-09   -0.16538E-08    48   0.575E-04    0.421E-05
DAV:   5    -0.367050192700E+02   -0.45725E-09   -0.13519E-08    48   0.265E-04    0.342E-05
DAV:   6    -0.367050192703E+02   -0.36766E-09   -0.12685E-08    48   0.135E-04
 134 F= -.36705019E+02 E0= -.36705019E+02  d E =-.105564E-06
       N       E                     dE             d eps       ncg     rms          rms(c)
DAV:   1    -0.367050194165E+02   -0.14650E-06   -0.38882E-06    48   0.173E-02    0.372E-04
DAV:   2    -0.367050194310E+02   -0.14569E-07   -0.19119E-07    48   0.408E-03    0.249E-04
DAV:   3    -0.367050194323E+02   -0.12403E-08   -0.32257E-08    48   0.118E-03    0.143E-04
DAV:   4    -0.367050194321E+02    0.15189E-09   -0.17578E-08    48   0.611E-04    0.347E-05
DAV:   5    -0.367050194326E+02   -0.50932E-09   -0.13987E-08    48   0.284E-04    0.315E-05
DAV:   6    -0.367050194328E+02   -0.18167E-09   -0.12872E-08    48   0.152E-04
 135 F= -.36705019E+02 E0= -.36705019E+02  d E =-.162477E-06
