 vasp.5.4.1 24Jun15 (build Jan 13 2020 12:58:22) complex                        
  
 executed on           IFC91_ompi date 2020.02.03  09:53:44
 running on   15 total cores
 each image running on    1 cores
 distrk:  each k-point on    1 cores,    1 groups
 distr:  one band on NCORES_PER_BAND=   1 cores,    1 groups


--------------------------------------------------------------------------------------------------------


 INCAR:
 POTCAR:    PAW_PBE H 15Jun2001                   
 POTCAR:    PAW_PBE C 08Apr2002                   
 POTCAR:    PAW_PBE N 08Apr2002                   
 POTCAR:    PAW_PBE H 15Jun2001                   
   VRHFIN =H: ultrasoft test                                                    
   LEXCH  = PE                                                                  
   EATOM  =    12.4884 eV,    0.9179 Ry                                         
                                                                                
   TITEL  = PAW_PBE H 15Jun2001                                                 
   LULTRA =        F    use ultrasoft PP ?                                      
   IUNSCR =        0    unscreen: 0-lin 1-nonlin 2-no                           
   RPACOR =    0.000    partial core radius                                     
   POMASS =    1.000; ZVAL   =    1.000    mass and valenz                      
   RCORE  =    1.100    outmost cutoff radius                                   
   RWIGS  =    0.700; RWIGS  =    0.370    wigner-seitz radius (au A)           
   ENMAX  =  250.000; ENMIN  =  200.000 eV                                      
   RCLOC  =    0.701    cutoff for local pot                                    
   LCOR   =        T    correct aug charges                                     
   LPAW   =        T    paw PP                                                  
   EAUG   =  400.000                                                            
   RMAX   =    1.123    core radius for proj-oper                               
   RAUG   =    1.200    factor for augmentation sphere                          
   RDEP   =    1.112    radius for radial grids                                 
   RDEPT  =    0.926    core radius for aug-charge                              
                                                                                
   Atomic configuration                                                         
    2 entries                                                                   
     n  l   j            E        occ.                                          
     1  0  0.50        -6.4927   1.0000                                         
     2  1  0.50        -3.4015   0.0000                                         
   Description                                                                  
     l       E           TYP  RCUT    TYP  RCUT                                 
     0     -6.4927494     23  1.100                                             
     0      6.8029130     23  1.100                                             
     1     -4.0817478     23  1.100                                             
  local pseudopotential read in
  atomic valenz-charges read in
  non local Contribution for L=           0  read in
    real space projection operators read in
  non local Contribution for L=           0  read in
    real space projection operators read in
  non local Contribution for L=           1  read in
    real space projection operators read in
    PAW grid and wavefunctions read in
 
   number of l-projection  operators is LMAX  =           3
   number of lm-projection operators is LMMAX =           5
 
 POTCAR:    PAW_PBE C 08Apr2002                   
   VRHFIN =C: s2p2                                                              
   LEXCH  = PE                                                                  
   EATOM  =   147.1560 eV,   10.8157 Ry                                         
                                                                                
   TITEL  = PAW_PBE C 08Apr2002                                                 
   LULTRA =        F    use ultrasoft PP ?                                      
   IUNSCR =        1    unscreen: 0-lin 1-nonlin 2-no                           
   RPACOR =    1.200    partial core radius                                     
   POMASS =   12.011; ZVAL   =    4.000    mass and valenz                      
   RCORE  =    1.500    outmost cutoff radius                                   
   RWIGS  =    1.630; RWIGS  =    0.863    wigner-seitz radius (au A)           
   ENMAX  =  400.000; ENMIN  =  300.000 eV                                      
   ICORE  =        2    local potential                                         
   LCOR   =        T    correct aug charges                                     
   LPAW   =        T    paw PP                                                  
   EAUG   =  644.873                                                            
   DEXC   =    0.000                                                            
   RMAX   =    1.529    core radius for proj-oper                               
   RAUG   =    1.300    factor for augmentation sphere                          
   RDEP   =    1.501    radius for radial grids                                 
   RDEPT  =    1.300    core radius for aug-charge                              
                                                                                
   Atomic configuration                                                         
    4 entries                                                                   
     n  l   j            E        occ.                                          
     1  0  0.50      -273.3789   2.0000                                         
     2  0  0.50       -13.7508   2.0000                                         
     2  1  0.50        -5.2854   2.0000                                         
     3  2  1.50        -5.4423   0.0000                                         
   Description                                                                  
     l       E           TYP  RCUT    TYP  RCUT                                 
     0    -13.7508458     23  1.200                                             
     0     -8.2022199     23  1.200                                             
     1     -5.2854383     23  1.500                                             
     1     34.0145650     23  1.500                                             
     2     -5.4423304      7  1.500                                             
  local pseudopotential read in
  partial core-charges read in
  partial kinetic energy density read in
  atomic valenz-charges read in
  non local Contribution for L=           0  read in
    real space projection operators read in
  non local Contribution for L=           0  read in
    real space projection operators read in
  non local Contribution for L=           1  read in
    real space projection operators read in
  non local Contribution for L=           1  read in
    real space projection operators read in
    PAW grid and wavefunctions read in
 
   number of l-projection  operators is LMAX  =           4
   number of lm-projection operators is LMMAX =           8
 
 POTCAR:    PAW_PBE N 08Apr2002                   
   VRHFIN =N: s2p3                                                              
   LEXCH  = PE                                                                  
   EATOM  =   264.5486 eV,   19.4438 Ry                                         
                                                                                
   TITEL  = PAW_PBE N 08Apr2002                                                 
   LULTRA =        F    use ultrasoft PP ?                                      
   IUNSCR =        1    unscreen: 0-lin 1-nonlin 2-no                           
   RPACOR =    1.200    partial core radius                                     
   POMASS =   14.001; ZVAL   =    5.000    mass and valenz                      
   RCORE  =    1.500    outmost cutoff radius                                   
   RWIGS  =    1.400; RWIGS  =    0.741    wigner-seitz radius (au A)           
   ENMAX  =  400.000; ENMIN  =  300.000 eV                                      
   ICORE  =        2    local potential                                         
   LCOR   =        T    correct aug charges                                     
   LPAW   =        T    paw PP                                                  
   EAUG   =  627.112                                                            
   DEXC   =    0.000                                                            
   RMAX   =    1.529    core radius for proj-oper                               
   RAUG   =    1.300    factor for augmentation sphere                          
   RDEP   =    1.514    radius for radial grids                                 
   RDEPT  =    1.338    core radius for aug-charge                              
                                                                                
   Atomic configuration                                                         
    4 entries                                                                   
     n  l   j            E        occ.                                          
     1  0  0.50      -384.7179   2.0000                                         
     2  0  0.50       -18.5828   2.0000                                         
     2  1  0.50        -7.0898   3.0000                                         
     3  2  1.50        -6.8029   0.0000                                         
   Description                                                                  
     l       E           TYP  RCUT    TYP  RCUT                                 
     0    -18.5828119     23  1.200                                             
     0    -13.5018863     23  1.200                                             
     1     -7.0897853     23  1.500                                             
     1      9.5240782     23  1.500                                             
     2     -6.8029130      7  1.500                                             
  local pseudopotential read in
  partial core-charges read in
  partial kinetic energy density read in
  atomic valenz-charges read in
  non local Contribution for L=           0  read in
    real space projection operators read in
  non local Contribution for L=           0  read in
    real space projection operators read in
  non local Contribution for L=           1  read in
    real space projection operators read in
  non local Contribution for L=           1  read in
    real space projection operators read in
    PAW grid and wavefunctions read in
 
   number of l-projection  operators is LMAX  =           4
   number of lm-projection operators is LMMAX =           8
 

 ----------------------------------------------------------------------------- 
|                                                                             |
|  ADVICE TO THIS USER RUNNING 'VASP/VAMP'   (HEAR YOUR MASTER'S VOICE ...):  |
|                                                                             |
|      You have a (more or less) 'small supercell' and for smaller cells      |
|      it is recommended  to use the reciprocal-space projection scheme!      |
|      The real space optimization is not  efficient for small cells and it   |
|      is also less accurate ...                                              |
|      Therefore set LREAL=.FALSE. in the  INCAR file                         |
|                                                                             |
 ----------------------------------------------------------------------------- 

 Optimization of the real space projectors (new method)

 maximal supplied QI-value         = 34.20
 optimisation between [QCUT,QGAM] = [  9.92, 20.18] = [ 27.55,114.04] Ry 
 Optimized for a Real-space Cutoff    1.26 Angstroem

   l    n(q)    QCUT    max X(q) W(low)/X(q) W(high)/X(q)  e(spline) 
   0      8     9.919    19.460    0.50E-03    0.23E-03    0.29E-06
   0      8     9.919    12.209    0.48E-03    0.23E-03    0.28E-06
   1      7     9.919     4.655    0.17E-03    0.75E-03    0.30E-06
 Optimization of the real space projectors (new method)

 maximal supplied QI-value         = 25.13
 optimisation between [QCUT,QGAM] = [ 10.05, 20.36] = [ 28.30,116.06] Ry 
 Optimized for a Real-space Cutoff    1.30 Angstroem

   l    n(q)    QCUT    max X(q) W(low)/X(q) W(high)/X(q)  e(spline) 
   0      8    10.053   115.676    0.49E-03    0.72E-03    0.18E-06
   0      8    10.053    87.132    0.49E-03    0.71E-03    0.18E-06
   1      7    10.053     4.429    0.32E-03    0.31E-03    0.18E-06
   1      7    10.053     2.733    0.23E-03    0.19E-03    0.20E-06
 Optimization of the real space projectors (new method)

 maximal supplied QI-value         = 25.13
 optimisation between [QCUT,QGAM] = [ 10.05, 20.36] = [ 28.30,116.06] Ry 
 Optimized for a Real-space Cutoff    1.65 Angstroem

   l    n(q)    QCUT    max X(q) W(low)/X(q) W(high)/X(q)  e(spline) 
   0     10    10.053    79.467    0.76E-04    0.72E-04    0.56E-06
   0     10    10.053    66.151    0.76E-04    0.72E-04    0.55E-06
   1     10    10.053     8.350    0.25E-03    0.92E-03    0.41E-05
   1     10    10.053     5.531    0.27E-03    0.10E-02    0.45E-05
  PAW_PBE H 15Jun2001                   :
 energy of atom  1       EATOM=  -12.4884
 kinetic energy error for atom=    0.0098 (will be added to EATOM!!)
  PAW_PBE C 08Apr2002                   :
 energy of atom  2       EATOM= -147.1560
 kinetic energy error for atom=    0.0288 (will be added to EATOM!!)
  PAW_PBE N 08Apr2002                   :
 energy of atom  3       EATOM= -264.5486
 kinetic energy error for atom=    0.0736 (will be added to EATOM!!)
 
 
 POSCAR: H3 C2 N1                                
  positions in direct lattice
  velocities in cartesian coordinates
 exchange correlation table for  LEXCH =        8
   RHO(1)=    0.500       N(1)  =     2000
   RHO(2)=  100.500       N(2)  =     4000

 VTST: version 3.2, (02/03/18)

 CHAIN: initializing optimizer
 
 OPT: Using FIRE optimizer
 OPT: FIRE, Init
 OPT: FIRE, MAXMOVE       0.20000
 OPT: FIRE, TIMESTEP      0.10000
 OPT: FIRE, FTIMEMAX      1.00000
 OPT: FIRE, FTIMEINC      1.10000
 OPT: FIRE, FTIMEDEC      0.50000
 OPT: FIRE, FALPHADEC     0.99000
 OPT: FIRE, FALPHA        0.10000
 OPT: FIRE, FNMIN         5
 
 CHAIN: Read ICHAIN            0
 CHAIN: Running the NEB
 NEB:          SPRING     -5.000000
 NEB:          LCLIMB      T
 NEB:     LTANGENTOLD      F
 NEB:           LDNEB      F
 NEB:        LDNEBORG      F
 NEB:        LNEBCELL      F
 NEB:          EFIRST      0.000000
 NEB:           ELAST      0.000000
 
 POSCAR: H3 C2 N1                                
  positions in direct lattice
  No initial velocities read in
 
 POSCAR: H3 C2 N1                                
  positions in direct lattice
  No initial velocities read in
 


--------------------------------------------------------------------------------------------------------


 ion  position               nearest neighbor table
   1  0.474  0.463  0.498-   4 1.10
   2  0.471  0.516  0.470-   4 1.10
   3  0.469  0.513  0.530-   4 1.10
   4  0.484  0.499  0.500-   1 1.10   2 1.10   3 1.10   5 1.45
   5  0.532  0.503  0.501-   6 1.17   4 1.45
   6  0.571  0.506  0.501-   5 1.17
 
  LATTYP: Found a simple cubic cell.
 ALAT       =    30.0000000000
  
  Lattice vectors:
  
 A1 = (  30.0000000000,   0.0000000000,   0.0000000000)
 A2 = (   0.0000000000,  30.0000000000,   0.0000000000)
 A3 = (   0.0000000000,   0.0000000000,  30.0000000000)


Analysis of symmetry for initial positions (statically):
=====================================================================
 Subroutine PRICEL returns:
 Original cell was already a primitive cell.
 

 Routine SETGRP: Setting up the symmetry group for a 
 simple cubic supercell.


 Subroutine GETGRP returns: Found  1 space group operations
 (whereof  1 operations were pure point group operations)
 out of a pool of 48 trial point group operations.


The static configuration has the point symmetry C_1 .


Analysis of symmetry for dynamics (positions and initial velocities):
=====================================================================
 Subroutine PRICEL returns:
 Original cell was already a primitive cell.
 

 Routine SETGRP: Setting up the symmetry group for a 
 simple cubic supercell.


 Subroutine GETGRP returns: Found  1 space group operations
 (whereof  1 operations were pure point group operations)
 out of a pool of 48 trial point group operations.


The dynamic configuration has the point symmetry C_1 .
 
 
 KPOINTS: Mo2C                                    

Automatic generation of k-mesh.
Space group operators:
 irot       det(A)        alpha          n_x          n_y          n_z        tau_x        tau_y        tau_z
    1     1.000000     0.000000     1.000000     0.000000     0.000000     0.000000     0.000000     0.000000
 
 Subroutine IBZKPT returns following result:
 ===========================================
 
 Found      4 irreducible k-points:
 
 Following reciprocal coordinates:
            Coordinates               Weight
  0.250000  0.250000  0.250000      2.000000
 -0.250000  0.250000  0.250000      2.000000
  0.250000 -0.250000  0.250000      2.000000
 -0.250000 -0.250000  0.250000      2.000000
 
 Following cartesian coordinates:
            Coordinates               Weight
  0.008333  0.008333  0.008333      2.000000
 -0.008333  0.008333  0.008333      2.000000
  0.008333 -0.008333  0.008333      2.000000
 -0.008333 -0.008333  0.008333      2.000000
 


--------------------------------------------------------------------------------------------------------




 Dimension of arrays:
   k-points           NKPTS =      4   k-points in BZ     NKDIM =      4   number of bands    NBANDS=     12
   number of dos      NEDOS =    301   number of ions     NIONS =      6
   non local maximal  LDIM  =      4   non local SUM 2l+1 LMDIM =      8
   total plane-waves  NPLWV = ******
   max r-space proj   IRMAX =   2395   max aug-charges    IRDMAX=   1738
   dimension x,y,z NGX =   150 NGY =  150 NGZ =  150
   dimension x,y,z NGXF=   300 NGYF=  300 NGZF=  300
   support grid    NGXF=   300 NGYF=  300 NGZF=  300
   ions per type =               3   2   1
 NGX,Y,Z   is equivalent  to a cutoff of   8.31,  8.31,  8.31 a.u.
 NGXF,Y,Z  is equivalent  to a cutoff of  16.62, 16.62, 16.62 a.u.


 I would recommend the setting:
   dimension x,y,z NGX =   147 NGY =  147 NGZ =  147
 SYSTEM =  unknown system                          
 POSCAR =  H3 C2 N1                                

 Startparameter for this run:
   NWRITE =      2    write-flag & timer
   PREC   = normal    normal or accurate (medium, high low for compatibility)
   ISTART =      0    job   : 0-new  1-cont  2-samecut
   ICHARG =      2    charge: 1-file 2-atom 10-const
   ISPIN  =      1    spin polarized calculation?
   LNONCOLLINEAR =      F non collinear calculations
   LSORBIT =      F    spin-orbit coupling
   INIWAV =      1    electr: 0-lowe 1-rand  2-diag
   LASPH  =      F    aspherical Exc in radial PAW
   METAGGA=      F    non-selfconsistent MetaGGA calc.

 Electronic Relaxation 1
   ENCUT  =  400.0 eV  29.40 Ry    5.42 a.u.  48.92 48.92 48.92*2*pi/ulx,y,z
   ENINI  =  400.0     initial cutoff
   ENAUG  =  644.9 eV  augmentation charge cutoff
   NELM   =    500;   NELMIN=  6; NELMDL= -5     # of ELM steps 
   EDIFF  = 0.1E-03   stopping-criterion for ELM
   LREAL  =      T    real-space projection
   NLSPLINE    = F    spline interpolate recip. space projectors
   LCOMPAT=      F    compatible to vasp.4.4
   GGA_COMPAT  = T    GGA compatible to vasp.4.4-vasp.4.6
   LMAXPAW     = -100 max onsite density
   LMAXMIX     =    2 max onsite mixed and CHGCAR
   VOSKOWN=      0    Vosko Wilk Nusair interpolation
   ROPT   =   -0.00050  -0.00050  -0.00050
 Ionic relaxation
   EDIFFG = -.1E+00   stopping-criterion for IOM
   NSW    =    300    number of steps for IOM
   NBLOCK =      1;   KBLOCK =    300    inner block; outer block 
   IBRION =      3    ionic relax: 0-MD 1-quasi-New 2-CG
   NFREE  =      0    steps in history (QN), initial steepest desc. (CG)
   ISIF   =      2    stress and relaxation
   IWAVPR =     11    prediction:  0-non 1-charg 2-wave 3-comb
   ISYM   =      2    0-nonsym 1-usesym 2-fastsym
   LCORR  =      T    Harris-Foulkes like correction to forces

   POTIM  = 0.0000    time-step for ionic-motion
   TEIN   =    0.0    initial temperature
   TEBEG  =    0.0;   TEEND  =   0.0 temperature during run
   SMASS  =   2.00    Nose mass-parameter (am)
   estimated Nose-frequenzy (Omega)   =  0.12E+10 period in steps =  0.00 mass=   0.137E-25a.u.
   SCALEE = 1.0000    scale energy and forces
   NPACO  =    256;   APACO  = 16.0  distance and # of slots for P.C.
   PSTRESS=    0.0 pullay stress

  Mass of Ions in am
   POMASS =   1.00 12.01 14.00
  Ionic Valenz
   ZVAL   =   1.00  4.00  5.00
  Atomic Wigner-Seitz radii
   RWIGS  =  -1.00 -1.00 -1.00
  virtual crystal weights 
   VCA    =   1.00  1.00  1.00
   NELECT =      16.0000    total number of electrons
   NUPDOWN=      -1.0000    fix difference up-down

 DOS related values:
   EMIN   =  10.00;   EMAX   =-10.00  energy-range for DOS
   EFERMI =   0.00
   ISMEAR =     0;   SIGMA  =   0.20  broadening in eV -4-tet -1-fermi 0-gaus

 Electronic relaxation 2 (details)
   IALGO  =     38    algorithm
   LDIAG  =      T    sub-space diagonalisation (order eigenvalues)
   LSUBROT=      F    optimize rotation matrix (better conditioning)
   TURBO    =      0    0=normal 1=particle mesh
   IRESTART =      0    0=no restart 2=restart with 2 vectors
   NREBOOT  =      0    no. of reboots
   NMIN     =      0    reboot dimension
   EREF     =   0.00    reference energy to select bands
   IMIX   =      4    mixing-type and parameters
     AMIX     =   0.40;   BMIX     =  1.00
     AMIX_MAG =   1.60;   BMIX_MAG =  1.00
     AMIN     =   0.10
     WC   =   100.;   INIMIX=   1;  MIXPRE=   1;  MAXMIX= -45

 Intra band minimization:
   WEIMIN = 0.0010     energy-eigenvalue tresh-hold
   EBREAK =  0.21E-05  absolut break condition
   DEPER  =   0.30     relativ break condition  

   TIME   =   0.40     timestep for ELM

  volume/ion in A,a.u.               =    4500.00     30367.50
  Fermi-wavevector in a.u.,A,eV,Ry     =   0.137508  0.259852  0.257264  0.018908
  Thomas-Fermi vector in A             =   0.790710
 
 Write flags
   LWAVE  =      F    write WAVECAR
   LCHARG =      F    write CHGCAR
   LVTOT  =      F    write LOCPOT, total local potential
   LVHAR  =      F    write LOCPOT, Hartree potential only
   LELF   =      F    write electronic localiz. function (ELF)
   LORBIT =      0    0 simple, 1 ext, 2 COOP (PROOUT)


 Dipole corrections
   LMONO  =      F    monopole corrections only (constant potential shift)
   LDIPOL =      F    correct potential (dipole corrections)
   IDIPOL =      0    1-x, 2-y, 3-z, 4-all directions 
   EPSILON=  1.0000000 bulk dielectric constant

 Exchange correlation treatment:
   GGA     =    PE    GGA type
   LEXCH   =     8    internal setting for exchange type
   VOSKOWN=      0    Vosko Wilk Nusair interpolation
   LHFCALC =     F    Hartree Fock is set to
   LHFONE  =     F    Hartree Fock one center treatment
   AEXX    =    0.0000 exact exchange contribution

 Linear response parameters
   LEPSILON=     F    determine dielectric tensor
   LRPA    =     F    only Hartree local field effects (RPA)
   LNABLA  =     F    use nabla operator in PAW spheres
   LVEL    =     F    velocity operator in full k-point grid
   LINTERFAST=   F  fast interpolation
   KINTER  =     0    interpolate to denser k-point grid
   CSHIFT  =0.1000    complex shift for real part using Kramers Kronig
   OMEGAMAX=  -1.0    maximum frequency
   DEG_THRESHOLD= 0.2000000E-02 threshold for treating states as degnerate
   RTIME   =    0.100 relaxation time in fs

 Orbital magnetization related:
   ORBITALMAG=     F  switch on orbital magnetization
   LCHIMAG   =     F  perturbation theory with respect to B field
   DQ        =  0.001000  dq finite difference perturbation B field



--------------------------------------------------------------------------------------------------------


 quickmin algorithm: (dynamic with friction)
 charge density and potential will be updated during run
 non-spin polarized calculation
 Variant of blocked Davidson
 Davidson routine will perform the subspace rotation
 perform sub-space diagonalisation
    after iterative eigenvector-optimisation
 modified Broyden-mixing scheme, WC =      100.0
 initial mixing is a Kerker type mixing with AMIX =  0.4000 and BMIX =      1.0000
 Hartree-type preconditioning will be used
 using additional bands            4
 real space projection scheme for non local part
 use partial core corrections
 calculate Harris-corrections to forces 
   (improved forces if not selfconsistent)
 use gradient corrections 
 use of overlap-Matrix (Vanderbilt PP)
 Gauss-broadening in eV      SIGMA  =   0.20


--------------------------------------------------------------------------------------------------------


  energy-cutoff  :      400.00
  volume of cell :    27000.00
      direct lattice vectors                 reciprocal lattice vectors
    30.000000000  0.000000000  0.000000000     0.033333333  0.000000000  0.000000000
     0.000000000 30.000000000  0.000000000     0.000000000  0.033333333  0.000000000
     0.000000000  0.000000000 30.000000000     0.000000000  0.000000000  0.033333333

  length of vectors
    30.000000000 30.000000000 30.000000000     0.033333333  0.033333333  0.033333333


 
 k-points in units of 2pi/SCALE and weight: Mo2C                                    
   0.00833333  0.00833333  0.00833333       0.250
  -0.00833333  0.00833333  0.00833333       0.250
   0.00833333 -0.00833333  0.00833333       0.250
  -0.00833333 -0.00833333  0.00833333       0.250
 
 k-points in reciprocal lattice and weights: Mo2C                                    
   0.25000000  0.25000000  0.25000000       0.250
  -0.25000000  0.25000000  0.25000000       0.250
   0.25000000 -0.25000000  0.25000000       0.250
  -0.25000000 -0.25000000  0.25000000       0.250
 
 position of ions in fractional coordinates (direct lattice) 
   0.47424732  0.46345910  0.49791688
   0.47054570  0.51613215  0.47042239
   0.46855885  0.51336355  0.52985571
   0.48377037  0.49878636  0.49986753
   0.53204837  0.50277458  0.50098851
   0.57083830  0.50550035  0.50094262
 
 position of ions in cartesian coordinates  (Angst):
  14.22741975 13.90377287 14.93750638
  14.11637096 15.48396445 14.11267171
  14.05676556 15.40090660 15.89567115
  14.51311096 14.96359077 14.99602597
  15.96145112 15.08323744 15.02965542
  17.12514889 15.16501050 15.02827863
 


--------------------------------------------------------------------------------------------------------


 k-point  1 :   0.2500 0.2500 0.2500  plane waves:  490454
 k-point  2 :  -0.2500 0.2500 0.2500  plane waves:  490454
 k-point  3 :   0.2500-0.2500 0.2500  plane waves:  490454
 k-point  4 :  -0.2500-0.2500 0.2500  plane waves:  490454

 maximum and minimum number of plane-waves per node :    490454   490454

 maximum number of plane-waves:    490454
 maximum index in each direction: 
   IXMAX=   49   IYMAX=   49   IZMAX=   48
   IXMIN=  -49   IYMIN=  -49   IZMIN=  -49

 WARNING: aliasing errors must be expected set NGX to 198 to avoid them
 WARNING: aliasing errors must be expected set NGY to 198 to avoid them
 WARNING: aliasing errors must be expected set NGZ to 196 to avoid them
 aliasing errors are usually negligible using standard VASP settings
 and one can safely disregard these warnings

 serial   3D FFT for wavefunctions
 parallel 3D FFT for charge:
    minimum data exchange during FFTs selected (reduces bandwidth)


 total amount of memory used by VASP on root node  3203888. kBytes
========================================================================

   base      :      30000. kBytes
   nonlr-proj:        692. kBytes
   fftplans  :     924480. kBytes
   grid      :    1872000. kBytes
   one-center:         18. kBytes
   wavefun   :     376698. kBytes
 
     INWAV:  cpu time    0.0000: real time    0.0004
 Broyden mixing: mesh for mixing (old mesh)
   NGX = 97   NGY = 97   NGZ = 97
  (NGX  =300   NGY  =300   NGZ  =300)
  gives a total of 912673 points

 initial charge density was supplied:
 charge density of overlapping atoms calculated
 number of electron      16.0000000 magnetization 
 keeping initial charge density in first step


--------------------------------------------------------------------------------------------------------


 Maximum index for non-local projection operator         2267
 Maximum index for augmentation-charges         1493 (set IRDMAX)


--------------------------------------------------------------------------------------------------------


 First call to EWALD:  gamma=   0.059
 Maximum number of real-space cells 3x 3x 3
 Maximum number of reciprocal cells 3x 3x 3

 FEWALD executed in parallel
    FEWALD:  cpu time    0.0020: real time    0.0020


----------------------------------------- Iteration    1(   1)  ---------------------------------------


    POTLOK:  cpu time   20.4129: real time   20.3970
    SETDIJ:  cpu time    0.0080: real time    0.0081
     EDDAV:  cpu time   88.3086: real time   88.2350
       DOS:  cpu time    0.0000: real time    0.0003
    --------------------------------------------
      LOOP:  cpu time  108.7325: real time  108.6453

 eigenvalue-minimisations  :   160
 total energy-change (2. order) : 0.1158252E+03  (-0.2119337E+03)
 number of electron      16.0000000 magnetization 
 augmentation part       16.0000000 magnetization 

 Free energy of the ion-electron system (eV)
  ---------------------------------------------------
  alpha Z        PSCENC =         0.04144063
  Ewald energy   TEWEN  =       672.98746629
  -Hartree energ DENC   =     -1087.07546331
  -exchange      EXHF   =         0.00000000
  -V(xc)+E(xc)   XCENC  =        51.36288232
  PAW double counting   =       428.37890668     -430.73533574
  entropy T*S    EENTRO =        -0.17837791
  eigenvalues    EBANDS =      -115.12167981
  atomic energy  EATOM  =       596.16534815
  Solvation  Ediel_sol  =         0.00000000
  ---------------------------------------------------
  free energy    TOTEN  =       115.82518730 eV

  energy without entropy =      116.00356521  energy(sigma->0) =      115.91437626


--------------------------------------------------------------------------------------------------------




----------------------------------------- Iteration    1(   2)  ---------------------------------------


     EDDAV:  cpu time  105.8179: real time  105.7315
       DOS:  cpu time    0.0000: real time    0.0002
    --------------------------------------------
      LOOP:  cpu time  105.8199: real time  105.7347

 eigenvalue-minimisations  :   192
 total energy-change (2. order) :-0.1160996E+03  (-0.1134437E+03)
 number of electron      16.0000000 magnetization 
 augmentation part       16.0000000 magnetization 

 Free energy of the ion-electron system (eV)
  ---------------------------------------------------
  alpha Z        PSCENC =         0.04144063
  Ewald energy   TEWEN  =       672.98746629
  -Hartree energ DENC   =     -1087.07546331
  -exchange      EXHF   =         0.00000000
  -V(xc)+E(xc)   XCENC  =        51.36288232
  PAW double counting   =       428.37890668     -430.73533574
  entropy T*S    EENTRO =         0.00000000
  eigenvalues    EBANDS =      -231.39962324
  atomic energy  EATOM  =       596.16534815
  Solvation  Ediel_sol  =         0.00000000
  ---------------------------------------------------
  free energy    TOTEN  =        -0.27437822 eV

  energy without entropy =       -0.27437822  energy(sigma->0) =       -0.27437822


--------------------------------------------------------------------------------------------------------




----------------------------------------- Iteration    1(   3)  ---------------------------------------


     EDDAV:  cpu time   78.8730: real time   78.8086
       DOS:  cpu time    0.0000: real time    0.0002
    --------------------------------------------
      LOOP:  cpu time   78.8740: real time   78.8121

 eigenvalue-minimisations  :   128
 total energy-change (2. order) :-0.3704077E+02  (-0.3692644E+02)
 number of electron      16.0000000 magnetization 
 augmentation part       16.0000000 magnetization 

 Free energy of the ion-electron system (eV)
  ---------------------------------------------------
  alpha Z        PSCENC =         0.04144063
  Ewald energy   TEWEN  =       672.98746629
  -Hartree energ DENC   =     -1087.07546331
  -exchange      EXHF   =         0.00000000
  -V(xc)+E(xc)   XCENC  =        51.36288232
  PAW double counting   =       428.37890668     -430.73533574
  entropy T*S    EENTRO =         0.00000000
  eigenvalues    EBANDS =      -268.44039763
  atomic energy  EATOM  =       596.16534815
  Solvation  Ediel_sol  =         0.00000000
  ---------------------------------------------------
  free energy    TOTEN  =       -37.31515261 eV

  energy without entropy =      -37.31515261  energy(sigma->0) =      -37.31515261


--------------------------------------------------------------------------------------------------------




----------------------------------------- Iteration    1(   4)  ---------------------------------------


     EDDAV:  cpu time   79.5149: real time   79.4493
       DOS:  cpu time    0.0000: real time    0.0002
    --------------------------------------------
      LOOP:  cpu time   79.5149: real time   79.4524

 eigenvalue-minimisations  :   128
 total energy-change (2. order) :-0.3436285E+01  (-0.3419814E+01)
 number of electron      16.0000000 magnetization 
 augmentation part       16.0000000 magnetization 

 Free energy of the ion-electron system (eV)
  ---------------------------------------------------
  alpha Z        PSCENC =         0.04144063
  Ewald energy   TEWEN  =       672.98746629
  -Hartree energ DENC   =     -1087.07546331
  -exchange      EXHF   =         0.00000000
  -V(xc)+E(xc)   XCENC  =        51.36288232
  PAW double counting   =       428.37890668     -430.73533574
  entropy T*S    EENTRO =         0.00000000
  eigenvalues    EBANDS =      -271.87668288
  atomic energy  EATOM  =       596.16534815
  Solvation  Ediel_sol  =         0.00000000
  ---------------------------------------------------
  free energy    TOTEN  =       -40.75143786 eV

  energy without entropy =      -40.75143786  energy(sigma->0) =      -40.75143786


--------------------------------------------------------------------------------------------------------




----------------------------------------- Iteration    1(   5)  ---------------------------------------


     EDDAV:  cpu time   79.6779: real time   79.6128
       DOS:  cpu time    0.0000: real time    0.0002
    CHARGE:  cpu time    5.8021: real time    5.7979
    MIXING:  cpu time    0.6469: real time    0.6464
    --------------------------------------------
      LOOP:  cpu time   86.1279: real time   86.0603

 eigenvalue-minimisations  :   128
 total energy-change (2. order) :-0.7627791E-01  (-0.7377696E-01)
 number of electron      16.0000008 magnetization 
 augmentation part        0.5264152 magnetization 

 Broyden mixing:
  rms(total) = 0.10915E+01    rms(broyden)= 0.10907E+01
  rms(prec ) = 0.11346E+01
  weight for this iteration     100.00

 Free energy of the ion-electron system (eV)
  ---------------------------------------------------
  alpha Z        PSCENC =         0.04144063
  Ewald energy   TEWEN  =       672.98746629
  -Hartree energ DENC   =     -1087.07546331
  -exchange      EXHF   =         0.00000000
  -V(xc)+E(xc)   XCENC  =        51.36288232
  PAW double counting   =       428.37890668     -430.73533574
  entropy T*S    EENTRO =         0.00000000
  eigenvalues    EBANDS =      -271.95296079
  atomic energy  EATOM  =       596.16534815
  Solvation  Ediel_sol  =         0.00000000
  ---------------------------------------------------
  free energy    TOTEN  =       -40.82771577 eV

  energy without entropy =      -40.82771577  energy(sigma->0) =      -40.82771577


--------------------------------------------------------------------------------------------------------




----------------------------------------- Iteration    1(   6)  ---------------------------------------


    POTLOK:  cpu time   24.9102: real time   24.8902
    SETDIJ:  cpu time    0.0080: real time    0.0084
     EDDAV:  cpu time   73.6158: real time   73.5549
       DOS:  cpu time    0.0000: real time    0.0002
    CHARGE:  cpu time    5.8811: real time    5.8769
    MIXING:  cpu time    0.6739: real time    0.6735
    --------------------------------------------
      LOOP:  cpu time  105.0910: real time  105.0079

 eigenvalue-minimisations  :   116
 total energy-change (2. order) : 0.3283545E+01  (-0.6616190E+00)
 number of electron      16.0000010 magnetization 
 augmentation part        0.4536686 magnetization 

 Broyden mixing:
  rms(total) = 0.59377E+00    rms(broyden)= 0.59352E+00
  rms(prec ) = 0.60979E+00
  weight for this iteration     100.00

 eigenvalues of (default mixing * dielectric matrix)
  average eigenvalue GAMMA=   1.2615
  1.2615

 Free energy of the ion-electron system (eV)
  ---------------------------------------------------
  alpha Z        PSCENC =         0.04144063
  Ewald energy   TEWEN  =       672.98746629
  -Hartree energ DENC   =     -1119.00323626
  -exchange      EXHF   =         0.00000000
  -V(xc)+E(xc)   XCENC  =        53.15336815
  PAW double counting   =       731.40590166     -734.08969235
  entropy T*S    EENTRO =         0.00000000
  eigenvalues    EBANDS =      -238.20476706
  atomic energy  EATOM  =       596.16534815
  Solvation  Ediel_sol  =         0.00000000
  ---------------------------------------------------
  free energy    TOTEN  =       -37.54417079 eV

  energy without entropy =      -37.54417079  energy(sigma->0) =      -37.54417079


--------------------------------------------------------------------------------------------------------




----------------------------------------- Iteration    1(   7)  ---------------------------------------


    POTLOK:  cpu time   24.8622: real time   24.8421
    SETDIJ:  cpu time    0.0080: real time    0.0082
     EDDAV:  cpu time   71.1332: real time   71.0758
       DOS:  cpu time    0.0000: real time    0.0002
    CHARGE:  cpu time    5.8501: real time    5.8459
    MIXING:  cpu time    0.6829: real time    0.6816
    --------------------------------------------
      LOOP:  cpu time  102.5394: real time  102.4572

 eigenvalue-minimisations  :   112
 total energy-change (2. order) : 0.6602819E+00  (-0.1418372E+00)
 number of electron      16.0000010 magnetization 
 augmentation part        0.4555419 magnetization 

 Broyden mixing:
  rms(total) = 0.30063E+00    rms(broyden)= 0.30057E+00
  rms(prec ) = 0.30873E+00
  weight for this iteration     100.00

 eigenvalues of (default mixing * dielectric matrix)
  average eigenvalue GAMMA=   1.4458
  0.9070  1.9846

 Free energy of the ion-electron system (eV)
  ---------------------------------------------------
  alpha Z        PSCENC =         0.04144063
  Ewald energy   TEWEN  =       672.98746629
  -Hartree energ DENC   =     -1135.98951092
  -exchange      EXHF   =         0.00000000
  -V(xc)+E(xc)   XCENC  =        54.08229619
  PAW double counting   =      1037.80171210    -1040.59744276
  entropy T*S    EENTRO =         0.00000000
  eigenvalues    EBANDS =      -221.37519851
  atomic energy  EATOM  =       596.16534815
  Solvation  Ediel_sol  =         0.00000000
  ---------------------------------------------------
  free energy    TOTEN  =       -36.88388884 eV

  energy without entropy =      -36.88388884  energy(sigma->0) =      -36.88388884


--------------------------------------------------------------------------------------------------------




----------------------------------------- Iteration    1(   8)  ---------------------------------------


    POTLOK:  cpu time   24.0903: real time   24.0710
    SETDIJ:  cpu time    0.0080: real time    0.0081
     EDDAV:  cpu time   79.4799: real time   79.4143
       DOS:  cpu time    0.0000: real time    0.0002
    CHARGE:  cpu time    5.7751: real time    5.7702
    MIXING:  cpu time    0.7649: real time    0.7654
    --------------------------------------------
      LOOP:  cpu time  110.1193: real time  110.0329

 eigenvalue-minimisations  :   128
 total energy-change (2. order) : 0.1738226E+00  (-0.4170393E-01)
 number of electron      16.0000010 magnetization 
 augmentation part        0.4360936 magnetization 

 Broyden mixing:
  rms(total) = 0.10904E+00    rms(broyden)= 0.10900E+00
  rms(prec ) = 0.11355E+00
  weight for this iteration     100.00

 eigenvalues of (default mixing * dielectric matrix)
  average eigenvalue GAMMA=   1.4567
  2.1621  1.4566  0.7514

 Free energy of the ion-electron system (eV)
  ---------------------------------------------------
  alpha Z        PSCENC =         0.04144063
  Ewald energy   TEWEN  =       672.98746629
  -Hartree energ DENC   =     -1146.78871146
  -exchange      EXHF   =         0.00000000
  -V(xc)+E(xc)   XCENC  =        54.77426870
  PAW double counting   =      1293.72009812    -1296.56967362
  entropy T*S    EENTRO =         0.00000000
  eigenvalues    EBANDS =      -211.04030306
  atomic energy  EATOM  =       596.16534815
  Solvation  Ediel_sol  =         0.00000000
  ---------------------------------------------------
  free energy    TOTEN  =       -36.71006625 eV

  energy without entropy =      -36.71006625  energy(sigma->0) =      -36.71006625


--------------------------------------------------------------------------------------------------------




----------------------------------------- Iteration    1(   9)  ---------------------------------------


    POTLOK:  cpu time   24.4283: real time   24.4089
    SETDIJ:  cpu time    0.0080: real time    0.0082
     EDDAV:  cpu time   79.4459: real time   79.3798
       DOS:  cpu time    0.0000: real time    0.0002
    CHARGE:  cpu time    5.8471: real time    5.8425
    MIXING:  cpu time    0.8049: real time    0.8044
    --------------------------------------------
      LOOP:  cpu time  110.5362: real time  110.4479

 eigenvalue-minimisations  :   128
 total energy-change (2. order) : 0.2551727E-01  (-0.3428863E-02)
 number of electron      16.0000010 magnetization 
 augmentation part        0.4373344 magnetization 

 Broyden mixing:
  rms(total) = 0.33085E-01    rms(broyden)= 0.33073E-01
  rms(prec ) = 0.38835E-01
  weight for this iteration     100.00

 eigenvalues of (default mixing * dielectric matrix)
  average eigenvalue GAMMA=   1.4509
  2.2885  1.6714  0.8005  1.0431

 Free energy of the ion-electron system (eV)
  ---------------------------------------------------
  alpha Z        PSCENC =         0.04144063
  Ewald energy   TEWEN  =       672.98746629
  -Hartree energ DENC   =     -1148.57497084
  -exchange      EXHF   =         0.00000000
  -V(xc)+E(xc)   XCENC  =        54.87921880
  PAW double counting   =      1368.28172335    -1371.10249710
  entropy T*S    EENTRO =         0.00000000
  eigenvalues    EBANDS =      -209.36227825
  atomic energy  EATOM  =       596.16534815
  Solvation  Ediel_sol  =         0.00000000
  ---------------------------------------------------
  free energy    TOTEN  =       -36.68454898 eV

  energy without entropy =      -36.68454898  energy(sigma->0) =      -36.68454898


--------------------------------------------------------------------------------------------------------




----------------------------------------- Iteration    1(  10)  ---------------------------------------


    POTLOK:  cpu time   24.0333: real time   24.0142
    SETDIJ:  cpu time    0.0080: real time    0.0082
     EDDAV:  cpu time   78.9980: real time   78.9333
       DOS:  cpu time    0.0000: real time    0.0002
    CHARGE:  cpu time    5.8121: real time    5.8073
    MIXING:  cpu time    0.8219: real time    0.8220
    --------------------------------------------
      LOOP:  cpu time  109.6763: real time  109.5891

 eigenvalue-minimisations  :   128
 total energy-change (2. order) : 0.4446117E-02  (-0.4788287E-03)
 number of electron      16.0000010 magnetization 
 augmentation part        0.4382713 magnetization 

 Broyden mixing:
  rms(total) = 0.14567E-01    rms(broyden)= 0.14562E-01
  rms(prec ) = 0.21042E-01
  weight for this iteration     100.00

 eigenvalues of (default mixing * dielectric matrix)
  average eigenvalue GAMMA=   1.4615
  2.1781  2.1781  1.3357  0.8078  0.8078

 Free energy of the ion-electron system (eV)
  ---------------------------------------------------
  alpha Z        PSCENC =         0.04144063
  Ewald energy   TEWEN  =       672.98746629
  -Hartree energ DENC   =     -1149.81508445
  -exchange      EXHF   =         0.00000000
  -V(xc)+E(xc)   XCENC  =        54.91871961
  PAW double counting   =      1383.53333291    -1386.34235996
  entropy T*S    EENTRO =         0.00000000
  eigenvalues    EBANDS =      -208.16896603
  atomic energy  EATOM  =       596.16534815
  Solvation  Ediel_sol  =         0.00000000
  ---------------------------------------------------
  free energy    TOTEN  =       -36.68010286 eV

  energy without entropy =      -36.68010286  energy(sigma->0) =      -36.68010286


--------------------------------------------------------------------------------------------------------




----------------------------------------- Iteration    1(  11)  ---------------------------------------


    POTLOK:  cpu time   23.9984: real time   23.9785
    SETDIJ:  cpu time    0.0080: real time    0.0081
     EDDAV:  cpu time   78.6210: real time   78.5575
       DOS:  cpu time    0.0000: real time    0.0002
    CHARGE:  cpu time    5.8681: real time    5.8638
    MIXING:  cpu time    0.9039: real time    0.9036
    --------------------------------------------
      LOOP:  cpu time  109.4024: real time  109.3150

 eigenvalue-minimisations  :   128
 total energy-change (2. order) :-0.1176510E-02  (-0.1840953E-03)
 number of electron      16.0000010 magnetization 
 augmentation part        0.4378711 magnetization 

 Broyden mixing:
  rms(total) = 0.95427E-02    rms(broyden)= 0.95415E-02
  rms(prec ) = 0.14693E-01
  weight for this iteration     100.00

 eigenvalues of (default mixing * dielectric matrix)
  average eigenvalue GAMMA=   1.7245
  3.1808  2.4858  1.4938  1.4938  0.8462  0.8462

 Free energy of the ion-electron system (eV)
  ---------------------------------------------------
  alpha Z        PSCENC =         0.04144063
  Ewald energy   TEWEN  =       672.98746629
  -Hartree energ DENC   =     -1150.94398181
  -exchange      EXHF   =         0.00000000
  -V(xc)+E(xc)   XCENC  =        54.94450790
  PAW double counting   =      1380.51911802    -1383.32316559
  entropy T*S    EENTRO =         0.00000000
  eigenvalues    EBANDS =      -207.07201296
  atomic energy  EATOM  =       596.16534815
  Solvation  Ediel_sol  =         0.00000000
  ---------------------------------------------------
  free energy    TOTEN  =       -36.68127937 eV

  energy without entropy =      -36.68127937  energy(sigma->0) =      -36.68127937


--------------------------------------------------------------------------------------------------------




----------------------------------------- Iteration    1(  12)  ---------------------------------------


    POTLOK:  cpu time   23.3554: real time   23.3365
    SETDIJ:  cpu time    0.0080: real time    0.0082
     EDDAV:  cpu time   71.0042: real time   70.9454
       DOS:  cpu time    0.0000: real time    0.0002
    CHARGE:  cpu time    5.7711: real time    5.7668
    MIXING:  cpu time    0.9619: real time    0.9610
    --------------------------------------------
      LOOP:  cpu time  101.1016: real time  101.0218

 eigenvalue-minimisations  :   112
 total energy-change (2. order) :-0.6759195E-02  (-0.4893123E-03)
 number of electron      16.0000010 magnetization 
 augmentation part        0.4372191 magnetization 

 Broyden mixing:
  rms(total) = 0.49336E-02    rms(broyden)= 0.49260E-02
  rms(prec ) = 0.72030E-02
  weight for this iteration     100.00

 eigenvalues of (default mixing * dielectric matrix)
  average eigenvalue GAMMA=   1.7245
  3.7746  2.2603  1.8364  1.4075  0.8100  0.9092  1.0732

 Free energy of the ion-electron system (eV)
  ---------------------------------------------------
  alpha Z        PSCENC =         0.04144063
  Ewald energy   TEWEN  =       672.98746629
  -Hartree energ DENC   =     -1152.73197972
  -exchange      EXHF   =         0.00000000
  -V(xc)+E(xc)   XCENC  =        54.98121393
  PAW double counting   =      1373.81365226    -1376.61298609
  entropy T*S    EENTRO =         0.00000000
  eigenvalues    EBANDS =      -205.33219402
  atomic energy  EATOM  =       596.16534815
  Solvation  Ediel_sol  =         0.00000000
  ---------------------------------------------------
  free energy    TOTEN  =       -36.68803856 eV

  energy without entropy =      -36.68803856  energy(sigma->0) =      -36.68803856


--------------------------------------------------------------------------------------------------------




----------------------------------------- Iteration    1(  13)  ---------------------------------------


    POTLOK:  cpu time   23.6984: real time   23.6795
    SETDIJ:  cpu time    0.0080: real time    0.0082
     EDDAV:  cpu time   95.1735: real time   95.0950
       DOS:  cpu time    0.0000: real time    0.0002
    CHARGE:  cpu time    5.8571: real time    5.8522
    MIXING:  cpu time    1.0468: real time    1.0464
    --------------------------------------------
      LOOP:  cpu time  125.7849: real time  125.6852

 eigenvalue-minimisations  :   160
 total energy-change (2. order) :-0.4287667E-02  (-0.1203527E-03)
 number of electron      16.0000010 magnetization 
 augmentation part        0.4370467 magnetization 

 Broyden mixing:
  rms(total) = 0.35623E-02    rms(broyden)= 0.35596E-02
  rms(prec ) = 0.52227E-02
  weight for this iteration     100.00

 eigenvalues of (default mixing * dielectric matrix)
  average eigenvalue GAMMA=   1.7496
  4.3394  2.3760  1.5700  1.5700  1.5773  0.8741  0.8741  0.8162

 Free energy of the ion-electron system (eV)
  ---------------------------------------------------
  alpha Z        PSCENC =         0.04144063
  Ewald energy   TEWEN  =       672.98746629
  -Hartree energ DENC   =     -1153.14615819
  -exchange      EXHF   =         0.00000000
  -V(xc)+E(xc)   XCENC  =        54.98624130
  PAW double counting   =      1374.85189490    -1377.65202010
  entropy T*S    EENTRO =         0.00000000
  eigenvalues    EBANDS =      -204.92653922
  atomic energy  EATOM  =       596.16534815
  Solvation  Ediel_sol  =         0.00000000
  ---------------------------------------------------
  free energy    TOTEN  =       -36.69232623 eV

  energy without entropy =      -36.69232623  energy(sigma->0) =      -36.69232623


--------------------------------------------------------------------------------------------------------




----------------------------------------- Iteration    1(  14)  ---------------------------------------


    POTLOK:  cpu time   24.3753: real time   24.3554
    SETDIJ:  cpu time    0.0080: real time    0.0082
     EDDAV:  cpu time   79.8099: real time   79.7443
       DOS:  cpu time    0.0000: real time    0.0002
    CHARGE:  cpu time    5.8591: real time    5.8546
    MIXING:  cpu time    1.0908: real time    1.0891
    --------------------------------------------
      LOOP:  cpu time  111.1451: real time  111.0561

 eigenvalue-minimisations  :   128
 total energy-change (2. order) :-0.4290430E-02  (-0.5674474E-04)
 number of electron      16.0000010 magnetization 
 augmentation part        0.4371706 magnetization 

 Broyden mixing:
  rms(total) = 0.24292E-02    rms(broyden)= 0.24288E-02
  rms(prec ) = 0.34380E-02
  weight for this iteration     100.00

 eigenvalues of (default mixing * dielectric matrix)
  average eigenvalue GAMMA=   1.8781
  5.2170  2.8390  2.3262  1.5120  1.4345  0.8419  0.8419  0.9451  0.9451

 Free energy of the ion-electron system (eV)
  ---------------------------------------------------
  alpha Z        PSCENC =         0.04144063
  Ewald energy   TEWEN  =       672.98746629
  -Hartree energ DENC   =     -1153.31084117
  -exchange      EXHF   =         0.00000000
  -V(xc)+E(xc)   XCENC  =        54.97793818
  PAW double counting   =      1372.94273619    -1375.74261901
  entropy T*S    EENTRO =         0.00000000
  eigenvalues    EBANDS =      -204.75808592
  atomic energy  EATOM  =       596.16534815
  Solvation  Ediel_sol  =         0.00000000
  ---------------------------------------------------
  free energy    TOTEN  =       -36.69661666 eV

  energy without entropy =      -36.69661666  energy(sigma->0) =      -36.69661666


--------------------------------------------------------------------------------------------------------




----------------------------------------- Iteration    1(  15)  ---------------------------------------


    POTLOK:  cpu time   23.8434: real time   23.8248
    SETDIJ:  cpu time    0.0080: real time    0.0081
     EDDAV:  cpu time   79.8329: real time   79.7666
       DOS:  cpu time    0.0000: real time    0.0002
    CHARGE:  cpu time    5.9551: real time    5.9503
    MIXING:  cpu time    1.1848: real time    1.1844
    --------------------------------------------
      LOOP:  cpu time  110.8252: real time  110.7377

 eigenvalue-minimisations  :   128
 total energy-change (2. order) :-0.3028117E-02  (-0.2912835E-04)
 number of electron      16.0000010 magnetization 
 augmentation part        0.4371082 magnetization 

 Broyden mixing:
  rms(total) = 0.14988E-02    rms(broyden)= 0.14986E-02
  rms(prec ) = 0.20858E-02
  weight for this iteration     100.00

 eigenvalues of (default mixing * dielectric matrix)
  average eigenvalue GAMMA=   1.9907
  6.1538  3.1560  2.2988  1.6295  1.5231  1.5231  0.8317  0.8648  0.9633  0.9633

 Free energy of the ion-electron system (eV)
  ---------------------------------------------------
  alpha Z        PSCENC =         0.04144063
  Ewald energy   TEWEN  =       672.98746629
  -Hartree energ DENC   =     -1153.41818972
  -exchange      EXHF   =         0.00000000
  -V(xc)+E(xc)   XCENC  =        54.97370816
  PAW double counting   =      1372.84343125    -1375.64398081
  entropy T*S    EENTRO =         0.00000000
  eigenvalues    EBANDS =      -204.64886874
  atomic energy  EATOM  =       596.16534815
  Solvation  Ediel_sol  =         0.00000000
  ---------------------------------------------------
  free energy    TOTEN  =       -36.69964478 eV

  energy without entropy =      -36.69964478  energy(sigma->0) =      -36.69964478


--------------------------------------------------------------------------------------------------------




----------------------------------------- Iteration    1(  16)  ---------------------------------------


    POTLOK:  cpu time   24.1173: real time   24.0978
    SETDIJ:  cpu time    0.0090: real time    0.0083
     EDDAV:  cpu time   80.2088: real time   80.1428
       DOS:  cpu time    0.0000: real time    0.0002
    CHARGE:  cpu time    6.0371: real time    6.0332
    MIXING:  cpu time    1.1588: real time    1.1567
    --------------------------------------------
      LOOP:  cpu time  111.5320: real time  111.4428

 eigenvalue-minimisations  :   128
 total energy-change (2. order) :-0.2225786E-02  (-0.2613190E-04)
 number of electron      16.0000010 magnetization 
 augmentation part        0.4369919 magnetization 

 Broyden mixing:
  rms(total) = 0.10655E-02    rms(broyden)= 0.10644E-02
  rms(prec ) = 0.13203E-02
  weight for this iteration     100.00

 eigenvalues of (default mixing * dielectric matrix)
  average eigenvalue GAMMA=   2.1165
  7.2107  3.6800  2.4327  2.2666  1.4788  1.3028  1.3028  0.8263  0.8663  0.9571
  0.9571

 Free energy of the ion-electron system (eV)
  ---------------------------------------------------
  alpha Z        PSCENC =         0.04144063
  Ewald energy   TEWEN  =       672.98746629
  -Hartree energ DENC   =     -1153.47885031
  -exchange      EXHF   =         0.00000000
  -V(xc)+E(xc)   XCENC  =        54.97091279
  PAW double counting   =      1373.12922239    -1375.92967289
  entropy T*S    EENTRO =         0.00000000
  eigenvalues    EBANDS =      -204.58773761
  atomic energy  EATOM  =       596.16534815
  Solvation  Ediel_sol  =         0.00000000
  ---------------------------------------------------
  free energy    TOTEN  =       -36.70187056 eV

  energy without entropy =      -36.70187056  energy(sigma->0) =      -36.70187056


--------------------------------------------------------------------------------------------------------




----------------------------------------- Iteration    1(  17)  ---------------------------------------


    POTLOK:  cpu time   24.0763: real time   24.0579
    SETDIJ:  cpu time    0.0090: real time    0.0081
     EDDAV:  cpu time   64.5712: real time   64.5185
       DOS:  cpu time    0.0000: real time    0.0002
    CHARGE:  cpu time    5.8531: real time    5.8492
    MIXING:  cpu time    1.3058: real time    1.3043
    --------------------------------------------
      LOOP:  cpu time   95.8174: real time   95.9236

 eigenvalue-minimisations  :    96
 total energy-change (2. order) :-0.9432017E-03  (-0.4670968E-05)
 number of electron      16.0000010 magnetization 
 augmentation part        0.4370396 magnetization 

 Broyden mixing:
  rms(total) = 0.39652E-03    rms(broyden)= 0.39643E-03
  rms(prec ) = 0.56834E-03
  weight for this iteration     100.00

 eigenvalues of (default mixing * dielectric matrix)
  average eigenvalue GAMMA=   2.1609
  7.7839  4.0587  2.5725  1.9914  1.9914  1.3453  1.3453  0.8235  0.8798  0.9915
  1.0736  1.0736

 Free energy of the ion-electron system (eV)
  ---------------------------------------------------
  alpha Z        PSCENC =         0.04144063
  Ewald energy   TEWEN  =       672.98746629
  -Hartree energ DENC   =     -1153.47905387
  -exchange      EXHF   =         0.00000000
  -V(xc)+E(xc)   XCENC  =        54.96834864
  PAW double counting   =      1373.57428393    -1376.37442673
  entropy T*S    EENTRO =         0.00000000
  eigenvalues    EBANDS =      -204.58622081
  atomic energy  EATOM  =       596.16534815
  Solvation  Ediel_sol  =         0.00000000
  ---------------------------------------------------
  free energy    TOTEN  =       -36.70281377 eV

  energy without entropy =      -36.70281377  energy(sigma->0) =      -36.70281377


--------------------------------------------------------------------------------------------------------




----------------------------------------- Iteration    1(  18)  ---------------------------------------


    POTLOK:  cpu time   23.9234: real time   23.9050
    SETDIJ:  cpu time    0.0090: real time    0.0083
     EDDAV:  cpu time   56.6284: real time   56.5822
       DOS:  cpu time    0.0000: real time    0.0002
    CHARGE:  cpu time    6.0031: real time    5.9985
    MIXING:  cpu time    1.4558: real time    1.4547
    --------------------------------------------
      LOOP:  cpu time   88.0216: real time   87.9521

 eigenvalue-minimisations  :    80
 total energy-change (2. order) :-0.4657027E-03  (-0.2765779E-05)
 number of electron      16.0000010 magnetization 
 augmentation part        0.4370270 magnetization 

 Broyden mixing:
  rms(total) = 0.29367E-03    rms(broyden)= 0.29360E-03
  rms(prec ) = 0.38106E-03
  weight for this iteration     100.00

 eigenvalues of (default mixing * dielectric matrix)
  average eigenvalue GAMMA=   2.2624
  8.2974  4.7901  2.8841  2.5876  2.0700  1.5507  1.3058  1.3058  0.8223  0.8965
  0.9248  0.9882  0.9882

 Free energy of the ion-electron system (eV)
  ---------------------------------------------------
  alpha Z        PSCENC =         0.04144063
  Ewald energy   TEWEN  =       672.98746629
  -Hartree energ DENC   =     -1153.48232172
  -exchange      EXHF   =         0.00000000
  -V(xc)+E(xc)   XCENC  =        54.96789879
  PAW double counting   =      1373.54198675    -1376.34222892
  entropy T*S    EENTRO =         0.00000000
  eigenvalues    EBANDS =      -204.58286944
  atomic energy  EATOM  =       596.16534815
  Solvation  Ediel_sol  =         0.00000000
  ---------------------------------------------------
  free energy    TOTEN  =       -36.70327947 eV

  energy without entropy =      -36.70327947  energy(sigma->0) =      -36.70327947


--------------------------------------------------------------------------------------------------------




----------------------------------------- Iteration    1(  19)  ---------------------------------------


    POTLOK:  cpu time   24.9032: real time   24.8829
    SETDIJ:  cpu time    0.0080: real time    0.0083
     EDDAV:  cpu time   52.1661: real time   52.1224
       DOS:  cpu time    0.0000: real time    0.0002
    CHARGE:  cpu time    5.8761: real time    5.8721
    MIXING:  cpu time    1.4008: real time    1.4005
    --------------------------------------------
      LOOP:  cpu time   84.3562: real time   84.2903

 eigenvalue-minimisations  :    72
 total energy-change (2. order) :-0.2662404E-03  (-0.1290149E-05)
 number of electron      16.0000010 magnetization 
 augmentation part        0.4370211 magnetization 

 Broyden mixing:
  rms(total) = 0.16063E-03    rms(broyden)= 0.16051E-03
  rms(prec ) = 0.20133E-03
  weight for this iteration     100.00

 eigenvalues of (default mixing * dielectric matrix)
  average eigenvalue GAMMA=   2.2915
  8.5607  5.1447  3.2279  2.3033  2.3033  1.9399  1.4341  1.2722  1.2722  0.9944
  0.9944  0.8235  0.8850  0.9253

 Free energy of the ion-electron system (eV)
  ---------------------------------------------------
  alpha Z        PSCENC =         0.04144063
  Ewald energy   TEWEN  =       672.98746629
  -Hartree energ DENC   =     -1153.47635132
  -exchange      EXHF   =         0.00000000
  -V(xc)+E(xc)   XCENC  =        54.96727728
  PAW double counting   =      1373.30607399    -1376.10626465
  entropy T*S    EENTRO =         0.00000000
  eigenvalues    EBANDS =      -204.58853608
  atomic energy  EATOM  =       596.16534815
  Solvation  Ediel_sol  =         0.00000000
  ---------------------------------------------------
  free energy    TOTEN  =       -36.70354571 eV

  energy without entropy =      -36.70354571  energy(sigma->0) =      -36.70354571


--------------------------------------------------------------------------------------------------------




----------------------------------------- Iteration    1(  20)  ---------------------------------------


    POTLOK:  cpu time   24.5673: real time   24.5482
    SETDIJ:  cpu time    0.0090: real time    0.0083
     EDDAV:  cpu time   63.5923: real time   63.5409
       DOS:  cpu time    0.0000: real time    0.0002
    CHARGE:  cpu time    6.0091: real time    6.0046
    MIXING:  cpu time    1.3638: real time    1.3626
    --------------------------------------------
      LOOP:  cpu time   95.5445: real time   95.4683

 eigenvalue-minimisations  :    96
 total energy-change (2. order) :-0.1085467E-03  (-0.3407573E-06)
 number of electron      16.0000010 magnetization 
 augmentation part        0.4370228 magnetization 

 Broyden mixing:
  rms(total) = 0.15346E-03    rms(broyden)= 0.15344E-03
  rms(prec ) = 0.17091E-03
  weight for this iteration     100.00

 eigenvalues of (default mixing * dielectric matrix)
  average eigenvalue GAMMA=   2.3290
  8.7402  5.7036  3.4622  2.5744  2.5744  2.0652  1.5940  1.3045  1.3045  1.0130
  1.0130  0.8238  0.8758  0.9430  0.9430

 Free energy of the ion-electron system (eV)
  ---------------------------------------------------
  alpha Z        PSCENC =         0.04144063
  Ewald energy   TEWEN  =       672.98746629
  -Hartree energ DENC   =     -1153.48028503
  -exchange      EXHF   =         0.00000000
  -V(xc)+E(xc)   XCENC  =        54.96725238
  PAW double counting   =      1373.34997190    -1376.15016213
  entropy T*S    EENTRO =         0.00000000
  eigenvalues    EBANDS =      -204.58468644
  atomic energy  EATOM  =       596.16534815
  Solvation  Ediel_sol  =         0.00000000
  ---------------------------------------------------
  free energy    TOTEN  =       -36.70365426 eV

  energy without entropy =      -36.70365426  energy(sigma->0) =      -36.70365426


--------------------------------------------------------------------------------------------------------




----------------------------------------- Iteration    1(  21)  ---------------------------------------


    POTLOK:  cpu time   22.6076: real time   22.5895
    SETDIJ:  cpu time    0.0080: real time    0.0081
     EDDAV:  cpu time   45.3181: real time   45.2805
       DOS:  cpu time    0.0000: real time    0.0002
    --------------------------------------------
      LOOP:  cpu time   67.9357: real time   67.8817

 eigenvalue-minimisations  :    64
 total energy-change (2. order) :-0.4659901E-04  (-0.1326918E-06)
 number of electron      16.0000010 magnetization 
 augmentation part        0.4370228 magnetization 

 Free energy of the ion-electron system (eV)
  ---------------------------------------------------
  alpha Z        PSCENC =         0.04144063
  Ewald energy   TEWEN  =       672.98746629
  -Hartree energ DENC   =     -1153.48109319
  -exchange      EXHF   =         0.00000000
  -V(xc)+E(xc)   XCENC  =        54.96714798
  PAW double counting   =      1373.34872410    -1376.14895193
  entropy T*S    EENTRO =         0.00000000
  eigenvalues    EBANDS =      -204.58378289
  atomic energy  EATOM  =       596.16534815
  Solvation  Ediel_sol  =         0.00000000
  ---------------------------------------------------
  free energy    TOTEN  =       -36.70370086 eV

  energy without entropy =      -36.70370086  energy(sigma->0) =      -36.70370086


--------------------------------------------------------------------------------------------------------




 average (electrostatic) potential at core
  the test charge radii are     0.5201  0.6991  0.7089
  (the norm of the test charge is              1.0000)
       1 -43.1697       2 -43.1693       3 -43.1676       4 -60.0787       5 -60.0730
       6 -73.2259
 
 
 
 E-fermi :  -7.1126     XC(G=0):  -0.0876     alpha+bet : -0.0137


 k-point     1 :       0.2500    0.2500    0.2500
  band No.  band energies     occupation 
      1     -22.5252      2.00000
      2     -19.3760      2.00000
      3     -12.8308      2.00000
      4     -11.4738      2.00000
      5     -11.4624      2.00000
      6      -8.4947      2.00000
      7      -8.0681      2.00000
      8      -8.0609      2.00000
      9      -0.8392      0.00000
     10      -0.4748      0.00000
     11      -0.4648      0.00000
     12      -0.0093      0.00000

 k-point     2 :      -0.2500    0.2500    0.2500
  band No.  band energies     occupation 
      1     -22.5252      2.00000
      2     -19.3760      2.00000
      3     -12.8308      2.00000
      4     -11.4738      2.00000
      5     -11.4624      2.00000
      6      -8.4947      2.00000
      7      -8.0681      2.00000
      8      -8.0610      2.00000
      9      -0.8392      0.00000
     10      -0.4748      0.00000
     11      -0.4648      0.00000
     12      -0.0091      0.00000

 k-point     3 :       0.2500   -0.2500    0.2500
  band No.  band energies     occupation 
      1     -22.5252      2.00000
      2     -19.3760      2.00000
      3     -12.8308      2.00000
      4     -11.4738      2.00000
      5     -11.4624      2.00000
      6      -8.4947      2.00000
      7      -8.0681      2.00000
      8      -8.0610      2.00000
      9      -0.8392      0.00000
     10      -0.4748      0.00000
     11      -0.4648      0.00000
     12      -0.0093      0.00000

 k-point     4 :      -0.2500   -0.2500    0.2500
  band No.  band energies     occupation 
      1     -22.5252      2.00000
      2     -19.3760      2.00000
      3     -12.8308      2.00000
      4     -11.4738      2.00000
      5     -11.4624      2.00000
      6      -8.4947      2.00000
      7      -8.0681      2.00000
      8      -8.0610      2.00000
      9      -0.8392      0.00000
     10      -0.4748      0.00000
     11      -0.4648      0.00000
     12      -0.0092      0.00000


--------------------------------------------------------------------------------------------------------


 soft charge-density along one line, spin component           1
         0         1         2         3         4         5         6         7         8         9
 total charge-density along one line
 
 pseudopotential strength for first ion, spin component:           1
 -2.364  -4.078  -0.002   0.000   0.000
 -4.078  -6.948  -0.005   0.000  -0.002
 -0.002  -0.005  -0.329   0.000   0.001
  0.000   0.000   0.000  -0.334   0.000
  0.000  -0.002   0.001   0.000  -0.333
 total augmentation occupancy for first ion, spin component:           1
  3.480  -0.627   0.421   0.023   0.116
 -0.627   0.129  -0.078  -0.004  -0.021
  0.421  -0.078   0.052   0.002   0.012
  0.023  -0.004   0.002   0.009   0.001
  0.116  -0.021   0.012   0.001   0.011


------------------------ aborting loop because EDIFF is reached ----------------------------------------


    CHARGE:  cpu time    5.6701: real time    5.6656
    FORLOC:  cpu time    2.8966: real time    2.8943
    FORNL :  cpu time   18.1452: real time   18.1313
    STRESS:  cpu time   56.2305: real time   56.1833
    FORCOR:  cpu time   24.1793: real time   24.1587
    FORHAR:  cpu time    8.3657: real time    8.3590
    MIXING:  cpu time    1.4198: real time    1.4193
    OFIELD:  cpu time    0.0000: real time    0.0000

  FORCE on cell =-STRESS in cart. coord.  units (eV):
  Direction    XX          YY          ZZ          XY          YZ          ZX
  --------------------------------------------------------------------------------------
  Alpha Z     0.04144     0.04144     0.04144
  Ewald     596.93312    39.66009    36.39400    42.04635     0.25906     4.89802
  Hartree   585.45089   284.91882   283.11209    23.06765     0.22118     3.55934
  E(xc)     -58.96784   -60.31574   -60.32318     0.09822    -0.00006     0.00424
  Local   -1325.00130  -497.29516  -492.36789   -63.00522    -0.48674    -8.53016
  n-local   -28.22118   -24.81570   -24.79093    -0.22831     0.00887     0.03257
  augment     0.41029     0.39542     0.39273     0.00298    -0.00052     0.00486
  Kinetic   228.41073   256.47137   256.60057    -1.95105     0.00530     0.09410
  Fock        0.00000     0.00000     0.00000     0.00000     0.00000     0.00000
  -------------------------------------------------------------------------------------
  Total      -0.94385    -0.93946    -0.94118     0.03063     0.00710     0.06298
  in kB      -0.05601    -0.05575    -0.05585     0.00182     0.00042     0.00374
  external pressure =       -0.06 kB  Pullay stress =        0.00 kB


 VOLUME and BASIS-vectors are now :
 -----------------------------------------------------------------------------
  energy-cutoff  :      400.00
  volume of cell :    27000.00
      direct lattice vectors                 reciprocal lattice vectors
    30.000000000  0.000000000  0.000000000     0.033333333  0.000000000  0.000000000
     0.000000000 30.000000000  0.000000000     0.000000000  0.033333333  0.000000000
     0.000000000  0.000000000 30.000000000     0.000000000  0.000000000  0.033333333

  length of vectors
    30.000000000 30.000000000 30.000000000     0.033333333  0.033333333  0.033333333


 FORCES acting on ions
    electron-ion (+dipol)            ewald-force                    non-local-force                 convergence-correction
 -----------------------------------------------------------------------------------------------
   0.275E+02 0.585E+02 0.335E+01   -.290E+02 -.639E+02 -.365E+01   0.149E+01 0.539E+01 0.298E+00   0.853E-04 0.684E-04 0.790E-05
   0.336E+02 -.273E+02 0.482E+02   -.356E+02 0.300E+02 -.527E+02   0.205E+01 -.264E+01 0.449E+01   0.854E-04 -.291E-04 0.521E-04
   0.363E+02 -.227E+02 -.485E+02   -.386E+02 0.250E+02 0.531E+02   0.237E+01 -.221E+01 -.456E+01   0.897E-04 -.256E-04 -.462E-04
   0.965E+02 0.738E+01 0.111E+01   -.101E+03 -.774E+01 -.119E+01   0.448E+01 0.350E+00 0.675E-01   0.548E-03 -.150E-04 0.354E-04
   0.665E+02 0.285E+01 -.369E+01   -.687E+02 -.295E+01 0.379E+01   0.212E+01 0.876E-01 -.131E+00   -.993E-03 -.951E-04 -.400E-05
   -.232E+03 -.168E+02 -.734E+00   0.273E+03 0.197E+02 0.647E+00   -.405E+02 -.280E+01 0.122E+00   -.398E-03 -.291E-04 0.131E-04
 -----------------------------------------------------------------------------------------------
   0.279E+02 0.183E+01 -.291E+00   -.568E-13 -.107E-13 -.422E-14   -.279E+02 -.183E+01 0.283E+00   -.583E-03 -.125E-03 0.583E-04
 
 
 POSITION                                       TOTAL-FORCE (eV/Angst)
 -----------------------------------------------------------------------------------
     14.22742     13.90377     14.93751        -0.022801     -0.000784     -0.000025
     14.11637     15.48396     14.11267        -0.023043     -0.003856      0.003178
     14.05677     15.40091     15.89567         0.048514      0.003461      0.001694
     14.51311     14.96359     14.99603         0.005278     -0.008135     -0.013422
     15.96145     15.08324     15.02966        -0.022139     -0.012245     -0.027419
     17.12515     15.16501     15.02828         0.014192      0.021559      0.035995
 -----------------------------------------------------------------------------------
    total drift:                                0.001915      0.003308     -0.008451


--------------------------------------------------------------------------------------------------------



  FREE ENERGIE OF THE ION-ELECTRON SYSTEM (eV)
  ---------------------------------------------------
  free  energy   TOTEN  =       -36.70370086 eV

  energy  without entropy=      -36.70370086  energy(sigma->0) =      -36.70370086
 


--------------------------------------------------------------------------------------------------------


    POTLOK:  cpu time   20.9708: real time   20.9533


--------------------------------------------------------------------------------------------------------


 NEB: the previous image is higher in energy: T
 NEB: the next image is higher in energy    : F
 NEB: only prev energy greater

 NEB: Tangent
 ----------------------------------------------
     -0.12706      0.16420      0.15139
      0.34142      0.01118     -0.25915
     -0.32795      0.39295     -0.20545
     -0.01420      0.14657      0.02813
      0.03016     -0.14759      0.26195
      0.09752     -0.56758      0.02261

 NEB: forces: par spring, perp REAL, dneb     0.030053    0.074722    0.000000
 NEB: distance to prev, next image, angle between     0.359068    0.365079  121.440331
 NEB: projections on to tangent (spring, REAL)     0.030053   -0.038594

 stress matrix after NEB project (eV)
     -0.94385      0.03063      0.06298
      0.03063     -0.93946      0.00710
      0.06298      0.00710     -0.94118
  FORCES: max atom, RMS     0.046356    0.032880
  FORCE total and by dimension    0.080539    0.037547
  Stress total and by dimension    1.633760    0.943853
 
 OPT: Flag T
 OPT: FIRE Step
 OPT: FIRE, TIMESTEP      0.10000
 OPT: FIRE, alpha         0.10000


--------------------------------------------------------------------------------------------------------


    WAVPRE:  cpu time    9.8305: real time    9.8231
 FEWALD executed in parallel
    FEWALD:  cpu time    0.0000: real time    0.0004
    ORTHCH:  cpu time    6.7960: real time    6.7891
     LOOP+:  cpu time 2410.8355: real time 2409.1035


----------------------------------------- Iteration    2(   1)  ---------------------------------------


    POTLOK:  cpu time   28.2627: real time   28.2407
    SETDIJ:  cpu time    0.0090: real time    0.0085
     EDDAV:  cpu time   79.8499: real time   79.7852
       DOS:  cpu time    0.0000: real time    0.0002
    CHARGE:  cpu time    6.0061: real time    6.0014
    MIXING:  cpu time    0.6859: real time    0.6849
    --------------------------------------------
      LOOP:  cpu time  114.8165: real time  114.7233

 eigenvalue-minimisations  :   120
 total energy-change (2. order) :-0.1033340E-03  (-0.1282337E-03)
 number of electron      16.0000010 magnetization 
 augmentation part        0.4368526 magnetization 

 Broyden mixing:
  rms(total) = 0.96247E-03    rms(broyden)= 0.95817E-03
  rms(prec ) = 0.98125E-03
  weight for this iteration     100.00

 Free energy of the ion-electron system (eV)
  ---------------------------------------------------
  alpha Z        PSCENC =         0.04144063
  Ewald energy   TEWEN  =       672.92426564
  -Hartree energ DENC   =     -1153.44484593
  -exchange      EXHF   =         0.00000000
  -V(xc)+E(xc)   XCENC  =        54.96597233
  PAW double counting   =      1373.32796146    -1376.12818607
  entropy T*S    EENTRO =         0.00000000
  eigenvalues    EBANDS =      -204.55571380
  atomic energy  EATOM  =       596.16534815
  Solvation  Ediel_sol  =         0.00000000
  ---------------------------------------------------
  free energy    TOTEN  =       -36.70375759 eV

  energy without entropy =      -36.70375759  energy(sigma->0) =      -36.70375759


--------------------------------------------------------------------------------------------------------




----------------------------------------- Iteration    2(   2)  ---------------------------------------


    POTLOK:  cpu time   23.9594: real time   23.9403
    SETDIJ:  cpu time    0.0090: real time    0.0084
     EDDAV:  cpu time   63.9723: real time   63.9198
       DOS:  cpu time    0.0000: real time    0.0002
    CHARGE:  cpu time    6.0831: real time    6.0786
    MIXING:  cpu time    0.6869: real time    0.6862
    --------------------------------------------
      LOOP:  cpu time   94.7116: real time   94.6370

 eigenvalue-minimisations  :    92
 total energy-change (2. order) :-0.5579531E-05  (-0.1752002E-05)
 number of electron      16.0000010 magnetization 
 augmentation part        0.4368711 magnetization 

 Broyden mixing:
  rms(total) = 0.60033E-03    rms(broyden)= 0.59959E-03
  rms(prec ) = 0.61159E-03
  weight for this iteration     100.00

 eigenvalues of (default mixing * dielectric matrix)
  average eigenvalue GAMMA=   1.2792
  1.2792

 Free energy of the ion-electron system (eV)
  ---------------------------------------------------
  alpha Z        PSCENC =         0.04144063
  Ewald energy   TEWEN  =       672.92426564
  -Hartree energ DENC   =     -1153.43314896
  -exchange      EXHF   =         0.00000000
  -V(xc)+E(xc)   XCENC  =        54.96521887
  PAW double counting   =      1373.13577710    -1375.93576828
  entropy T*S    EENTRO =         0.00000000
  eigenvalues    EBANDS =      -204.56689632
  atomic energy  EATOM  =       596.16534815
  Solvation  Ediel_sol  =         0.00000000
  ---------------------------------------------------
  free energy    TOTEN  =       -36.70376317 eV

  energy without entropy =      -36.70376317  energy(sigma->0) =      -36.70376317


--------------------------------------------------------------------------------------------------------




----------------------------------------- Iteration    2(   3)  ---------------------------------------


    POTLOK:  cpu time   24.4423: real time   24.4230
[...]
  ---------------------------------------------------
  free energy    TOTEN  =       -36.70501942 eV

  energy without entropy =      -36.70501942  energy(sigma->0) =      -36.70501942


--------------------------------------------------------------------------------------------------------




----------------------------------------- Iteration  135(   2)  ---------------------------------------


    POTLOK:  cpu time   29.6295: real time   29.6049
    SETDIJ:  cpu time    0.0080: real time    0.0083
     EDDAV:  cpu time   45.4421: real time   45.4059
       DOS:  cpu time    0.0000: real time    0.0002
    CHARGE:  cpu time    6.8290: real time    6.8233
    MIXING:  cpu time    0.7339: real time    0.7338
    --------------------------------------------
      LOOP:  cpu time   82.6434: real time   82.5795

 eigenvalue-minimisations  :    48
 total energy-change (2. order) :-0.1456885E-07  (-0.1911922E-07)
 number of electron      16.0000019 magnetization 
 augmentation part        0.4370071 magnetization 

 Broyden mixing:
  rms(total) = 0.24906E-04    rms(broyden)= 0.24882E-04
  rms(prec ) = 0.25298E-04
  weight for this iteration     100.00

 eigenvalues of (default mixing * dielectric matrix)
  average eigenvalue GAMMA=   1.2104
  1.2104

 Free energy of the ion-electron system (eV)
  ---------------------------------------------------
  alpha Z        PSCENC =         0.04144063
  Ewald energy   TEWEN  =       672.99973789
  -Hartree energ DENC   =     -1153.49285106
  -exchange      EXHF   =         0.00000000
  -V(xc)+E(xc)   XCENC  =        54.96747162
  PAW double counting   =      1373.38651160    -1376.18666426
  entropy T*S    EENTRO =         0.00000000
  eigenvalues    EBANDS =      -204.58601400
  atomic energy  EATOM  =       596.16534815
  Solvation  Ediel_sol  =         0.00000000
  ---------------------------------------------------
  free energy    TOTEN  =       -36.70501943 eV

  energy without entropy =      -36.70501943  energy(sigma->0) =      -36.70501943


--------------------------------------------------------------------------------------------------------




----------------------------------------- Iteration  135(   3)  ---------------------------------------


    POTLOK:  cpu time   27.0759: real time   27.0537
    SETDIJ:  cpu time    0.0090: real time    0.0086
     EDDAV:  cpu time   45.1841: real time   45.1470
       DOS:  cpu time    0.0000: real time    0.0002
    CHARGE:  cpu time    6.4420: real time    6.4376
    MIXING:  cpu time    0.7439: real time    0.7431
    --------------------------------------------
      LOOP:  cpu time   79.4559: real time   79.3940

 eigenvalue-minimisations  :    48
 total energy-change (2. order) :-0.1240323E-08  (-0.3225680E-08)
 number of electron      16.0000019 magnetization 
 augmentation part        0.4370072 magnetization 

 Broyden mixing:
  rms(total) = 0.14311E-04    rms(broyden)= 0.14306E-04
  rms(prec ) = 0.14621E-04
  weight for this iteration     100.00

 eigenvalues of (default mixing * dielectric matrix)
  average eigenvalue GAMMA=   1.6806
  0.9807  2.3805

 Free energy of the ion-electron system (eV)
  ---------------------------------------------------
  alpha Z        PSCENC =         0.04144063
  Ewald energy   TEWEN  =       672.99973789
  -Hartree energ DENC   =     -1153.49271646
  -exchange      EXHF   =         0.00000000
  -V(xc)+E(xc)   XCENC  =        54.96746408
  PAW double counting   =      1373.38360017    -1376.18374972
  entropy T*S    EENTRO =         0.00000000
  eigenvalues    EBANDS =      -204.58614417
  atomic energy  EATOM  =       596.16534815
  Solvation  Ediel_sol  =         0.00000000
  ---------------------------------------------------
  free energy    TOTEN  =       -36.70501943 eV

  energy without entropy =      -36.70501943  energy(sigma->0) =      -36.70501943


--------------------------------------------------------------------------------------------------------




----------------------------------------- Iteration  135(   4)  ---------------------------------------


    POTLOK:  cpu time   27.8158: real time   27.7927
    SETDIJ:  cpu time    0.0080: real time    0.0083
     EDDAV:  cpu time   45.2451: real time   45.2094
       DOS:  cpu time    0.0000: real time    0.0002
    CHARGE:  cpu time    6.4480: real time    6.4434
    MIXING:  cpu time    0.7759: real time    0.7740
    --------------------------------------------
      LOOP:  cpu time   80.2948: real time   80.2316

 eigenvalue-minimisations  :    48
 total energy-change (2. order) : 0.1518856E-09  (-0.1757797E-08)
 number of electron      16.0000019 magnetization 
 augmentation part        0.4370071 magnetization 

 Broyden mixing:
  rms(total) = 0.34740E-05    rms(broyden)= 0.34686E-05
  rms(prec ) = 0.35594E-05
  weight for this iteration     100.00

 eigenvalues of (default mixing * dielectric matrix)
  average eigenvalue GAMMA=   1.4500
  2.1727  0.9221  1.2553

 Free energy of the ion-electron system (eV)
  ---------------------------------------------------
  alpha Z        PSCENC =         0.04144063
  Ewald energy   TEWEN  =       672.99973789
  -Hartree energ DENC   =     -1153.49256644
  -exchange      EXHF   =         0.00000000
  -V(xc)+E(xc)   XCENC  =        54.96745670
  PAW double counting   =      1373.37970356    -1376.17984998
  entropy T*S    EENTRO =         0.00000000
  eigenvalues    EBANDS =      -204.58628995
  atomic energy  EATOM  =       596.16534815
  Solvation  Ediel_sol  =         0.00000000
  ---------------------------------------------------
  free energy    TOTEN  =       -36.70501943 eV

  energy without entropy =      -36.70501943  energy(sigma->0) =      -36.70501943


--------------------------------------------------------------------------------------------------------




----------------------------------------- Iteration  135(   5)  ---------------------------------------


    POTLOK:  cpu time   28.6726: real time   28.6500
    SETDIJ:  cpu time    0.0080: real time    0.0083
     EDDAV:  cpu time   43.7953: real time   43.7593
       DOS:  cpu time    0.0000: real time    0.0002
    CHARGE:  cpu time    6.4480: real time    6.4434
    MIXING:  cpu time    0.8779: real time    0.8779
    --------------------------------------------
      LOOP:  cpu time   79.8039: real time   79.7426

 eigenvalue-minimisations  :    48
 total energy-change (2. order) :-0.5093170E-09  (-0.1398718E-08)
 number of electron      16.0000019 magnetization 
 augmentation part        0.4370073 magnetization 

 Broyden mixing:
  rms(total) = 0.31502E-05    rms(broyden)= 0.31484E-05
  rms(prec ) = 0.32338E-05
  weight for this iteration     100.00

 eigenvalues of (default mixing * dielectric matrix)
  average eigenvalue GAMMA=   1.4449
  2.0345  2.0345  1.0239  0.6865

 Free energy of the ion-electron system (eV)
  ---------------------------------------------------
  alpha Z        PSCENC =         0.04144063
  Ewald energy   TEWEN  =       672.99973789
  -Hartree energ DENC   =     -1153.49257052
  -exchange      EXHF   =         0.00000000
  -V(xc)+E(xc)   XCENC  =        54.96745698
  PAW double counting   =      1373.37932401    -1376.17947061
  entropy T*S    EENTRO =         0.00000000
  eigenvalues    EBANDS =      -204.58628597
  atomic energy  EATOM  =       596.16534815
  Solvation  Ediel_sol  =         0.00000000
  ---------------------------------------------------
  free energy    TOTEN  =       -36.70501943 eV

  energy without entropy =      -36.70501943  energy(sigma->0) =      -36.70501943


--------------------------------------------------------------------------------------------------------




----------------------------------------- Iteration  135(   6)  ---------------------------------------


    POTLOK:  cpu time   27.1719: real time   27.1505
    SETDIJ:  cpu time    0.0090: real time    0.0086
     EDDAV:  cpu time   43.5564: real time   43.5211
       DOS:  cpu time    0.0000: real time    0.0002
    --------------------------------------------
      LOOP:  cpu time   70.7402: real time   70.6837

 eigenvalue-minimisations  :    48
 total energy-change (2. order) :-0.1816716E-09  (-0.1287186E-08)
 number of electron      16.0000019 magnetization 
 augmentation part        0.4370073 magnetization 

 Free energy of the ion-electron system (eV)
  ---------------------------------------------------
  alpha Z        PSCENC =         0.04144063
  Ewald energy   TEWEN  =       672.99973789
  -Hartree energ DENC   =     -1153.49257707
  -exchange      EXHF   =         0.00000000
  -V(xc)+E(xc)   XCENC  =        54.96745767
  PAW double counting   =      1373.37889337    -1376.17904021
  entropy T*S    EENTRO =         0.00000000
  eigenvalues    EBANDS =      -204.58627986
  atomic energy  EATOM  =       596.16534815
  Solvation  Ediel_sol  =         0.00000000
  ---------------------------------------------------
  free energy    TOTEN  =       -36.70501943 eV

  energy without entropy =      -36.70501943  energy(sigma->0) =      -36.70501943


--------------------------------------------------------------------------------------------------------




 average (electrostatic) potential at core
  the test charge radii are     0.5201  0.6991  0.7089
  (the norm of the test charge is              1.0000)
       1 -43.1701       2 -43.1701       3 -43.1699       4 -60.0788       5 -60.0729
       6 -73.2255
 
 
 
 E-fermi :  -7.0926     XC(G=0):  -0.0607     alpha+bet : -0.0137


 k-point     1 :       0.2500    0.2500    0.2500
  band No.  band energies     occupation 
      1     -22.5234      2.00000
      2     -19.3779      2.00000
      3     -12.8314      2.00000
      4     -11.4700      2.00000
      5     -11.4691      2.00000
      6      -8.4942      2.00000
      7      -8.0636      2.00000
      8      -8.0635      2.00000
      9      -0.8360      0.00000
     10      -0.4708      0.00000
     11      -0.4706      0.00000
     12       0.0204      0.00000

 k-point     2 :      -0.2500    0.2500    0.2500
  band No.  band energies     occupation 
      1     -22.5234      2.00000
      2     -19.3779      2.00000
      3     -12.8314      2.00000
      4     -11.4700      2.00000
      5     -11.4691      2.00000
      6      -8.4942      2.00000
      7      -8.0636      2.00000
      8      -8.0635      2.00000
      9      -0.8360      0.00000
     10      -0.4708      0.00000
     11      -0.4706      0.00000
     12       0.0203      0.00000

 k-point     3 :       0.2500   -0.2500    0.2500
  band No.  band energies     occupation 
      1     -22.5234      2.00000
      2     -19.3779      2.00000
      3     -12.8314      2.00000
      4     -11.4700      2.00000
      5     -11.4691      2.00000
      6      -8.4942      2.00000
      7      -8.0636      2.00000
      8      -8.0636      2.00000
      9      -0.8360      0.00000
     10      -0.4708      0.00000
     11      -0.4705      0.00000
     12       0.0204      0.00000

 k-point     4 :      -0.2500   -0.2500    0.2500
  band No.  band energies     occupation 
      1     -22.5234      2.00000
      2     -19.3779      2.00000
      3     -12.8314      2.00000
      4     -11.4700      2.00000
      5     -11.4691      2.00000
      6      -8.4942      2.00000
      7      -8.0636      2.00000
      8      -8.0636      2.00000
      9      -0.8360      0.00000
     10      -0.4708      0.00000
     11      -0.4706      0.00000
     12       0.0204      0.00000


--------------------------------------------------------------------------------------------------------


 soft charge-density along one line, spin component           1
         0         1         2         3         4         5         6         7         8         9
 total charge-density along one line
 
 pseudopotential strength for first ion, spin component:           1
 -2.364  -4.078  -0.002   0.000  -0.001
 -4.078  -6.948  -0.005   0.000  -0.002
 -0.002  -0.005  -0.329   0.000   0.001
  0.000   0.000   0.000  -0.334   0.000
 -0.001  -0.002   0.001   0.000  -0.333
 total augmentation occupancy for first ion, spin component:           1
  3.480  -0.627   0.420   0.018   0.122
 -0.627   0.129  -0.077  -0.003  -0.022
  0.420  -0.077   0.052   0.002   0.013
  0.018  -0.003   0.002   0.009   0.001
  0.122  -0.022   0.013   0.001   0.011


------------------------ aborting loop because EDIFF is reached ----------------------------------------


    CHARGE:  cpu time    6.4630: real time    6.4586
    FORLOC:  cpu time    2.8996: real time    2.8972
    FORNL :  cpu time   19.6570: real time   19.6402
    STRESS:  cpu time   59.4290: real time   59.3807
    FORCOR:  cpu time   23.7414: real time   23.7212
    FORHAR:  cpu time    8.6147: real time    8.6083
    MIXING:  cpu time    0.7959: real time    0.7949
    OFIELD:  cpu time    0.0000: real time    0.0000

  FORCE on cell =-STRESS in cart. coord.  units (eV):
  Direction    XX          YY          ZZ          XY          YZ          ZX
  --------------------------------------------------------------------------------------
  Alpha Z     0.04144     0.04144     0.04144
  Ewald     596.61156    39.75387    36.63406    43.18844     0.84596    11.07802
  Hartree   585.37256   284.90130   283.21869    23.20890     0.45822     5.96958
  E(xc)     -58.96979   -60.31522   -60.32275     0.10491     0.00202     0.02673
  Local   -1324.66010  -497.33371  -492.69856   -64.05622    -1.25986   -16.45313
  n-local   -28.21384   -24.81862   -24.79576    -0.26615    -0.00445    -0.06650
  augment     0.41030     0.39454     0.39337     0.00122     0.00009     0.00040
  Kinetic   228.46517   256.43332   256.59086    -2.18302    -0.04082    -0.55301
  Fock        0.00000     0.00000     0.00000     0.00000     0.00000     0.00000
  -------------------------------------------------------------------------------------
  Total      -0.94270    -0.94308    -0.93865    -0.00193     0.00115     0.00209
  in kB      -0.05594    -0.05596    -0.05570    -0.00011     0.00007     0.00012
  external pressure =       -0.06 kB  Pullay stress =        0.00 kB


 VOLUME and BASIS-vectors are now :
 -----------------------------------------------------------------------------
  energy-cutoff  :      400.00
  volume of cell :    27000.00
      direct lattice vectors                 reciprocal lattice vectors
    30.000000000  0.000000000  0.000000000     0.033333333  0.000000000  0.000000000
     0.000000000 30.000000000  0.000000000     0.000000000  0.033333333  0.000000000
     0.000000000  0.000000000 30.000000000     0.000000000  0.000000000  0.033333333

  length of vectors
    30.000000000 30.000000000 30.000000000     0.033333333  0.033333333  0.033333333


 FORCES acting on ions
    electron-ion (+dipol)            ewald-force                    non-local-force                 convergence-correction
 -----------------------------------------------------------------------------------------------
   0.282E+02 0.582E+02 0.275E+01   -.297E+02 -.636E+02 -.298E+01   0.157E+01 0.537E+01 0.235E+00   0.636E-06 0.163E-05 0.516E-06
   0.338E+02 -.273E+02 0.480E+02   -.359E+02 0.299E+02 -.525E+02   0.209E+01 -.263E+01 0.447E+01   0.198E-06 -.919E-06 0.235E-05
   0.355E+02 -.235E+02 -.488E+02   -.377E+02 0.258E+02 0.534E+02   0.225E+01 -.228E+01 -.459E+01   0.126E-05 -.471E-06 -.587E-06
   0.965E+02 0.747E+01 0.192E+01   -.101E+03 -.781E+01 -.201E+01   0.448E+01 0.346E+00 0.888E-01   -.825E-06 -.218E-06 0.451E-05
   0.662E+02 0.516E+01 0.125E+01   -.683E+02 -.533E+01 -.129E+01   0.212E+01 0.166E+00 0.373E-01   -.896E-05 -.116E-04 0.348E-04
   -.232E+03 -.180E+02 -.459E+01   0.273E+03 0.211E+02 0.539E+01   -.404E+02 -.313E+01 -.800E+00   -.674E-05 -.182E-04 0.598E-04
 -----------------------------------------------------------------------------------------------
   0.279E+02 0.216E+01 0.545E+00   0.568E-13 0.711E-14 -.266E-14   -.279E+02 -.216E+01 -.555E+00   -.144E-04 -.298E-04 0.101E-03
 
 
 POSITION                                       TOTAL-FORCE (eV/Angst)
 -----------------------------------------------------------------------------------
     14.21298     13.90598     14.94401         0.000799     -0.000597      0.000709
     14.10878     15.48155     14.10981        -0.001738     -0.000562      0.001354
     14.07796     15.41190     15.89407         0.001095     -0.001057      0.001240
     14.51333     14.96238     14.99028        -0.000307     -0.000468      0.000485
     15.96211     15.07429     15.01935         0.002707      0.001080     -0.001307
     17.12510     15.16437     15.04228        -0.002557      0.001604     -0.002481
 -----------------------------------------------------------------------------------
    total drift:                                0.000323      0.004728     -0.009647


--------------------------------------------------------------------------------------------------------



  FREE ENERGIE OF THE ION-ELECTRON SYSTEM (eV)
  ---------------------------------------------------
  free  energy   TOTEN  =       -36.70501943 eV

  energy  without entropy=      -36.70501943  energy(sigma->0) =      -36.70501943
 
 d Force = 0.1631922E-06[ 0.156E-06, 0.170E-06]  d Energy = 0.1624768E-06 0.715E-09
 d Force = 0.1110714E-02[ 0.111E-02, 0.111E-02]  d Ewald  = 0.1110714E-02-0.638E-10


--------------------------------------------------------------------------------------------------------


    POTLOK:  cpu time   23.5764: real time   23.5572


--------------------------------------------------------------------------------------------------------


 NEB: the previous image is higher in energy: T
 NEB: the next image is higher in energy    : T
 NEB: image is at an extrema
 NEB: diff energy (min, max):     0.000331    0.008013

 NEB: Tangent
 ----------------------------------------------
     -0.21893      0.17856      0.17490
      0.30049      0.02644     -0.25613
     -0.17795      0.44866     -0.20766
     -0.01467      0.14077     -0.00987
      0.03028     -0.21386      0.17940
      0.08070     -0.58079      0.11879

 NEB: forces: par spring, perp REAL, dneb     0.008132    0.004660    0.000000
 NEB: distance to prev, next image, angle between     0.348578    0.346951  129.600384
 NEB: projections on to tangent (spring, REAL)    -0.008132   -0.003851

 stress matrix after NEB project (eV)
     -0.94270     -0.00193      0.00209
     -0.00193     -0.94308      0.00115
      0.00209      0.00115     -0.93865
  FORCES: max atom, RMS     0.005839    0.003826
  FORCE total and by dimension    0.009373    0.004091
  Stress total and by dimension    1.630698    0.943083
 OPT: skip step - force has converged


--------------------------------------------------------------------------------------------------------


  
 reached required accuracy - stopping structural energy minimisation
     LOOP+:  cpu time  680.7835: real time  680.2580
    4ORBIT:  cpu time    0.0000: real time    0.0000

 total amount of memory used by VASP on root node  3203888. kBytes
========================================================================

   base      :      30000. kBytes
   nonlr-proj:        692. kBytes
   fftplans  :     924480. kBytes
   grid      :    1872000. kBytes
   one-center:         18. kBytes
   wavefun   :     376698. kBytes
 
  
  
 General timing and accounting informations for this job:
 ========================================================
  
                  Total CPU time used (sec):    97158.898
                            User time (sec):    95648.192
                          System time (sec):     1510.706
                         Elapsed time (sec):    97129.284
  
                   Maximum memory used (kb):     4765672.
                   Average memory used (kb):           0.
  
                          Minor page faults:    114776960
                          Major page faults:            8
                 Voluntary context switches:        15835
