unknown system                          
           1
    30.000000    0.000000    0.000000
     0.000000   30.000000    0.000000
     0.000000    0.000000   30.000000
   H    C    N 
   3   2   1
Direct configuration=     1
   0.47423682  0.46346259  0.49792034
   0.47054583  0.51613112  0.47041752
   0.46856752  0.51337370  0.52985157
   0.48377180  0.49878700  0.49986370
   0.53204168  0.50276712  0.50098537
   0.57084526  0.50549455  0.50095514
Direct configuration=     2
   0.47421595  0.46346928  0.49792712
   0.47054583  0.51612905  0.47040802
   0.46858475  0.51339358  0.52984340
   0.48377193  0.49878820  0.49985605
   0.53204856  0.50275386  0.50097917
   0.57084188  0.50548211  0.50097985
Direct configuration=     3
   0.47418537  0.46347846  0.49793678
   0.47054478  0.51612600  0.47039474
   0.46861167  0.51342193  0.52983180
   0.48377251  0.49878994  0.49984455
   0.53205269  0.50273388  0.50096928
   0.57084188  0.50546585  0.50101641
Direct configuration=     4
   0.47414643  0.46348922  0.49794878
   0.47054155  0.51612205  0.47037902
   0.46864912  0.51345677  0.52981797
   0.48377376  0.49879171  0.49982840
   0.53204758  0.50270777  0.50095533
   0.57085045  0.50544851  0.50106403
Direct configuration=     5
   0.47410069  0.46350064  0.49796230
   0.47053470  0.51611758  0.47036170
   0.46869713  0.51349569  0.52980291
   0.48377286  0.49879287  0.49980856
   0.53205941  0.50267840  0.50093694
   0.57084409  0.50543084  0.50112108
Direct configuration=     6
   0.47405019  0.46351165  0.49797624
   0.47052241  0.51611305  0.47034376
   0.46875665  0.51353584  0.52978817
   0.48377455  0.49879229  0.49978604
   0.53205402  0.50264494  0.50091317
   0.57085105  0.50541822  0.50118605
Direct configuration=     7
   0.47399043  0.46352262  0.49799128
   0.47050106  0.51610823  0.47032434
   0.46883539  0.51357936  0.52977367
   0.48377469  0.49878802  0.49975852
   0.53206493  0.50260724  0.50088076
   0.57084236  0.50541049  0.50126482
Direct configuration=     8
   0.47392335  0.46353171  0.49800638
   0.47046869  0.51610278  0.47030617
   0.46893495  0.51362313  0.52976192
   0.48377853  0.49877964  0.49972462
   0.53204766  0.50256379  0.50083817
   0.57085567  0.50541490  0.50135607
Direct configuration=     9
   0.47385122  0.46353792  0.49802098
   0.47042654  0.51609635  0.47029055
   0.46905006  0.51366508  0.52975295
   0.48377181  0.49876810  0.49968565
   0.53210708  0.50252385  0.50078913
   0.57080214  0.50542462  0.50145404
Direct configuration=    10
   0.47385126  0.46353706  0.49802062
   0.47042470  0.51609631  0.47029138
   0.46905293  0.51366390  0.52975389
   0.48377775  0.49876789  0.49968535
   0.53205969  0.50252047  0.50078669
   0.57084251  0.50543029  0.50145539
Direct configuration=    11
   0.47385117  0.46353691  0.49802057
   0.47042427  0.51609628  0.47029152
   0.46905350  0.51366370  0.52975405
   0.48377758  0.49876774  0.49968524
   0.53206095  0.50252057  0.50078636
   0.57084138  0.50543071  0.50145555
Direct configuration=    12
   0.47385098  0.46353661  0.49802049
   0.47042340  0.51609623  0.47029183
   0.46905466  0.51366331  0.52975439
   0.48377727  0.49876744  0.49968502
   0.53206311  0.50252074  0.50078570
   0.57083944  0.50543159  0.50145588
Direct configuration=    13
   0.47385069  0.46353615  0.49802035
   0.47042205  0.51609615  0.47029229
   0.46905645  0.51366270  0.52975491
   0.48377691  0.49876698  0.49968468
   0.53206546  0.50252093  0.50078465
   0.57083730  0.50543302  0.50145641
Direct configuration=    14
   0.47385031  0.46353553  0.49802018
   0.47042024  0.51609605  0.47029292
   0.46905885  0.51366188  0.52975562
   0.48377663  0.49876637  0.49968422
   0.53206712  0.50252107  0.50078323
   0.57083570  0.50543503  0.50145714
Direct configuration=    15
   0.47384986  0.46353479  0.49801996
   0.47041806  0.51609592  0.47029368
   0.46906175  0.51366090  0.52975648
   0.48377650  0.49876563  0.49968367
   0.53206756  0.50252113  0.50078147
   0.57083511  0.50543756  0.50145804
Direct configuration=    16
   0.47384935  0.46353395  0.49801972
   0.47041557  0.51609578  0.47029455
   0.46906509  0.51365978  0.52975748
   0.48377655  0.49876479  0.49968303
   0.53206674  0.50252109  0.50077943
   0.57083556  0.50544054  0.50145909
Direct configuration=    17
   0.47384869  0.46353291  0.49801943
   0.47041243  0.51609560  0.47029562
   0.46906929  0.51365841  0.52975875
   0.48377675  0.49876373  0.49968222
   0.53206476  0.50252096  0.50077685
   0.57083694  0.50544432  0.50146043
Direct configuration=    18
   0.47384780  0.46353162  0.49801909
   0.47040841  0.51609536  0.47029698
   0.46907464  0.51365671  0.52976039
   0.48377704  0.49876238  0.49968112
   0.53206247  0.50252078  0.50077357
   0.57083849  0.50544908  0.50146216
Direct configuration=    19
   0.47384663  0.46353008  0.49801873
   0.47040345  0.51609505  0.47029861
   0.46908121  0.51365470  0.52976240
   0.48377722  0.49876069  0.49967970
   0.53206161  0.50252066  0.50076958
   0.57083873  0.50545474  0.50146429
Direct configuration=    20
   0.47384513  0.46352834  0.49801837
   0.47039754  0.51609470  0.47030050
   0.46908906  0.51365246  0.52976477
   0.48377711  0.49875854  0.49967798
   0.53206313  0.50252067  0.50076486
   0.57083687  0.50546122  0.50146684
Direct configuration=    21
   0.47384316  0.46352638  0.49801805
   0.47039042  0.51609426  0.47030268
   0.46909860  0.51364996  0.52976755
   0.48377683  0.49875585  0.49967592
   0.53206618  0.50252067  0.50075917
   0.57083367  0.50546881  0.50146995
Direct configuration=    22
   0.47384064  0.46352416  0.49801781
   0.47038209  0.51609371  0.47030514
   0.46910992  0.51364728  0.52977070
   0.48377690  0.49875276  0.49967354
   0.53206673  0.50252031  0.50075240
   0.57083257  0.50547770  0.50147373
Direct configuration=    23
   0.47383747  0.46352173  0.49801775
   0.47037266  0.51609300  0.47030785
   0.46912300  0.51364457  0.52977409
   0.48377745  0.49874948  0.49967089
   0.53206377  0.50251941  0.50074457
   0.57083451  0.50548775  0.50147818
Direct configuration=    24
   0.47383320  0.46351914  0.49801810
   0.47036206  0.51609199  0.47031073
   0.46913813  0.51364218  0.52977758
   0.48377770  0.49874619  0.49966788
   0.53206350  0.50251816  0.50073566
   0.57083427  0.50549827  0.50148339
Direct configuration=    25
   0.47382780  0.46351673  0.49801907
   0.47035080  0.51609066  0.47031361
   0.46915474  0.51364055  0.52978099
   0.48377741  0.49874294  0.49966441
   0.53206763  0.50251661  0.50072609
   0.57083048  0.50550844  0.50148916
Direct configuration=    26
   0.47382765  0.46351680  0.49801918
   0.47035077  0.51609062  0.47031357
   0.46915488  0.51364071  0.52978096
   0.48377752  0.49874296  0.49966437
   0.53206689  0.50251646  0.50072601
   0.57083115  0.50550839  0.50148924
Direct configuration=    27
   0.47382735  0.46351693  0.49801940
   0.47035071  0.51609054  0.47031351
   0.46915516  0.51364103  0.52978091
   0.48377770  0.49874299  0.49966429
   0.53206570  0.50251617  0.50072585
   0.57083222  0.50550828  0.50148938
Direct configuration=    28
   0.47382686  0.46351715  0.49801975
   0.47035060  0.51609041  0.47031340
   0.46915563  0.51364154  0.52978082
   0.48377788  0.49874304  0.49966415
   0.53206466  0.50251576  0.50072560
   0.57083321  0.50550804  0.50148960
Direct configuration=    29
   0.47382683  0.46351716  0.49801978
   0.47035059  0.51609040  0.47031340
   0.46915567  0.51364157  0.52978081
   0.48377787  0.49874304  0.49966414
   0.53206477  0.50251575  0.50072559
   0.57083313  0.50550802  0.50148961
Direct configuration=    30
   0.47382676  0.46351719  0.49801983
   0.47035057  0.51609038  0.47031339
   0.46915574  0.51364164  0.52978080
   0.48377785  0.49874304  0.49966413
   0.53206498  0.50251572  0.50072555
   0.57083296  0.50550797  0.50148964
Direct configuration=    31
   0.47382665  0.46351723  0.49801990
   0.47035053  0.51609035  0.47031337
   0.46915585  0.51364174  0.52978078
   0.48377782  0.49874304  0.49966410
   0.53206526  0.50251567  0.50072550
   0.57083274  0.50550790  0.50148967
Direct configuration=    32
   0.47382651  0.46351728  0.49802000
   0.47035047  0.51609031  0.47031335
   0.46915601  0.51364187  0.52978076
   0.48377779  0.49874304  0.49966406
   0.53206559  0.50251561  0.50072542
   0.57083248  0.50550783  0.50148972
Direct configuration=    33
   0.47382632  0.46351735  0.49802013
   0.47035039  0.51609025  0.47031334
   0.46915623  0.51364203  0.52978074
   0.48377776  0.49874305  0.49966402
   0.53206593  0.50251552  0.50072531
   0.57083222  0.50550774  0.50148979
Direct configuration=    34
   0.47382611  0.46351742  0.49802028
   0.47035029  0.51609019  0.47031332
   0.46915649  0.51364221  0.52978072
   0.48377774  0.49874304  0.49966397
   0.53206622  0.50251541  0.50072517
   0.57083200  0.50550766  0.50148987
Direct configuration=    35
   0.47382583  0.46351751  0.49802047
   0.47035014  0.51609010  0.47031331
   0.46915685  0.51364243  0.52978070
   0.48377774  0.49874304  0.49966390
   0.53206644  0.50251527  0.50072497
   0.57083185  0.50550759  0.50148997
Direct configuration=    36
   0.47382549  0.46351762  0.49802071
   0.47034997  0.51609000  0.47031329
   0.46915729  0.51364272  0.52978068
   0.48377776  0.49874304  0.49966381
   0.53206655  0.50251507  0.50072473
   0.57083180  0.50550749  0.50149011
Direct configuration=    37
   0.47382506  0.46351777  0.49802102
   0.47034979  0.51608988  0.47031323
   0.46915780  0.51364312  0.52978062
   0.48377779  0.49874305  0.49966371
   0.53206651  0.50251479  0.50072446
   0.57083190  0.50550733  0.50149028
Direct configuration=    38
   0.47382449  0.46351798  0.49802143
   0.47034964  0.51608974  0.47031311
   0.46915837  0.51364369  0.52978051
   0.48377786  0.49874311  0.49966360
   0.53206633  0.50251440  0.50072416
   0.57083216  0.50550701  0.50149052
Direct configuration=    39
   0.47382375  0.46351830  0.49802198
   0.47034957  0.51608958  0.47031286
   0.46915899  0.51364452  0.52978030
   0.48377793  0.49874322  0.49966346
   0.53206607  0.50251386  0.50072388
   0.57083255  0.50550644  0.50149083
Direct configuration=    40
   0.47382275  0.46351877  0.49802273
   0.47034965  0.51608940  0.47031243
   0.46915961  0.51364575  0.52977995
   0.48377800  0.49874343  0.49966330
   0.53206586  0.50251313  0.50072365
   0.57083298  0.50550545  0.50149126
Direct configuration=    41
   0.47382146  0.46351941  0.49802372
   0.47034990  0.51608920  0.47031178
   0.46916025  0.51364746  0.52977941
   0.48377804  0.49874375  0.49966311
   0.53206586  0.50251216  0.50072347
   0.57083334  0.50550395  0.50149183
Direct configuration=    42
   0.47381980  0.46352026  0.49802500
   0.47035036  0.51608897  0.47031086
   0.46916093  0.51364973  0.52977866
   0.48377803  0.49874420  0.49966288
   0.53206624  0.50251092  0.50072337
   0.57083349  0.50550184  0.50149254
Direct configuration=    43
   0.47381771  0.46352136  0.49802664
   0.47035105  0.51608869  0.47030965
   0.46916169  0.51365269  0.52977765
   0.48377797  0.49874482  0.49966261
   0.53206696  0.50250936  0.50072332
   0.57083347  0.50549900  0.50149345
Direct configuration=    44
   0.47381509  0.46352276  0.49802871
   0.47035199  0.51608836  0.47030810
   0.46916260  0.51365647  0.52977635
   0.48377792  0.49874563  0.49966228
   0.53206765  0.50250733  0.50072330
   0.57083361  0.50549539  0.50149457
Direct configuration=    45
   0.47381188  0.46352448  0.49803127
   0.47035317  0.51608794  0.47030621
   0.46916377  0.51366114  0.52977473
   0.48377792  0.49874664  0.49966187
   0.53206783  0.50250473  0.50072326
   0.57083428  0.50549099  0.50149595
Direct configuration=    46
   0.47380798  0.46352657  0.49803442
   0.47035454  0.51608740  0.47030402
   0.46916539  0.51366682  0.52977278
   0.48377798  0.49874784  0.49966136
   0.53206763  0.50250151  0.50072311
   0.57083532  0.50548577  0.50149761
Direct configuration=    47
   0.47380333  0.46352902  0.49803823
   0.47035595  0.51608669  0.47030160
   0.46916776  0.51367352  0.52977054
   0.48377795  0.49874915  0.49966071
   0.53206820  0.50249775  0.50072268
   0.57083566  0.50547978  0.50149953
Direct configuration=    48
   0.47379788  0.46353175  0.49804276
   0.47035711  0.51608575  0.47029914
   0.46917136  0.51368115  0.52976815
   0.48377787  0.49875043  0.49965990
   0.53206921  0.50249347  0.50072164
   0.57083541  0.50547337  0.50150167
Direct configuration=    49
   0.47379188  0.46353449  0.49804785
   0.47035765  0.51608458  0.47029689
   0.46917645  0.51368924  0.52976592
   0.48377803  0.49875151  0.49965896
   0.53206846  0.50248876  0.50071972
   0.57083637  0.50546733  0.50150392
Direct configuration=    50
   0.47378547  0.46353694  0.49805338
   0.47035711  0.51608316  0.47029513
   0.46918337  0.51369736  0.52976417
   0.48377801  0.49875219  0.49965791
   0.53206902  0.50248410  0.50071664
   0.57083586  0.50546215  0.50150602
Direct configuration=    51
   0.47377890  0.46353874  0.49805924
   0.47035497  0.51608147  0.47029410
   0.46919241  0.51370502  0.52976332
   0.48377799  0.49875232  0.49965676
   0.53206915  0.50247965  0.50071208
   0.57083542  0.50545869  0.50150773
Direct configuration=    52
   0.47377238  0.46353963  0.49806535
   0.47035091  0.51607952  0.47029398
   0.46920359  0.51371185  0.52976373
   0.48377799  0.49875183  0.49965557
   0.53206825  0.50247557  0.50070588
   0.57083572  0.50545748  0.50150873
Direct configuration=    53
   0.47376602  0.46353963  0.49807179
   0.47034482  0.51607729  0.47029474
   0.46921658  0.51371778  0.52976552
   0.48377745  0.49875070  0.49965440
   0.53207061  0.50247221  0.50069820
   0.57083336  0.50545827  0.50150856
Direct configuration=    54
   0.47376608  0.46353953  0.49807187
   0.47034454  0.51607724  0.47029486
   0.46921678  0.51371765  0.52976573
   0.48377763  0.49875065  0.49965444
   0.53206919  0.50247217  0.50069798
   0.57083462  0.50545864  0.50150834
Direct configuration=    55
   0.47376613  0.46353937  0.49807213
   0.47034402  0.51607713  0.47029504
   0.46921712  0.51371754  0.52976611
   0.48377780  0.49875058  0.49965453
   0.53206775  0.50247213  0.50069758
   0.57083602  0.50545914  0.50150782
Direct configuration=    56
   0.47376611  0.46353938  0.49807218
   0.47034400  0.51607711  0.47029503
   0.46921713  0.51371757  0.52976612
   0.48377775  0.49875058  0.49965454
   0.53206806  0.50247214  0.50069757
   0.57083578  0.50545909  0.50150777
Direct configuration=    57
   0.47376605  0.46353941  0.49807229
   0.47034399  0.51607709  0.47029499
   0.46921714  0.51371769  0.52976612
   0.48377767  0.49875061  0.49965456
   0.53206862  0.50247213  0.50069757
   0.57083537  0.50545895  0.50150768
Direct configuration=    58
   0.47376595  0.46353946  0.49807247
   0.47034399  0.51607706  0.47029492
   0.46921714  0.51371788  0.52976613
   0.48377758  0.49875065  0.49965458
   0.53206930  0.50247210  0.50069757
   0.57083489  0.50545872  0.50150755
Direct configuration=    59
   0.47376582  0.46353952  0.49807272
   0.47034396  0.51607701  0.47029483
   0.46921715  0.51371815  0.52976614
   0.48377749  0.49875072  0.49965462
   0.53206988  0.50247203  0.50069754
   0.57083453  0.50545845  0.50150735
Direct configuration=    60
   0.47376582  0.46353952  0.49807274
   0.47034396  0.51607701  0.47029483
   0.46921716  0.51371815  0.52976615
   0.48377749  0.49875072  0.49965463
   0.53206985  0.50247203  0.50069754
   0.57083456  0.50545845  0.50150733
Direct configuration=    61
   0.47376581  0.46353952  0.49807276
   0.47034394  0.51607700  0.47029483
   0.46921717  0.51371816  0.52976616
   0.48377750  0.49875072  0.49965463
   0.53206978  0.50247202  0.50069752
   0.57083463  0.50545846  0.50150731
Direct configuration=    62
   0.47376581  0.46353952  0.49807278
   0.47034391  0.51607699  0.47029484
   0.46921719  0.51371817  0.52976617
   0.48377751  0.49875072  0.49965464
   0.53206969  0.50247201  0.50069750
   0.57083472  0.50545847  0.50150727
Direct configuration=    63
   0.47376580  0.46353951  0.49807282
   0.47034388  0.51607698  0.47029485
   0.46921722  0.51371818  0.52976620
   0.48377753  0.49875072  0.49965465
   0.53206958  0.50247200  0.50069747
   0.57083483  0.50545849  0.50150722
Direct configuration=    64
   0.47376580  0.46353951  0.49807287
   0.47034383  0.51607696  0.47029487
   0.46921726  0.51371819  0.52976623
   0.48377754  0.49875072  0.49965466
   0.53206945  0.50247199  0.50069742
   0.57083496  0.50545852  0.50150716
Direct configuration=    65
   0.47376579  0.46353950  0.49807293
   0.47034377  0.51607694  0.47029489
   0.46921731  0.51371820  0.52976627
   0.48377756  0.49875072  0.49965468
   0.53206932  0.50247198  0.50069737
   0.57083509  0.50545855  0.50150707
Direct configuration=    66
   0.47376578  0.46353949  0.49807300
   0.47034368  0.51607690  0.47029492
   0.46921737  0.51371821  0.52976633
   0.48377758  0.49875072  0.49965470
   0.53206919  0.50247197  0.50069730
   0.57083523  0.50545859  0.50150696
Direct configuration=    67
   0.47376577  0.46353947  0.49807310
   0.47034357  0.51607686  0.47029495
   0.46921746  0.51371822  0.52976640
   0.48377759  0.49875072  0.49965472
   0.53206909  0.50247196  0.50069721
   0.57083536  0.50545865  0.50150681
Direct configuration=    68
   0.47376576  0.46353945  0.49807323
   0.47034344  0.51607681  0.47029500
   0.46921756  0.51371824  0.52976649
   0.48377760  0.49875071  0.49965476
   0.53206902  0.50247196  0.50069710
   0.57083546  0.50545871  0.50150663
Direct configuration=    69
   0.47376574  0.46353943  0.49807338
   0.47034327  0.51607675  0.47029506
   0.46921769  0.51371826  0.52976660
   0.48377760  0.49875070  0.49965480
   0.53206902  0.50247196  0.50069696
   0.57083551  0.50545878  0.50150640
Direct configuration=    70
   0.47376572  0.46353941  0.49807357
   0.47034307  0.51607667  0.47029514
   0.46921785  0.51371829  0.52976673
   0.48377758  0.49875069  0.49965485
   0.53206910  0.50247196  0.50069680
   0.57083551  0.50545886  0.50150612
Direct configuration=    71
   0.47376570  0.46353938  0.49807380
   0.47034282  0.51607658  0.47029523
   0.46921804  0.51371833  0.52976688
   0.48377756  0.49875068  0.49965491
   0.53206927  0.50247197  0.50069660
   0.57083544  0.50545894  0.50150578
Direct configuration=    72
   0.47376566  0.46353935  0.49807409
   0.47034253  0.51607646  0.47029534
   0.46921828  0.51371838  0.52976707
   0.48377753  0.49875067  0.49965498
   0.53206950  0.50247199  0.50069636
   0.57083533  0.50545904  0.50150536
Direct configuration=    73
   0.47376562  0.46353932  0.49807445
   0.47034217  0.51607631  0.47029548
   0.46921857  0.51371845  0.52976730
   0.48377751  0.49875066  0.49965508
   0.53206974  0.50247200  0.50069607
   0.57083524  0.50545914  0.50150483
Direct configuration=    74
   0.47376556  0.46353929  0.49807490
   0.47034174  0.51607613  0.47029565
   0.46921892  0.51371856  0.52976756
   0.48377749  0.49875064  0.49965520
   0.53206988  0.50247200  0.50069571
   0.57083524  0.50545926  0.50150419
Direct configuration=    75
   0.47376548  0.46353926  0.49807546
   0.47034125  0.51607590  0.47029584
   0.46921934  0.51371871  0.52976787
   0.48377750  0.49875064  0.49965534
   0.53206987  0.50247198  0.50069527
   0.57083539  0.50545939  0.50150342
Direct configuration=    76
   0.47376538  0.46353926  0.49807615
   0.47034068  0.51607563  0.47029607
   0.46921984  0.51371893  0.52976821
   0.48377754  0.49875064  0.49965552
   0.53206972  0.50247193  0.50069476
   0.57083567  0.50545950  0.50150248
Direct configuration=    77
   0.47376522  0.46353928  0.49807704
   0.47034004  0.51607528  0.47029633
   0.46922044  0.51371926  0.52976860
   0.48377757  0.49875066  0.49965574
   0.53206962  0.50247185  0.50069415
   0.57083594  0.50545955  0.50150134
Direct configuration=    78
   0.47376501  0.46353935  0.49807813
   0.47033934  0.51607487  0.47029662
   0.46922112  0.51371974  0.52976901
   0.48377758  0.49875071  0.49965602
   0.53206977  0.50247175  0.50069345
   0.57083602  0.50545947  0.50149997
Direct configuration=    79
   0.47376470  0.46353949  0.49807950
   0.47033859  0.51607436  0.47029691
   0.46922191  0.51372043  0.52976943
   0.48377756  0.49875079  0.49965635
   0.53207015  0.50247160  0.50069266
   0.57083592  0.50545921  0.50149834
Direct configuration=    80
   0.47376427  0.46353972  0.49808122
   0.47033783  0.51607375  0.47029721
   0.46922279  0.51372144  0.52976983
   0.48377756  0.49875094  0.49965675
   0.53207038  0.50247134  0.50069177
   0.57083599  0.50545869  0.50149640
Direct configuration=    81
   0.47376370  0.46354008  0.49808335
   0.47033710  0.51607304  0.47029748
   0.46922379  0.51372286  0.52977022
   0.48377762  0.49875120  0.49965725
   0.53207022  0.50247084  0.50069073
   0.57083641  0.50545786  0.50149415
Direct configuration=    82
   0.47376291  0.46354064  0.49808602
   0.47033644  0.51607221  0.47029769
   0.46922489  0.51372485  0.52977054
   0.48377765  0.49875158  0.49965786
   0.53207018  0.50247007  0.50068954
   0.57083675  0.50545653  0.50149152
Direct configuration=    83
   0.47376183  0.46354141  0.49808932
   0.47033592  0.51607125  0.47029779
   0.46922610  0.51372758  0.52977077
   0.48377759  0.49875211  0.49965859
   0.53207070  0.50246901  0.50068824
   0.57083668  0.50545451  0.50148846
Direct configuration=    84
   0.47376038  0.46354245  0.49809341
   0.47033560  0.51607014  0.47029773
   0.46922746  0.51373124  0.52977087
   0.48377756  0.49875283  0.49965945
   0.53207074  0.50246753  0.50068679
   0.57083710  0.50545168  0.50148492
Direct configuration=    85
   0.47375841  0.46354379  0.49809848
   0.47033551  0.51606883  0.47029743
   0.46922904  0.51373610  0.52977079
   0.48377749  0.49875375  0.49966046
   0.53207065  0.50246561  0.50068521
   0.57083771  0.50544780  0.50148080
Direct configuration=    86
   0.47375582  0.46354542  0.49810471
   0.47033563  0.51606726  0.47029690
   0.46923098  0.51374229  0.52977053
   0.48377724  0.49875489  0.49966165
   0.53207162  0.50246333  0.50068345
   0.57083753  0.50544267  0.50147591
Direct configuration=    87
   0.47375264  0.46354727  0.49811209
   0.47033577  0.51606538  0.47029625
   0.46923351  0.51374970  0.52977019
   0.48377731  0.49875622  0.49966303
   0.53206987  0.50246050  0.50068134
   0.57083972  0.50543678  0.50147022
Direct configuration=    88
   0.47375258  0.46354726  0.49811224
   0.47033568  0.51606530  0.47029629
   0.46923366  0.51374978  0.52977022
   0.48377716  0.49875624  0.49966311
   0.53207116  0.50246059  0.50068125
   0.57083859  0.50543668  0.50147002
Direct configuration=    89
   0.47375245  0.46354723  0.49811255
   0.47033538  0.51606513  0.47029643
   0.46923401  0.51374991  0.52977034
   0.48377700  0.49875626  0.49966328
   0.53207256  0.50246065  0.50068097
   0.57083742  0.50543668  0.50146956
Direct configuration=    90
   0.47375245  0.46354722  0.49811258
   0.47033534  0.51606511  0.47029646
   0.46923405  0.51374990  0.52977037
   0.48377704  0.49875626  0.49966330
   0.53207229  0.50246062  0.50068092
   0.57083766  0.50543674  0.50146951
Direct configuration=    91
   0.47375245  0.46354720  0.49811263
   0.47033523  0.51606507  0.47029652
   0.46923415  0.51374988  0.52977043
   0.48377711  0.49875625  0.49966333
   0.53207180  0.50246059  0.50068081
   0.57083808  0.50543687  0.50146941
Direct configuration=    92
   0.47375247  0.46354715  0.49811270
   0.47033505  0.51606501  0.47029665
   0.46923432  0.51374981  0.52977055
   0.48377719  0.49875621  0.49966337
   0.53207123  0.50246057  0.50068064
   0.57083857  0.50543710  0.50146923
Direct configuration=    93
   0.47375251  0.46354706  0.49811277
   0.47033477  0.51606492  0.47029684
   0.46923456  0.51374968  0.52977072
   0.48377726  0.49875615  0.49966343
   0.53207076  0.50246059  0.50068039
   0.57083895  0.50543745  0.50146898
Direct configuration=    94
   0.47375260  0.46354694  0.49811283
   0.47033439  0.51606482  0.47029711
   0.46923488  0.51374945  0.52977097
   0.48377730  0.49875605  0.49966350
   0.53207052  0.50246067  0.50068007
   0.57083913  0.50543793  0.50146866
Direct configuration=    95
   0.47375273  0.46354676  0.49811287
   0.47033390  0.51606469  0.47029746
   0.46923529  0.51374910  0.52977129
   0.48377733  0.49875590  0.49966358
   0.53207052  0.50246084  0.50067968
   0.57083906  0.50543857  0.50146825
Direct configuration=    96
   0.47375295  0.46354651  0.49811289
   0.47033324  0.51606452  0.47029795
   0.46923583  0.51374860  0.52977172
   0.48377732  0.49875568  0.49966368
   0.53207077  0.50246112  0.50067918
   0.57083872  0.50543943  0.50146772
Direct configuration=    97
   0.47375324  0.46354616  0.49811289
   0.47033235  0.51606431  0.47029860
   0.46923653  0.51374789  0.52977231
   0.48377729  0.49875538  0.49966380
   0.53207127  0.50246151  0.50067852
   0.57083813  0.50544061  0.50146703
Direct configuration=    98
   0.47375365  0.46354569  0.49811287
   0.47033118  0.51606405  0.47029945
   0.46923744  0.51374694  0.52977310
   0.48377727  0.49875497  0.49966395
   0.53207177  0.50246201  0.50067764
   0.57083752  0.50544219  0.50146612
Direct configuration=    99
   0.47375418  0.46354508  0.49811284
   0.47032968  0.51606373  0.47030054
   0.46923859  0.51374571  0.52977411
   0.48377731  0.49875445  0.49966414
   0.53207185  0.50246262  0.50067652
   0.57083722  0.50544426  0.50146497
Direct configuration=   100
   0.47375484  0.46354433  0.49811281
   0.47032781  0.51606335  0.47030188
   0.46923999  0.51374421  0.52977539
   0.48377743  0.49875381  0.49966438
   0.53207132  0.50246331  0.50067513
   0.57083742  0.50544685  0.50146354
Direct configuration=   101
   0.47375564  0.46354338  0.49811283
   0.47032549  0.51606289  0.47030351
   0.46924171  0.51374238  0.52977700
   0.48377759  0.49875303  0.49966468
   0.53207055  0.50246414  0.50067341
   0.57083784  0.50545003  0.50146171
Direct configuration=   102
   0.47375657  0.46354225  0.49811295
   0.47032276  0.51606233  0.47030539
   0.46924375  0.51374031  0.52977894
   0.48377768  0.49875211  0.49966506
   0.53207047  0.50246523  0.50067140
   0.57083761  0.50545362  0.50145939
Direct configuration=   103
   0.47375758  0.46354097  0.49811330
   0.47031965  0.51606166  0.47030747
   0.46924608  0.51373813  0.52978117
   0.48377764  0.49875110  0.49966555
   0.53207130  0.50246655  0.50066915
   0.57083658  0.50545745  0.50145650
Direct configuration=   104
   0.47375856  0.46353962  0.49811406
   0.47031632  0.51606088  0.47030963
   0.46924864  0.51373610  0.52978362
   0.48377770  0.49875012  0.49966618
   0.53207109  0.50246784  0.50066667
   0.57083653  0.50546130  0.50145297
Direct configuration=   105
   0.47375853  0.46353963  0.49811413
   0.47031632  0.51606087  0.47030962
   0.46924864  0.51373617  0.52978363
   0.48377770  0.49875014  0.49966620
   0.53207101  0.50246782  0.50066666
   0.57083661  0.50546124  0.50145289
Direct configuration=   106
   0.47375849  0.46353966  0.49811428
   0.47031633  0.51606084  0.47030960
   0.46924866  0.51373629  0.52978364
   0.48377771  0.49875018  0.49966624
   0.53207089  0.50246777  0.50066664
   0.57083676  0.50546112  0.50145274
Direct configuration=   107
   0.47375842  0.46353969  0.49811449
   0.47031633  0.51606080  0.47030958
   0.46924868  0.51373648  0.52978365
   0.48377770  0.49875023  0.49966630
   0.53207077  0.50246772  0.50066661
   0.57083692  0.50546094  0.50145251
Direct configuration=   108
   0.47375834  0.46353974  0.49811478
   0.47031633  0.51606074  0.47030955
   0.46924872  0.51373671  0.52978368
   0.48377768  0.49875030  0.49966638
   0.53207071  0.50246766  0.50066656
   0.57083704  0.50546072  0.50145220
Direct configuration=   109
   0.47375825  0.46353979  0.49811512
   0.47031631  0.51606066  0.47030953
   0.46924878  0.51373697  0.52978373
   0.48377765  0.49875037  0.49966647
   0.53207075  0.50246760  0.50066649
   0.57083709  0.50546046  0.50145180
Direct configuration=   110
   0.47375816  0.46353984  0.49811552
   0.47031627  0.51606056  0.47030953
   0.46924886  0.51373726  0.52978379
   0.48377761  0.49875044  0.49966658
   0.53207087  0.50246756  0.50066639
   0.57083707  0.50546020  0.50145132
Direct configuration=   111
   0.47375806  0.46353989  0.49811602
   0.47031617  0.51606044  0.47030956
   0.46924898  0.51373758  0.52978390
   0.48377756  0.49875051  0.49966673
   0.53207104  0.50246752  0.50066625
   0.57083701  0.50545992  0.50145068
Direct configuration=   112
   0.47375798  0.46353993  0.49811662
   0.47031600  0.51606026  0.47030965
   0.46924918  0.51373791  0.52978408
   0.48377752  0.49875057  0.49966692
   0.53207116  0.50246751  0.50066602
   0.57083699  0.50545968  0.50144984
Direct configuration=   113
   0.47375794  0.46353993  0.49811733
   0.47031570  0.51606004  0.47030984
   0.46924948  0.51373820  0.52978436
   0.48377750  0.49875061  0.49966716
   0.53207114  0.50246753  0.50066568
   0.57083706  0.50545954  0.50144877
Direct configuration=   114
   0.47375798  0.46353989  0.49811814
   0.47031522  0.51605974  0.47031018
   0.46924991  0.51373839  0.52978477
   0.48377751  0.49875061  0.49966745
   0.53207099  0.50246762  0.50066518
   0.57083721  0.50545960  0.50144741
Direct configuration=   115
   0.47375814  0.46353974  0.49811903
   0.47031447  0.51605937  0.47031074
   0.46925055  0.51373839  0.52978538
   0.48377753  0.49875052  0.49966781
   0.53207085  0.50246785  0.50066447
   0.57083729  0.50545999  0.50144570
Direct configuration=   116
   0.47375851  0.46353943  0.49811996
   0.47031332  0.51605889  0.47031163
   0.46925146  0.51373804  0.52978627
   0.48377755  0.49875029  0.49966826
   0.53207086  0.50246829  0.50066346
   0.57083713  0.50546091  0.50144355
Direct configuration=   117
   0.47375919  0.46353886  0.49812090
   0.47031159  0.51605828  0.47031297