 vasp.5.4.1 05Feb16 (build Mar 08 2016 13:24:48) complex                        
  
 executed on             LinuxIFC date 2020.01.10  19:37:40
 running on    2 total cores
 distrk:  each k-point on    2 cores,    1 groups
 distr:  one band on NCORES_PER_BAND=   1 cores,    2 groups


--------------------------------------------------------------------------------------------------------


 INCAR:
 POTCAR:    PAW_PBE H 15Jun2001                   
 POTCAR:    PAW_PBE C 08Apr2002                   
 POTCAR:    PAW_PBE N 08Apr2002                   
 POTCAR:    PAW_PBE H 15Jun2001                   
   VRHFIN =H: ultrasoft test                                                    
   LEXCH  = PE                                                                  
   EATOM  =    12.4884 eV,    0.9179 Ry                                         
                                                                                
   TITEL  = PAW_PBE H 15Jun2001                                                 
   LULTRA =        F    use ultrasoft PP ?                                      
   IUNSCR =        0    unscreen: 0-lin 1-nonlin 2-no                           
   RPACOR =    0.000    partial core radius                                     
   POMASS =    1.000; ZVAL   =    1.000    mass and valenz                      
   RCORE  =    1.100    outmost cutoff radius                                   
   RWIGS  =    0.700; RWIGS  =    0.370    wigner-seitz radius (au A)           
   ENMAX  =  250.000; ENMIN  =  200.000 eV                                      
   RCLOC  =    0.701    cutoff for local pot                                    
   LCOR   =        T    correct aug charges                                     
   LPAW   =        T    paw PP                                                  
   EAUG   =  400.000                                                            
   RMAX   =    1.123    core radius for proj-oper                               
   RAUG   =    1.200    factor for augmentation sphere                          
   RDEP   =    1.112    radius for radial grids                                 
   RDEPT  =    0.926    core radius for aug-charge                              
                                                                                
   Atomic configuration                                                         
    2 entries                                                                   
     n  l   j            E        occ.                                          
     1  0  0.50        -6.4927   1.0000                                         
     2  1  0.50        -3.4015   0.0000                                         
   Description                                                                  
     l       E           TYP  RCUT    TYP  RCUT                                 
     0     -6.4927494     23  1.100                                             
     0      6.8029130     23  1.100                                             
     1     -4.0817478     23  1.100                                             
  local pseudopotential read in
  atomic valenz-charges read in
  non local Contribution for L=           0  read in
    real space projection operators read in
  non local Contribution for L=           0  read in
    real space projection operators read in
  non local Contribution for L=           1  read in
    real space projection operators read in
    PAW grid and wavefunctions read in
 
   number of l-projection  operators is LMAX  =           3
   number of lm-projection operators is LMMAX =           5
 
 POTCAR:    PAW_PBE C 08Apr2002                   
   VRHFIN =C: s2p2                                                              
   LEXCH  = PE                                                                  
   EATOM  =   147.1560 eV,   10.8157 Ry                                         
                                                                                
   TITEL  = PAW_PBE C 08Apr2002                                                 
   LULTRA =        F    use ultrasoft PP ?                                      
   IUNSCR =        1    unscreen: 0-lin 1-nonlin 2-no                           
   RPACOR =    1.200    partial core radius                                     
   POMASS =   12.011; ZVAL   =    4.000    mass and valenz                      
   RCORE  =    1.500    outmost cutoff radius                                   
   RWIGS  =    1.630; RWIGS  =    0.863    wigner-seitz radius (au A)           
   ENMAX  =  400.000; ENMIN  =  300.000 eV                                      
   ICORE  =        2    local potential                                         
   LCOR   =        T    correct aug charges                                     
   LPAW   =        T    paw PP                                                  
   EAUG   =  644.873                                                            
   DEXC   =    0.000                                                            
   RMAX   =    1.529    core radius for proj-oper                               
   RAUG   =    1.300    factor for augmentation sphere                          
   RDEP   =    1.501    radius for radial grids                                 
   RDEPT  =    1.300    core radius for aug-charge                              
                                                                                
   Atomic configuration                                                         
    4 entries                                                                   
     n  l   j            E        occ.                                          
     1  0  0.50      -273.3789   2.0000                                         
     2  0  0.50       -13.7508   2.0000                                         
     2  1  0.50        -5.2854   2.0000                                         
     3  2  1.50        -5.4423   0.0000                                         
   Description                                                                  
     l       E           TYP  RCUT    TYP  RCUT                                 
     0    -13.7508458     23  1.200                                             
     0     -8.2022199     23  1.200                                             
     1     -5.2854383     23  1.500                                             
     1     34.0145650     23  1.500                                             
     2     -5.4423304      7  1.500                                             
  local pseudopotential read in
  partial core-charges read in
  partial kinetic energy density read in
  atomic valenz-charges read in
  non local Contribution for L=           0  read in
    real space projection operators read in
  non local Contribution for L=           0  read in
    real space projection operators read in
  non local Contribution for L=           1  read in
    real space projection operators read in
  non local Contribution for L=           1  read in
    real space projection operators read in
    PAW grid and wavefunctions read in
 
   number of l-projection  operators is LMAX  =           4
   number of lm-projection operators is LMMAX =           8
 
 POTCAR:    PAW_PBE N 08Apr2002                   
   VRHFIN =N: s2p3                                                              
   LEXCH  = PE                                                                  
   EATOM  =   264.5486 eV,   19.4438 Ry                                         
                                                                                
   TITEL  = PAW_PBE N 08Apr2002                                                 
   LULTRA =        F    use ultrasoft PP ?                                      
   IUNSCR =        1    unscreen: 0-lin 1-nonlin 2-no                           
   RPACOR =    1.200    partial core radius                                     
   POMASS =   14.001; ZVAL   =    5.000    mass and valenz                      
   RCORE  =    1.500    outmost cutoff radius                                   
   RWIGS  =    1.400; RWIGS  =    0.741    wigner-seitz radius (au A)           
   ENMAX  =  400.000; ENMIN  =  300.000 eV                                      
   ICORE  =        2    local potential                                         
   LCOR   =        T    correct aug charges                                     
   LPAW   =        T    paw PP                                                  
   EAUG   =  627.112                                                            
   DEXC   =    0.000                                                            
   RMAX   =    1.529    core radius for proj-oper                               
   RAUG   =    1.300    factor for augmentation sphere                          
   RDEP   =    1.514    radius for radial grids                                 
   RDEPT  =    1.338    core radius for aug-charge                              
                                                                                
   Atomic configuration                                                         
    4 entries                                                                   
     n  l   j            E        occ.                                          
     1  0  0.50      -384.7179   2.0000                                         
     2  0  0.50       -18.5828   2.0000                                         
     2  1  0.50        -7.0898   3.0000                                         
     3  2  1.50        -6.8029   0.0000                                         
   Description                                                                  
     l       E           TYP  RCUT    TYP  RCUT                                 
     0    -18.5828119     23  1.200                                             
     0    -13.5018863     23  1.200                                             
     1     -7.0897853     23  1.500                                             
     1      9.5240782     23  1.500                                             
     2     -6.8029130      7  1.500                                             
  local pseudopotential read in
  partial core-charges read in
  partial kinetic energy density read in
  atomic valenz-charges read in
  non local Contribution for L=           0  read in
    real space projection operators read in
  non local Contribution for L=           0  read in
    real space projection operators read in
  non local Contribution for L=           1  read in
    real space projection operators read in
  non local Contribution for L=           1  read in
    real space projection operators read in
    PAW grid and wavefunctions read in
 
   number of l-projection  operators is LMAX  =           4
   number of lm-projection operators is LMMAX =           8
 

 ----------------------------------------------------------------------------- 
|                                                                             |
|  ADVICE TO THIS USER RUNNING 'VASP/VAMP'   (HEAR YOUR MASTER'S VOICE ...):  |
|                                                                             |
|      You have a (more or less) 'small supercell' and for smaller cells      |
|      it is recommended  to use the reciprocal-space projection scheme!      |
|      The real space optimization is not  efficient for small cells and it   |
|      is also less accurate ...                                              |
|      Therefore set LREAL=.FALSE. in the  INCAR file                         |
|                                                                             |
 ----------------------------------------------------------------------------- 

 Optimization of the real space projectors (new method)

 maximal supplied QI-value         = 34.20
 optimisation between [QCUT,QGAM] = [  9.92, 20.18] = [ 27.55,114.04] Ry 
 Optimized for a Real-space Cutoff    1.26 Angstroem

   l    n(q)    QCUT    max X(q) W(low)/X(q) W(high)/X(q)  e(spline) 
   0      8     9.919    19.460    0.50E-03    0.23E-03    0.29E-06
   0      8     9.919    12.209    0.48E-03    0.23E-03    0.28E-06
   1      7     9.919     4.655    0.17E-03    0.75E-03    0.30E-06
 Optimization of the real space projectors (new method)

 maximal supplied QI-value         = 25.13
 optimisation between [QCUT,QGAM] = [ 10.05, 20.36] = [ 28.30,116.06] Ry 
 Optimized for a Real-space Cutoff    1.30 Angstroem

   l    n(q)    QCUT    max X(q) W(low)/X(q) W(high)/X(q)  e(spline) 
   0      8    10.053   115.676    0.49E-03    0.72E-03    0.18E-06
   0      8    10.053    87.132    0.49E-03    0.71E-03    0.18E-06
   1      7    10.053     4.429    0.32E-03    0.31E-03    0.18E-06
   1      7    10.053     2.733    0.23E-03    0.19E-03    0.20E-06
 Optimization of the real space projectors (new method)

 maximal supplied QI-value         = 25.13
 optimisation between [QCUT,QGAM] = [ 10.05, 20.36] = [ 28.30,116.06] Ry 
 Optimized for a Real-space Cutoff    1.65 Angstroem

   l    n(q)    QCUT    max X(q) W(low)/X(q) W(high)/X(q)  e(spline) 
   0     10    10.053    79.467    0.76E-04    0.72E-04    0.56E-06
   0     10    10.053    66.151    0.76E-04    0.72E-04    0.55E-06
   1     10    10.053     8.350    0.25E-03    0.92E-03    0.41E-05
   1     10    10.053     5.531    0.27E-03    0.10E-02    0.45E-05
  PAW_PBE H 15Jun2001                   :
 energy of atom  1       EATOM=  -12.4884
 kinetic energy error for atom=    0.0098 (will be added to EATOM!!)
  PAW_PBE C 08Apr2002                   :
 energy of atom  2       EATOM= -147.1560
 kinetic energy error for atom=    0.0288 (will be added to EATOM!!)
  PAW_PBE N 08Apr2002                   :
 energy of atom  3       EATOM= -264.5486
 kinetic energy error for atom=    0.0736 (will be added to EATOM!!)
 
 
 POSCAR: H3 C2 N1                                
  positions in direct lattice
  No initial velocities read in
 exchange correlation table for  LEXCH =        8
   RHO(1)=    0.500       N(1)  =     2000
   RHO(2)=  100.500       N(2)  =     4000
 


--------------------------------------------------------------------------------------------------------


 ion  position               nearest neighbor table
   1  0.423  0.501  0.508-   4 1.14
   2  0.423  0.545  0.464-   4 1.14
   3  0.423  0.561  0.524-   4 1.14
   4  0.435  0.536  0.498-   2 1.14   3 1.14   1 1.14   6 1.51
   5  0.536  0.535  0.498-   6 1.51
   6  0.486  0.536  0.498-   4 1.51   5 1.51
 
  LATTYP: Found a simple cubic cell.
 ALAT       =    30.0000000000
  
  Lattice vectors:
  
 A1 = (  30.0000000000,   0.0000000000,   0.0000000000)
 A2 = (   0.0000000000,  30.0000000000,   0.0000000000)
 A3 = (   0.0000000000,   0.0000000000,  30.0000000000)


Analysis of symmetry for initial positions (statically):
=====================================================================
 Subroutine PRICEL returns:
 Original cell was already a primitive cell.
 

 Routine SETGRP: Setting up the symmetry group for a 
 simple cubic supercell.


 Subroutine GETGRP returns: Found  1 space group operations
 (whereof  1 operations were pure point group operations)
 out of a pool of 48 trial point group operations.


The static configuration has the point symmetry C_1 .


Analysis of symmetry for dynamics (positions and initial velocities):
=====================================================================
 Subroutine PRICEL returns:
 Original cell was already a primitive cell.
 

 Routine SETGRP: Setting up the symmetry group for a 
 simple cubic supercell.


 Subroutine GETGRP returns: Found  1 space group operations
 (whereof  1 operations were pure point group operations)
 out of a pool of 48 trial point group operations.


The dynamic configuration has the point symmetry C_1 .


 Subroutine INISYM returns: Found  1 space group operations
 (whereof  1 operations are pure point group operations),
 and found     1 'primitive' translations

 
 
 KPOINTS: Mo2C                                    

Automatic generation of k-mesh.
Space group operators:
 irot       det(A)        alpha          n_x          n_y          n_z        tau_x        tau_y        tau_z
    1     1.000000     0.000000     1.000000     0.000000     0.000000     0.000000     0.000000     0.000000
 
 Subroutine IBZKPT returns following result:
 ===========================================
 
 Found      8 irreducible k-points:
 
 Following reciprocal coordinates:
            Coordinates               Weight
  0.000000  0.000000  0.000000      1.000000
  0.500000  0.000000  0.000000      1.000000
  0.000000  0.500000  0.000000      1.000000
  0.500000  0.500000  0.000000      1.000000
  0.000000  0.000000  0.500000      1.000000
  0.500000  0.000000  0.500000      1.000000
  0.000000  0.500000  0.500000      1.000000
  0.500000  0.500000  0.500000      1.000000
 
 Following cartesian coordinates:
            Coordinates               Weight
  0.000000  0.000000  0.000000      1.000000
  0.016667  0.000000  0.000000      1.000000
  0.000000  0.016667  0.000000      1.000000
  0.016667  0.016667  0.000000      1.000000
  0.000000  0.000000  0.016667      1.000000
  0.016667  0.000000  0.016667      1.000000
  0.000000  0.016667  0.016667      1.000000
  0.016667  0.016667  0.016667      1.000000
 


--------------------------------------------------------------------------------------------------------




 Dimension of arrays:
   k-points           NKPTS =      8   k-points in BZ     NKDIM =      8   number of bands    NBANDS=     12
   number of dos      NEDOS =    301   number of ions     NIONS =      6
   non local maximal  LDIM  =      4   non local SUM 2l+1 LMDIM =      8
   total plane-waves  NPLWV = ******
   max r-space proj   IRMAX =   2395   max aug-charges    IRDMAX=   1738
   dimension x,y,z NGX =   150 NGY =  150 NGZ =  150
   dimension x,y,z NGXF=   300 NGYF=  300 NGZF=  300
   support grid    NGXF=   300 NGYF=  300 NGZF=  300
   ions per type =               3   2   1
 NGX,Y,Z   is equivalent  to a cutoff of   8.31,  8.31,  8.31 a.u.
 NGXF,Y,Z  is equivalent  to a cutoff of  16.62, 16.62, 16.62 a.u.


 I would recommend the setting:
   dimension x,y,z NGX =   147 NGY =  147 NGZ =  147
 SYSTEM =  unknown system                          
 POSCAR =  H3 C2 N1                                

 Startparameter for this run:
   NWRITE =      2    write-flag & timer
   PREC   = normal    normal or accurate (medium, high low for compatibility)
   ISTART =      0    job   : 0-new  1-cont  2-samecut
   ICHARG =      2    charge: 1-file 2-atom 10-const
   ISPIN  =      1    spin polarized calculation?
   LNONCOLLINEAR =      F non collinear calculations
   LSORBIT =      F    spin-orbit coupling
   INIWAV =      1    electr: 0-lowe 1-rand  2-diag
   LASPH  =      F    aspherical Exc in radial PAW
   METAGGA=      F    non-selfconsistent MetaGGA calc.

 Electronic Relaxation 1
   ENCUT  =  400.0 eV  29.40 Ry    5.42 a.u.  48.92 48.92 48.92*2*pi/ulx,y,z
   ENINI  =  400.0     initial cutoff
   ENAUG  =  644.9 eV  augmentation charge cutoff
   NELM   =    100;   NELMIN=  6; NELMDL=  0     # of ELM steps 
   EDIFF  = 0.1E-03   stopping-criterion for ELM
   LREAL  =      T    real-space projection
   NLSPLINE    = F    spline interpolate recip. space projectors
   LCOMPAT=      F    compatible to vasp.4.4
   GGA_COMPAT  = T    GGA compatible to vasp.4.4-vasp.4.6
   LMAXPAW     = -100 max onsite density
   LMAXMIX     =    2 max onsite mixed and CHGCAR
   VOSKOWN=      0    Vosko Wilk Nusair interpolation
   ROPT   =   -0.00050  -0.00050  -0.00050
 Ionic relaxation
   EDIFFG = -.2E-01   stopping-criterion for IOM
   NSW    =    300    number of steps for IOM
   NBLOCK =      1;   KBLOCK =    300    inner block; outer block 
   IBRION =      2    ionic relax: 0-MD 1-quasi-New 2-CG
   NFREE  =      1    steps in history (QN), initial steepest desc. (CG)
   ISIF   =      2    stress and relaxation
   IWAVPR =     11    prediction:  0-non 1-charg 2-wave 3-comb
   ISYM   =      2    0-nonsym 1-usesym 2-fastsym
   LCORR  =      T    Harris-Foulkes like correction to forces

   POTIM  = 0.5000    time-step for ionic-motion
   TEIN   =    0.0    initial temperature
   TEBEG  =    0.0;   TEEND  =   0.0 temperature during run
   SMASS  =  -3.00    Nose mass-parameter (am)
   estimated Nose-frequenzy (Omega)   =  0.10E-29 period in steps =****** mass=  -0.206E-25a.u.
   SCALEE = 1.0000    scale energy and forces
   NPACO  =    256;   APACO  = 16.0  distance and # of slots for P.C.
   PSTRESS=    0.0 pullay stress

  Mass of Ions in am
   POMASS =   1.00 12.01 14.00
  Ionic Valenz
   ZVAL   =   1.00  4.00  5.00
  Atomic Wigner-Seitz radii
   RWIGS  =  -1.00 -1.00 -1.00
  virtual crystal weights 
   VCA    =   1.00  1.00  1.00
   NELECT =      16.0000    total number of electrons
   NUPDOWN=      -1.0000    fix difference up-down

 DOS related values:
   EMIN   =  10.00;   EMAX   =-10.00  energy-range for DOS
   EFERMI =   0.00
   ISMEAR =     0;   SIGMA  =   0.20  broadening in eV -4-tet -1-fermi 0-gaus

 Electronic relaxation 2 (details)
   IALGO  =     38    algorithm
   LDIAG  =      T    sub-space diagonalisation (order eigenvalues)
   LSUBROT=      F    optimize rotation matrix (better conditioning)
   TURBO    =      0    0=normal 1=particle mesh
   IRESTART =      0    0=no restart 2=restart with 2 vectors
   NREBOOT  =      0    no. of reboots
   NMIN     =      0    reboot dimension
   EREF     =   0.00    reference energy to select bands
   IMIX   =      4    mixing-type and parameters
     AMIX     =   0.40;   BMIX     =  1.00
     AMIX_MAG =   1.60;   BMIX_MAG =  1.00
     AMIN     =   0.10
     WC   =   100.;   INIMIX=   1;  MIXPRE=   1;  MAXMIX= -45

 Intra band minimization:
   WEIMIN = 0.0010     energy-eigenvalue tresh-hold
   EBREAK =  0.21E-05  absolut break condition
   DEPER  =   0.30     relativ break condition  

   TIME   =   0.40     timestep for ELM

  volume/ion in A,a.u.               =    4500.00     30367.50
  Fermi-wavevector in a.u.,A,eV,Ry     =   0.137508  0.259852  0.257264  0.018908
  Thomas-Fermi vector in A             =   0.790710
 
 Write flags
   LWAVE  =      T    write WAVECAR
   LCHARG =      T    write CHGCAR
   LVTOT  =      F    write LOCPOT, total local potential
   LVHAR  =      F    write LOCPOT, Hartree potential only
   LELF   =      F    write electronic localiz. function (ELF)
   LORBIT =      0    0 simple, 1 ext, 2 COOP (PROOUT)


 Dipole corrections
   LMONO  =      F    monopole corrections only (constant potential shift)
   LDIPOL =      F    correct potential (dipole corrections)
   IDIPOL =      0    1-x, 2-y, 3-z, 4-all directions 
   EPSILON=  1.0000000 bulk dielectric constant

 Exchange correlation treatment:
   GGA     =    PE    GGA type
   LEXCH   =     8    internal setting for exchange type
   VOSKOWN=      0    Vosko Wilk Nusair interpolation
   LHFCALC =     F    Hartree Fock is set to
   LHFONE  =     F    Hartree Fock one center treatment
   AEXX    =    0.0000 exact exchange contribution

 Linear response parameters
   LEPSILON=     F    determine dielectric tensor
   LRPA    =     F    only Hartree local field effects (RPA)
   LNABLA  =     F    use nabla operator in PAW spheres
   LVEL    =     F    velocity operator in full k-point grid
   LINTERFAST=   F  fast interpolation
   KINTER  =     0    interpolate to denser k-point grid
   CSHIFT  =0.1000    complex shift for real part using Kramers Kronig
   OMEGAMAX=  -1.0    maximum frequency
   DEG_THRESHOLD= 0.2000000E-02 threshold for treating states as degnerate
   RTIME   =    0.100 relaxation time in fs

 Orbital magnetization related:
   ORBITALMAG=     F  switch on orbital magnetization
   LCHIMAG   =     F  perturbation theory with respect to B field
   DQ        =  0.001000  dq finite difference perturbation B field



--------------------------------------------------------------------------------------------------------


 conjugate gradient relaxation of ions
 charge density and potential will be updated during run
 non-spin polarized calculation
 Variant of blocked Davidson
 Davidson routine will perform the subspace rotation
 perform sub-space diagonalisation
    after iterative eigenvector-optimisation
 modified Broyden-mixing scheme, WC =      100.0
 initial mixing is a Kerker type mixing with AMIX =  0.4000 and BMIX =      1.0000
 Hartree-type preconditioning will be used
 using additional bands            4
 real space projection scheme for non local part
 use partial core corrections
 calculate Harris-corrections to forces 
   (improved forces if not selfconsistent)
 use gradient corrections 
 use of overlap-Matrix (Vanderbilt PP)
 Gauss-broadening in eV      SIGMA  =   0.20


--------------------------------------------------------------------------------------------------------


  energy-cutoff  :      400.00
  volume of cell :    27000.00
      direct lattice vectors                 reciprocal lattice vectors
    30.000000000  0.000000000  0.000000000     0.033333333  0.000000000  0.000000000
     0.000000000 30.000000000  0.000000000     0.000000000  0.033333333  0.000000000
     0.000000000  0.000000000 30.000000000     0.000000000  0.000000000  0.033333333

  length of vectors
    30.000000000 30.000000000 30.000000000     0.033333333  0.033333333  0.033333333


 
 k-points in units of 2pi/SCALE and weight: Mo2C                                    
   0.00000000  0.00000000  0.00000000       0.125
   0.01666667  0.00000000  0.00000000       0.125
   0.00000000  0.01666667  0.00000000       0.125
   0.01666667  0.01666667  0.00000000       0.125
   0.00000000  0.00000000  0.01666667       0.125
   0.01666667  0.00000000  0.01666667       0.125
   0.00000000  0.01666667  0.01666667       0.125
   0.01666667  0.01666667  0.01666667       0.125
 
 k-points in reciprocal lattice and weights: Mo2C                                    
   0.00000000  0.00000000  0.00000000       0.125
   0.50000000  0.00000000  0.00000000       0.125
   0.00000000  0.50000000  0.00000000       0.125
   0.50000000  0.50000000  0.00000000       0.125
   0.00000000  0.00000000  0.50000000       0.125
   0.50000000  0.00000000  0.50000000       0.125
   0.00000000  0.50000000  0.50000000       0.125
   0.50000000  0.50000000  0.50000000       0.125
 
 position of ions in fractional coordinates (direct lattice) 
   0.42263000  0.50110000  0.50768000
   0.42263000  0.54498000  0.46380000
   0.42263000  0.56104000  0.52374000
   0.43530000  0.53571000  0.49840000
   0.53596000  0.53527000  0.49840000
   0.48563000  0.53571000  0.49840000
 
 position of ions in cartesian coordinates  (Angst):
  12.67890000 15.03300000 15.23040000
  12.67890000 16.34940000 13.91400000
  12.67890000 16.83120000 15.71220000
  13.05900000 16.07130000 14.95200000
  16.07880000 16.05810000 14.95200000
  14.56890000 16.07130000 14.95200000
 


--------------------------------------------------------------------------------------------------------


 k-point  1 :   0.0000 0.0000 0.0000  plane waves:  490521
 k-point  2 :   0.5000 0.0000 0.0000  plane waves:  490674
 k-point  3 :   0.0000 0.5000 0.0000  plane waves:  490674
 k-point  4 :   0.5000 0.5000 0.0000  plane waves:  490404
 k-point  5 :   0.0000 0.0000 0.5000  plane waves:  490674
 k-point  6 :   0.5000 0.0000 0.5000  plane waves:  490404
 k-point  7 :   0.0000 0.5000 0.5000  plane waves:  490404
 k-point  8 :   0.5000 0.5000 0.5000  plane waves:  490400

 maximum and minimum number of plane-waves per node :    490674   490400

 maximum number of plane-waves:    490674
 maximum index in each direction: 
   IXMAX=   48   IYMAX=   48   IZMAX=   48
   IXMIN=  -49   IYMIN=  -49   IZMIN=  -49

 WARNING: aliasing errors must be expected set NGX to 196 to avoid them
 WARNING: aliasing errors must be expected set NGY to 196 to avoid them
 WARNING: aliasing errors must be expected set NGZ to 196 to avoid them
 aliasing errors are usually negligible using standard VASP settings
 and one can safely disregard these warnings

 serial   3D FFT for wavefunctions
 parallel 3D FFT for charge:
    minimum data exchange during FFTs selected (reduces bandwidth)


 total amount of memory used by VASP on root node  1880337. kBytes
========================================================================

   base      :      30000. kBytes
   nonlr-proj:        691. kBytes
   fftplans  :     469080. kBytes
   grid      :    1003680. kBytes
   one-center:         18. kBytes
   wavefun   :     376868. kBytes
 
     INWAV:  cpu time    0.0000: real time    0.0000
 Broyden mixing: mesh for mixing (old mesh)
   NGX = 97   NGY = 97   NGZ = 97
  (NGX  =300   NGY  =300   NGZ  =300)
  gives a total of 912673 points

 initial charge density was supplied:
 charge density of overlapping atoms calculated
 number of electron      16.0000000 magnetization 
 keeping initial charge density in first step


--------------------------------------------------------------------------------------------------------


 Maximum index for non-local projection operator         2270
 Maximum index for augmentation-charges          754 (set IRDMAX)


--------------------------------------------------------------------------------------------------------


 First call to EWALD:  gamma=   0.059
 Maximum number of real-space cells 3x 3x 3
 Maximum number of reciprocal cells 3x 3x 3

 FEWALD executed in parallel
    FEWALD:  cpu time    0.0010: real time    0.0009


----------------------------------------- Iteration    1(   1)  ---------------------------------------


    POTLOK:  cpu time    6.5090: real time    6.5185
    SETDIJ:  cpu time    0.0020: real time    0.0026
     EDDAV:  cpu time    7.2459: real time    7.2800
       DOS:  cpu time    0.0010: real time    0.0003
    --------------------------------------------
      LOOP:  cpu time   13.7609: real time   13.8057

 eigenvalue-minimisations  :   320
 total energy-change (2. order) : 0.9216151E+02  (-0.2068621E+03)
 number of electron      16.0000000 magnetization 
 augmentation part       16.0000000 magnetization 

 Free energy of the ion-electron system (eV)
  ---------------------------------------------------
  alpha Z        PSCENC =         0.04144063
  Ewald energy   TEWEN  =       606.57001624
  -Hartree energ DENC   =     -1046.52433091
  -exchange      EXHF   =         0.00000000
  -V(xc)+E(xc)   XCENC  =        49.89969079
  PAW double counting   =       428.37890668     -430.73533574
  entropy T*S    EENTRO =        -0.20418730
  eigenvalues    EBANDS =      -111.43003411
  atomic energy  EATOM  =       596.16534815
  Solvation  Ediel_sol  =         0.00000000
  ---------------------------------------------------
  free energy    TOTEN  =        92.16151443 eV

  energy without entropy =       92.36570173  energy(sigma->0) =       92.26360808


--------------------------------------------------------------------------------------------------------




----------------------------------------- Iteration    1(   2)  ---------------------------------------


     EDDAV:  cpu time    8.2367: real time    8.2705
       DOS:  cpu time    0.0000: real time    0.0002
    --------------------------------------------
      LOOP:  cpu time    8.2377: real time    8.2737

 eigenvalue-minimisations  :   384
 total energy-change (2. order) :-0.9709028E+02  (-0.9518156E+02)
 number of electron      16.0000000 magnetization 
 augmentation part       16.0000000 magnetization 

 Free energy of the ion-electron system (eV)
  ---------------------------------------------------
  alpha Z        PSCENC =         0.04144063
  Ewald energy   TEWEN  =       606.57001624
  -Hartree energ DENC   =     -1046.52433091
  -exchange      EXHF   =         0.00000000
  -V(xc)+E(xc)   XCENC  =        49.89969079
  PAW double counting   =       428.37890668     -430.73533574
  entropy T*S    EENTRO =        -0.00000013
  eigenvalues    EBANDS =      -208.72450222
  atomic energy  EATOM  =       596.16534815
  Solvation  Ediel_sol  =         0.00000000
  ---------------------------------------------------
  free energy    TOTEN  =        -4.92876651 eV

  energy without entropy =       -4.92876639  energy(sigma->0) =       -4.92876645


--------------------------------------------------------------------------------------------------------




----------------------------------------- Iteration    1(   3)  ---------------------------------------


     EDDAV:  cpu time    7.2069: real time    7.2331
       DOS:  cpu time    0.0000: real time    0.0001
    --------------------------------------------
      LOOP:  cpu time    7.2089: real time    7.2359

 eigenvalue-minimisations  :   320
 total energy-change (2. order) :-0.2674846E+02  (-0.2666790E+02)
 number of electron      16.0000000 magnetization 
 augmentation part       16.0000000 magnetization 

 Free energy of the ion-electron system (eV)
  ---------------------------------------------------
  alpha Z        PSCENC =         0.04144063
  Ewald energy   TEWEN  =       606.57001624
  -Hartree energ DENC   =     -1046.52433091
  -exchange      EXHF   =         0.00000000
  -V(xc)+E(xc)   XCENC  =        49.89969079
  PAW double counting   =       428.37890668     -430.73533574
  entropy T*S    EENTRO =         0.00000000
  eigenvalues    EBANDS =      -235.47295996
  atomic energy  EATOM  =       596.16534815
  Solvation  Ediel_sol  =         0.00000000
  ---------------------------------------------------
  free energy    TOTEN  =       -31.67722412 eV

  energy without entropy =      -31.67722412  energy(sigma->0) =      -31.67722412


--------------------------------------------------------------------------------------------------------




----------------------------------------- Iteration    1(   4)  ---------------------------------------


     EDDAV:  cpu time    6.2540: real time    6.2810
       DOS:  cpu time    0.0000: real time    0.0002
    --------------------------------------------
      LOOP:  cpu time    6.2550: real time    6.2840

 eigenvalue-minimisations  :   256
 total energy-change (2. order) :-0.2917235E+01  (-0.2789505E+01)
 number of electron      16.0000000 magnetization 
 augmentation part       16.0000000 magnetization 

 Free energy of the ion-electron system (eV)
  ---------------------------------------------------
  alpha Z        PSCENC =         0.04144063
  Ewald energy   TEWEN  =       606.57001624
  -Hartree energ DENC   =     -1046.52433091
  -exchange      EXHF   =         0.00000000
  -V(xc)+E(xc)   XCENC  =        49.89969079
  PAW double counting   =       428.37890668     -430.73533574
  entropy T*S    EENTRO =         0.00000000
  eigenvalues    EBANDS =      -238.39019478
  atomic energy  EATOM  =       596.16534815
  Solvation  Ediel_sol  =         0.00000000
  ---------------------------------------------------
  free energy    TOTEN  =       -34.59445894 eV

  energy without entropy =      -34.59445894  energy(sigma->0) =      -34.59445894


--------------------------------------------------------------------------------------------------------




----------------------------------------- Iteration    1(   5)  ---------------------------------------


     EDDAV:  cpu time    6.2041: real time    6.2292
       DOS:  cpu time    0.0000: real time    0.0002
    CHARGE:  cpu time    1.2048: real time    1.2057
    MIXING:  cpu time    0.1950: real time    0.1955
    --------------------------------------------
      LOOP:  cpu time    7.6058: real time    7.6332

 eigenvalue-minimisations  :   260
 total energy-change (2. order) :-0.1919467E+00  (-0.1819857E+00)
 number of electron      15.9999986 magnetization 
 augmentation part        0.4033959 magnetization 

 Broyden mixing:
  rms(total) = 0.86864E+00    rms(broyden)= 0.86759E+00
  rms(prec ) = 0.90923E+00
  weight for this iteration     100.00

 Free energy of the ion-electron system (eV)
  ---------------------------------------------------
  alpha Z        PSCENC =         0.04144063
  Ewald energy   TEWEN  =       606.57001624
  -Hartree energ DENC   =     -1046.52433091
  -exchange      EXHF   =         0.00000000
  -V(xc)+E(xc)   XCENC  =        49.89969079
  PAW double counting   =       428.37890668     -430.73533574
  entropy T*S    EENTRO =         0.00000000
  eigenvalues    EBANDS =      -238.58214144
  atomic energy  EATOM  =       596.16534815
  Solvation  Ediel_sol  =         0.00000000
  ---------------------------------------------------
  free energy    TOTEN  =       -34.78640560 eV

  energy without entropy =      -34.78640560  energy(sigma->0) =      -34.78640560


--------------------------------------------------------------------------------------------------------




----------------------------------------- Iteration    1(   6)  ---------------------------------------


    POTLOK:  cpu time    6.5100: real time    6.5202
    SETDIJ:  cpu time    0.0040: real time    0.0042
     EDDAV:  cpu time    5.7571: real time    5.7796
       DOS:  cpu time    0.0000: real time    0.0002
    CHARGE:  cpu time    1.1808: real time    1.1814
    MIXING:  cpu time    0.2100: real time    0.2108
    --------------------------------------------
      LOOP:  cpu time   13.6629: real time   13.6988

 eigenvalue-minimisations  :   228
 total energy-change (2. order) : 0.1194518E+01  (-0.5303174E+00)
 number of electron      15.9999993 magnetization 
 augmentation part        0.3102847 magnetization 

 Broyden mixing:
  rms(total) = 0.69806E+00    rms(broyden)= 0.69708E+00
  rms(prec ) = 0.73824E+00
  weight for this iteration     100.00

 eigenvalues of (default mixing * dielectric matrix)
  average eigenvalue GAMMA=   0.6193
  0.6193

 Free energy of the ion-electron system (eV)
  ---------------------------------------------------
  alpha Z        PSCENC =         0.04144063
  Ewald energy   TEWEN  =       606.57001624
  -Hartree energ DENC   =     -1070.41745600
  -exchange      EXHF   =         0.00000000
  -V(xc)+E(xc)   XCENC  =        51.11782600
  PAW double counting   =       602.99683264     -605.55192725
  entropy T*S    EENTRO =         0.00000000
  eigenvalues    EBANDS =      -214.51396844
  atomic energy  EATOM  =       596.16534815
  Solvation  Ediel_sol  =         0.00000000
  ---------------------------------------------------
  free energy    TOTEN  =       -33.59188803 eV

  energy without entropy =      -33.59188803  energy(sigma->0) =      -33.59188803


--------------------------------------------------------------------------------------------------------




----------------------------------------- Iteration    1(   7)  ---------------------------------------


    POTLOK:  cpu time    6.2001: real time    6.2058
    SETDIJ:  cpu time    0.0030: real time    0.0025
     EDDAV:  cpu time    6.2391: real time    6.2644
       DOS:  cpu time    0.0000: real time    0.0002
    CHARGE:  cpu time    1.1858: real time    1.1869
    MIXING:  cpu time    0.2240: real time    0.2241
    --------------------------------------------
      LOOP:  cpu time   13.8529: real time   13.8870

 eigenvalue-minimisations  :   256
 total energy-change (2. order) : 0.6650474E+00  (-0.1232843E+00)
 number of electron      15.9999988 magnetization 
 augmentation part        0.3607410 magnetization 

 Broyden mixing:
  rms(total) = 0.37567E+00    rms(broyden)= 0.37494E+00
  rms(prec ) = 0.38986E+00
  weight for this iteration     100.00

 eigenvalues of (default mixing * dielectric matrix)
  average eigenvalue GAMMA=   1.1244
  1.7930  0.4558

 Free energy of the ion-electron system (eV)
  ---------------------------------------------------
  alpha Z        PSCENC =         0.04144063
  Ewald energy   TEWEN  =       606.57001624
  -Hartree energ DENC   =     -1069.86357439
  -exchange      EXHF   =         0.00000000
  -V(xc)+E(xc)   XCENC  =        51.26021960
  PAW double counting   =       666.64636753     -669.20846354
  entropy T*S    EENTRO =         0.00000000
  eigenvalues    EBANDS =      -214.53819485
  atomic energy  EATOM  =       596.16534815
  Solvation  Ediel_sol  =         0.00000000
  ---------------------------------------------------
  free energy    TOTEN  =       -32.92684063 eV

  energy without entropy =      -32.92684063  energy(sigma->0) =      -32.92684063


--------------------------------------------------------------------------------------------------------




----------------------------------------- Iteration    1(   8)  ---------------------------------------


    POTLOK:  cpu time    6.1841: real time    6.1892
    SETDIJ:  cpu time    0.0030: real time    0.0035
     EDDAV:  cpu time    6.2490: real time    6.2782
       DOS:  cpu time    0.0000: real time    0.0002
    CHARGE:  cpu time    1.1788: real time    1.1804
    MIXING:  cpu time    0.2370: real time    0.2366
    --------------------------------------------
      LOOP:  cpu time   13.8539: real time   13.8915

 eigenvalue-minimisations  :   256
 total energy-change (2. order) : 0.2835396E+00  (-0.5795647E-01)
 number of electron      15.9999989 magnetization 
 augmentation part        0.3440047 magnetization 

 Broyden mixing:
  rms(total) = 0.10894E+00    rms(broyden)= 0.10887E+00
  rms(prec ) = 0.11411E+00
  weight for this iteration     100.00

 eigenvalues of (default mixing * dielectric matrix)
  average eigenvalue GAMMA=   1.2700
  0.4628  1.1830  2.1642

 Free energy of the ion-electron system (eV)
  ---------------------------------------------------
  alpha Z        PSCENC =         0.04144063
  Ewald energy   TEWEN  =       606.57001624
  -Hartree energ DENC   =     -1082.26192348
  -exchange      EXHF   =         0.00000000
  -V(xc)+E(xc)   XCENC  =        52.03532537
  PAW double counting   =       836.42406068     -839.05059074
  entropy T*S    EENTRO =         0.00000000
  eigenvalues    EBANDS =      -202.56697789
  atomic energy  EATOM  =       596.16534815
  Solvation  Ediel_sol  =         0.00000000
  ---------------------------------------------------
  free energy    TOTEN  =       -32.64330105 eV

  energy without entropy =      -32.64330105  energy(sigma->0) =      -32.64330105


--------------------------------------------------------------------------------------------------------




----------------------------------------- Iteration    1(   9)  ---------------------------------------


    POTLOK:  cpu time    6.1971: real time    6.2036
    SETDIJ:  cpu time    0.0040: real time    0.0035
     EDDAV:  cpu time    6.2480: real time    6.2742
       DOS:  cpu time    0.0000: real time    0.0002
    CHARGE:  cpu time    1.1838: real time    1.1854
    MIXING:  cpu time    0.2510: real time    0.2504
    --------------------------------------------
      LOOP:  cpu time   13.8849: real time   13.9200

 eigenvalue-minimisations  :   256
 total energy-change (2. order) : 0.3260719E-01  (-0.9521498E-02)
 number of electron      15.9999989 magnetization 
 augmentation part        0.3355291 magnetization 

 Broyden mixing:
  rms(total) = 0.47397E-01    rms(broyden)= 0.47299E-01
  rms(prec ) = 0.52151E-01
  weight for this iteration     100.00

 eigenvalues of (default mixing * dielectric matrix)
  average eigenvalue GAMMA=   1.2455
  2.2485  1.4528  0.4677  0.8129

 Free energy of the ion-electron system (eV)
  ---------------------------------------------------
  alpha Z        PSCENC =         0.04144063
  Ewald energy   TEWEN  =       606.57001624
  -Hartree energ DENC   =     -1086.37646268
  -exchange      EXHF   =         0.00000000
  -V(xc)+E(xc)   XCENC  =        52.28554276
  PAW double counting   =       897.39492410     -900.01870503
  entropy T*S    EENTRO =         0.00000000
  eigenvalues    EBANDS =      -198.67279803
  atomic energy  EATOM  =       596.16534815
  Solvation  Ediel_sol  =         0.00000000
  ---------------------------------------------------
  free energy    TOTEN  =       -32.61069386 eV

  energy without entropy =      -32.61069386  energy(sigma->0) =      -32.61069386


--------------------------------------------------------------------------------------------------------




----------------------------------------- Iteration    1(  10)  ---------------------------------------


    POTLOK:  cpu time    6.2051: real time    6.2172
    SETDIJ:  cpu time    0.0030: real time    0.0025
     EDDAV:  cpu time    6.2860: real time    6.3121
       DOS:  cpu time    0.0000: real time    0.0002
    CHARGE:  cpu time    1.1878: real time    1.1887
    MIXING:  cpu time    0.2690: real time    0.2700
    --------------------------------------------
      LOOP:  cpu time   13.9509: real time   13.9931

 eigenvalue-minimisations  :   256
 total energy-change (2. order) : 0.7728647E-02  (-0.6571179E-03)
 number of electron      15.9999989 magnetization 
 augmentation part        0.3375450 magnetization 

 Broyden mixing:
  rms(total) = 0.22580E-01    rms(broyden)= 0.22574E-01
  rms(prec ) = 0.27117E-01
  weight for this iteration     100.00

 eigenvalues of (default mixing * dielectric matrix)
  average eigenvalue GAMMA=   1.3044
  2.2728  0.4661  0.9818  1.4006  1.4006

 Free energy of the ion-electron system (eV)
  ---------------------------------------------------
  alpha Z        PSCENC =         0.04144063
  Ewald energy   TEWEN  =       606.57001624
  -Hartree energ DENC   =     -1087.19180326
  -exchange      EXHF   =         0.00000000
  -V(xc)+E(xc)   XCENC  =        52.31655480
  PAW double counting   =       906.02465011     -908.63727086
  entropy T*S    EENTRO =         0.00000000
  eigenvalues    EBANDS =      -197.89190102
  atomic energy  EATOM  =       596.16534815
  Solvation  Ediel_sol  =         0.00000000
  ---------------------------------------------------
  free energy    TOTEN  =       -32.60296521 eV

  energy without entropy =      -32.60296521  energy(sigma->0) =      -32.60296521


--------------------------------------------------------------------------------------------------------




----------------------------------------- Iteration    1(  11)  ---------------------------------------


    POTLOK:  cpu time    6.4420: real time    6.4472
    SETDIJ:  cpu time    0.0030: real time    0.0038
     EDDAV:  cpu time    6.2920: real time    6.3147
       DOS:  cpu time    0.0000: real time    0.0002
    CHARGE:  cpu time    1.1808: real time    1.1822
    MIXING:  cpu time    0.2850: real time    0.2852
    --------------------------------------------
      LOOP:  cpu time   14.2058: real time   14.2360

 eigenvalue-minimisations  :   256
 total energy-change (2. order) : 0.2060260E-02  (-0.2310314E-03)
 number of electron      15.9999989 magnetization 
 augmentation part        0.3384122 magnetization 

 Broyden mixing:
  rms(total) = 0.95614E-02    rms(broyden)= 0.95441E-02
  rms(prec ) = 0.14215E-01
  weight for this iteration     100.00

 eigenvalues of (default mixing * dielectric matrix)
  average eigenvalue GAMMA=   1.4091
  2.4148  2.4148  0.4662  0.9098  1.1245  1.1245

 Free energy of the ion-electron system (eV)
  ---------------------------------------------------
  alpha Z        PSCENC =         0.04144063
  Ewald energy   TEWEN  =       606.57001624
  -Hartree energ DENC   =     -1088.26495758
  -exchange      EXHF   =         0.00000000
  -V(xc)+E(xc)   XCENC  =        52.34607430
  PAW double counting   =       906.75806047     -909.36697268
  entropy T*S    EENTRO =         0.00000000
  eigenvalues    EBANDS =      -196.84991447
  atomic energy  EATOM  =       596.16534815
  Solvation  Ediel_sol  =         0.00000000
  ---------------------------------------------------
  free energy    TOTEN  =       -32.60090495 eV

  energy without entropy =      -32.60090495  energy(sigma->0) =      -32.60090495


--------------------------------------------------------------------------------------------------------




----------------------------------------- Iteration    1(  12)  ---------------------------------------


    POTLOK:  cpu time    6.2231: real time    6.2289
    SETDIJ:  cpu time    0.0040: real time    0.0046
     EDDAV:  cpu time    6.3130: real time    6.3343
       DOS:  cpu time    0.0000: real time    0.0002
    CHARGE:  cpu time    1.2058: real time    1.2079
    MIXING:  cpu time    0.3080: real time    0.3092
    --------------------------------------------
      LOOP:  cpu time   14.0549: real time   14.0882

 eigenvalue-minimisations  :   256
 total energy-change (2. order) :-0.1172458E-02  (-0.9238109E-04)
 number of electron      15.9999989 magnetization 
 augmentation part        0.3385484 magnetization 

 Broyden mixing:
  rms(total) = 0.72812E-02    rms(broyden)= 0.72737E-02
  rms(prec ) = 0.10242E-01
  weight for this iteration     100.00

 eigenvalues of (default mixing * dielectric matrix)
  average eigenvalue GAMMA=   1.5579
  3.2499  2.2796  0.4662  0.9078  1.4039  1.4039  1.1937

 Free energy of the ion-electron system (eV)
  ---------------------------------------------------
  alpha Z        PSCENC =         0.04144063
  Ewald energy   TEWEN  =       606.57001624
  -Hartree energ DENC   =     -1089.21744559
  -exchange      EXHF   =         0.00000000
  -V(xc)+E(xc)   XCENC  =        52.36673423
  PAW double counting   =       903.95093737     -906.55665264
  entropy T*S    EENTRO =         0.00000000
  eigenvalues    EBANDS =      -195.92245580
  atomic energy  EATOM  =       596.16534815
  Solvation  Ediel_sol  =         0.00000000
  ---------------------------------------------------
  free energy    TOTEN  =       -32.60207741 eV

  energy without entropy =      -32.60207741  energy(sigma->0) =      -32.60207741


--------------------------------------------------------------------------------------------------------




----------------------------------------- Iteration    1(  13)  ---------------------------------------


    POTLOK:  cpu time    6.2231: real time    6.2300
    SETDIJ:  cpu time    0.0030: real time    0.0031
     EDDAV:  cpu time    6.3120: real time    6.3360
       DOS:  cpu time    0.0000: real time    0.0002
    CHARGE:  cpu time    1.2058: real time    1.2074
    MIXING:  cpu time    0.3279: real time    0.3288
    --------------------------------------------
      LOOP:  cpu time   14.0739: real time   14.1164

 eigenvalue-minimisations  :   256
 total energy-change (2. order) :-0.4932986E-02  (-0.2396048E-03)
 number of electron      15.9999989 magnetization 
 augmentation part        0.3378650 magnetization 

 Broyden mixing:
  rms(total) = 0.35006E-02    rms(broyden)= 0.34971E-02
  rms(prec ) = 0.51915E-02
  weight for this iteration     100.00

 eigenvalues of (default mixing * dielectric matrix)
  average eigenvalue GAMMA=   1.7299
  4.4474  2.4256  1.9415  0.4662  1.3280  1.3280  0.9193  0.9831

 Free energy of the ion-electron system (eV)
  ---------------------------------------------------
  alpha Z        PSCENC =         0.04144063
  Ewald energy   TEWEN  =       606.57001624
  -Hartree energ DENC   =     -1090.36012786
  -exchange      EXHF   =         0.00000000
  -V(xc)+E(xc)   XCENC  =        52.39536204
  PAW double counting   =       902.71178884     -905.31705390
  entropy T*S    EENTRO =         0.00000000
  eigenvalues    EBANDS =      -194.81378454
  atomic energy  EATOM  =       596.16534815
  Solvation  Ediel_sol  =         0.00000000
  ---------------------------------------------------
  free energy    TOTEN  =       -32.60701040 eV

  energy without entropy =      -32.60701040  energy(sigma->0) =      -32.60701040


--------------------------------------------------------------------------------------------------------




----------------------------------------- Iteration    1(  14)  ---------------------------------------


    POTLOK:  cpu time    6.2501: real time    6.2604
    SETDIJ:  cpu time    0.0020: real time    0.0025
     EDDAV:  cpu time    6.2580: real time    6.2805
       DOS:  cpu time    0.0000: real time    0.0002
    CHARGE:  cpu time    1.1898: real time    1.1925
    MIXING:  cpu time    0.3429: real time    0.3429
    --------------------------------------------
      LOOP:  cpu time   14.0439: real time   14.0817

 eigenvalue-minimisations  :   256
 total energy-change (2. order) :-0.4445507E-02  (-0.9462890E-04)
 number of electron      15.9999989 magnetization 
 augmentation part        0.3377969 magnetization 

 Broyden mixing:
  rms(total) = 0.21033E-02    rms(broyden)= 0.21015E-02
  rms(prec ) = 0.29937E-02
  weight for this iteration     100.00

 eigenvalues of (default mixing * dielectric matrix)
  average eigenvalue GAMMA=   1.7911
  5.0510  2.6983  1.7722  1.7722  0.4662  1.2865  1.2865  0.8935  0.8935

 Free energy of the ion-electron system (eV)
  ---------------------------------------------------
  alpha Z        PSCENC =         0.04144063
  Ewald energy   TEWEN  =       606.57001624
  -Hartree energ DENC   =     -1090.82242645
  -exchange      EXHF   =         0.00000000
  -V(xc)+E(xc)   XCENC  =        52.39723076
  PAW double counting   =       900.70190628     -903.30725533
  entropy T*S    EENTRO =         0.00000000
  eigenvalues    EBANDS =      -194.35771619
  atomic energy  EATOM  =       596.16534815
  Solvation  Ediel_sol  =         0.00000000
  ---------------------------------------------------
  free energy    TOTEN  =       -32.61145590 eV

  energy without entropy =      -32.61145590  energy(sigma->0) =      -32.61145590


--------------------------------------------------------------------------------------------------------




----------------------------------------- Iteration    1(  15)  ---------------------------------------


    POTLOK:  cpu time    6.2341: real time    6.2453
    SETDIJ:  cpu time    0.0030: real time    0.0029
     EDDAV:  cpu time    6.2770: real time    6.3028
       DOS:  cpu time    0.0000: real time    0.0002
    CHARGE:  cpu time    1.1958: real time    1.1968
    MIXING:  cpu time    0.3689: real time    0.3702
    --------------------------------------------
      LOOP:  cpu time   14.0799: real time   14.1211

 eigenvalue-minimisations  :   256
 total energy-change (2. order) :-0.2607067E-02  (-0.2202460E-04)
 number of electron      15.9999989 magnetization 
 augmentation part        0.3377815 magnetization 

 Broyden mixing:
  rms(total) = 0.14168E-02    rms(broyden)= 0.14166E-02
  rms(prec ) = 0.19868E-02
  weight for this iteration     100.00

 eigenvalues of (default mixing * dielectric matrix)
  average eigenvalue GAMMA=   1.9148
  5.8045  3.1699  2.3766  0.4662  1.7353  1.3358  1.3358  1.0862  0.9192  0.9192

 Free energy of the ion-electron system (eV)
  ---------------------------------------------------
  alpha Z        PSCENC =         0.04144063
  Ewald energy   TEWEN  =       606.57001624
  -Hartree energ DENC   =     -1090.90438177
  -exchange      EXHF   =         0.00000000
  -V(xc)+E(xc)   XCENC  =        52.39250975
  PAW double counting   =       900.42445049     -903.02956856
  entropy T*S    EENTRO =         0.00000000
  eigenvalues    EBANDS =      -194.27387789
  atomic energy  EATOM  =       596.16534815
  Solvation  Ediel_sol  =         0.00000000
  ---------------------------------------------------
  free energy    TOTEN  =       -32.61406297 eV

  energy without entropy =      -32.61406297  energy(sigma->0) =      -32.61406297


--------------------------------------------------------------------------------------------------------




----------------------------------------- Iteration    1(  16)  ---------------------------------------


    POTLOK:  cpu time    6.2201: real time    6.2273
    SETDIJ:  cpu time    0.0030: real time    0.0025
     EDDAV:  cpu time    6.2630: real time    6.2887
       DOS:  cpu time    0.0010: real time    0.0002
    CHARGE:  cpu time    1.1818: real time    1.1835
    MIXING:  cpu time    0.3879: real time    0.3883
    --------------------------------------------
      LOOP:  cpu time   14.0579: real time   14.0930

 eigenvalue-minimisations  :   256
 total energy-change (2. order) :-0.2352694E-02  (-0.2549989E-04)
 number of electron      15.9999989 magnetization 
 augmentation part        0.3377462 magnetization 

 Broyden mixing:
  rms(total) = 0.88205E-03    rms(broyden)= 0.88188E-03
  rms(prec ) = 0.11470E-02
  weight for this iteration     100.00

 eigenvalues of (default mixing * dielectric matrix)
  average eigenvalue GAMMA=   2.0605
  6.9039  3.7390  2.3964  2.0654  1.7828  0.4662  1.2645  1.2645  0.9363  0.9363
  0.9105

 Free energy of the ion-electron system (eV)
  ---------------------------------------------------
  alpha Z        PSCENC =         0.04144063
  Ewald energy   TEWEN  =       606.57001624
  -Hartree energ DENC   =     -1090.96564142
  -exchange      EXHF   =         0.00000000
  -V(xc)+E(xc)   XCENC  =        52.38966405
  PAW double counting   =       901.15718508     -903.76233049
  entropy T*S    EENTRO =         0.00000000
  eigenvalues    EBANDS =      -194.21209790
  atomic energy  EATOM  =       596.16534815
  Solvation  Ediel_sol  =         0.00000000
  ---------------------------------------------------
  free energy    TOTEN  =       -32.61641566 eV

  energy without entropy =      -32.61641566  energy(sigma->0) =      -32.61641566


--------------------------------------------------------------------------------------------------------




----------------------------------------- Iteration    1(  17)  ---------------------------------------


    POTLOK:  cpu time    6.1961: real time    6.2012
    SETDIJ:  cpu time    0.0030: real time    0.0038
     EDDAV:  cpu time    5.3642: real time    5.4167
       DOS:  cpu time    0.0000: real time    0.0002
    CHARGE:  cpu time    1.1988: real time    1.1997
    MIXING:  cpu time    0.4139: real time    0.4148
    --------------------------------------------
      LOOP:  cpu time   13.1790: real time   13.2391

 eigenvalue-minimisations  :   192
 total energy-change (2. order) :-0.1103414E-02  (-0.6683108E-05)
 number of electron      15.9999989 magnetization 
 augmentation part        0.3377936 magnetization 

 Broyden mixing:
  rms(total) = 0.41997E-03    rms(broyden)= 0.41915E-03
  rms(prec ) = 0.55372E-03
  weight for this iteration     100.00

 eigenvalues of (default mixing * dielectric matrix)
  average eigenvalue GAMMA=   2.0965
  7.5411  3.9922  2.7153  2.2641  0.4662  1.5654  1.2917  1.2917  1.2066  1.0154
  0.9038  0.9038

 Free energy of the ion-electron system (eV)
  ---------------------------------------------------
  alpha Z        PSCENC =         0.04144063
  Ewald energy   TEWEN  =       606.57001624
  -Hartree energ DENC   =     -1090.99303021
  -exchange      EXHF   =         0.00000000
  -V(xc)+E(xc)   XCENC  =        52.38750812
  PAW double counting   =       901.04653616     -903.65175934
  entropy T*S    EENTRO =         0.00000000
  eigenvalues    EBANDS =      -194.18357882
  atomic energy  EATOM  =       596.16534815
  Solvation  Ediel_sol  =         0.00000000
  ---------------------------------------------------
  free energy    TOTEN  =       -32.61751908 eV

  energy without entropy =      -32.61751908  energy(sigma->0) =      -32.61751908


--------------------------------------------------------------------------------------------------------




----------------------------------------- Iteration    1(  18)  ---------------------------------------


    POTLOK:  cpu time    6.2031: real time    6.2086
    SETDIJ:  cpu time    0.0050: real time    0.0041
     EDDAV:  cpu time    5.1922: real time    5.2173
       DOS:  cpu time    0.0000: real time    0.0002
    CHARGE:  cpu time    1.1808: real time    1.1832
    MIXING:  cpu time    0.4409: real time    0.4402
    --------------------------------------------
      LOOP:  cpu time   13.0220: real time   13.0572

 eigenvalue-minimisations  :   184
 total energy-change (2. order) :-0.4095307E-03  (-0.3912046E-05)
 number of electron      15.9999989 magnetization 
 augmentation part        0.3377880 magnetization 

 Broyden mixing:
  rms(total) = 0.39262E-03    rms(broyden)= 0.39256E-03
  rms(prec ) = 0.45419E-03
  weight for this iteration     100.00

 eigenvalues of (default mixing * dielectric matrix)
  average eigenvalue GAMMA=   2.2123
  8.1888  4.7800  2.5740  2.5740  1.9648  1.9648  0.4662  1.2646  1.2646  0.9105
  0.9105  0.9488  0.9488

 Free energy of the ion-electron system (eV)
  ---------------------------------------------------
  alpha Z        PSCENC =         0.04144063
  Ewald energy   TEWEN  =       606.57001624
  -Hartree energ DENC   =     -1090.99982620
  -exchange      EXHF   =         0.00000000
  -V(xc)+E(xc)   XCENC  =        52.38686021
  PAW double counting   =       901.05844187     -903.66358194
  entropy T*S    EENTRO =         0.00000000
  eigenvalues    EBANDS =      -194.17662757
  atomic energy  EATOM  =       596.16534815
  Solvation  Ediel_sol  =         0.00000000
  ---------------------------------------------------
  free energy    TOTEN  =       -32.61792861 eV

  energy without entropy =      -32.61792861  energy(sigma->0) =      -32.61792861


--------------------------------------------------------------------------------------------------------




----------------------------------------- Iteration    1(  19)  ---------------------------------------


    POTLOK:  cpu time    6.1821: real time    6.1907
    SETDIJ:  cpu time    0.0020: real time    0.0025
     EDDAV:  cpu time    4.8393: real time    4.8612
       DOS:  cpu time    0.0000: real time    0.0002
    CHARGE:  cpu time    1.1848: real time    1.1857
    MIXING:  cpu time    0.4649: real time    0.4659
    --------------------------------------------
      LOOP:  cpu time   12.6741: real time   12.7087

 eigenvalue-minimisations  :   164
 total energy-change (2. order) :-0.2619733E-03  (-0.2116611E-05)
 number of electron      15.9999989 magnetization 
 augmentation part        0.3377630 magnetization 

 Broyden mixing:
  rms(total) = 0.12840E-03    rms(broyden)= 0.12805E-03
  rms(prec ) = 0.16914E-03
  weight for this iteration     100.00

 eigenvalues of (default mixing * dielectric matrix)
  average eigenvalue GAMMA=   2.2007
  8.3912  4.8062  3.1061  2.5733  2.0162  0.4662  1.5535  1.5535  1.2663  1.2663
  1.0199  0.9248  0.9248  0.9417

 Free energy of the ion-electron system (eV)
  ---------------------------------------------------
  alpha Z        PSCENC =         0.04144063
  Ewald energy   TEWEN  =       606.57001624
  -Hartree energ DENC   =     -1090.99196393
  -exchange      EXHF   =         0.00000000
  -V(xc)+E(xc)   XCENC  =        52.38606863
  PAW double counting   =       901.01056711     -903.61566161
  entropy T*S    EENTRO =         0.00000000
  eigenvalues    EBANDS =      -194.18400581
  atomic energy  EATOM  =       596.16534815
  Solvation  Ediel_sol  =         0.00000000
  ---------------------------------------------------
  free energy    TOTEN  =       -32.61819058 eV

  energy without entropy =      -32.61819058  energy(sigma->0) =      -32.61819058


--------------------------------------------------------------------------------------------------------




----------------------------------------- Iteration    1(  20)  ---------------------------------------


    POTLOK:  cpu time    6.1681: real time    6.1758
    SETDIJ:  cpu time    0.0030: real time    0.0025
     EDDAV:  cpu time    5.3152: real time    5.3401
       DOS:  cpu time    0.0000: real time    0.0002
    --------------------------------------------
      LOOP:  cpu time   11.4873: real time   11.5214

 eigenvalue-minimisations  :   192
 total energy-change (2. order) :-0.9126204E-04  (-0.6845876E-06)
 number of electron      15.9999989 magnetization 
 augmentation part        0.3377630 magnetization 

 Free energy of the ion-electron system (eV)
  ---------------------------------------------------
  alpha Z        PSCENC =         0.04144063
  Ewald energy   TEWEN  =       606.57001624
  -Hartree energ DENC   =     -1090.99940138
  -exchange      EXHF   =         0.00000000
  -V(xc)+E(xc)   XCENC  =        52.38622867
  PAW double counting   =       900.95507982     -903.56021422
  entropy T*S    EENTRO =         0.00000000
  eigenvalues    EBANDS =      -194.17677975
  atomic energy  EATOM  =       596.16534815
  Solvation  Ediel_sol  =         0.00000000
  ---------------------------------------------------
  free energy    TOTEN  =       -32.61828184 eV

  energy without entropy =      -32.61828184  energy(sigma->0) =      -32.61828184


--------------------------------------------------------------------------------------------------------




 average (electrostatic) potential at core
  the test charge radii are     0.5201  0.6991  0.7089
  (the norm of the test charge is              1.0000)
       1 -42.6582       2 -42.6606       3 -42.6587       4 -60.5559       5 -61.0282
       6 -74.4902
 
 
 
 E-fermi :  -6.0620     XC(G=0):  -0.0967     alpha+bet : -0.0137


 k-point     1 :       0.0000    0.0000    0.0000
  band No.  band energies     occupation 
      1     -21.5513      2.00000
      2     -17.5266      2.00000
      3     -13.3924      2.00000
      4     -11.0450      2.00000
      5     -11.0431      2.00000
      6      -8.5017      2.00000
      7      -7.0144      2.00000
      8      -7.0138      2.00000
      9      -2.6807      0.00000
     10      -2.6801      0.00000
     11      -0.8528      0.00000
     12      -0.0401      0.00000

 k-point     2 :       0.5000    0.0000    0.0000
  band No.  band energies     occupation 
      1     -21.5513      2.00000
      2     -17.5266      2.00000
      3     -13.3924      2.00000
      4     -11.0451      2.00000
      5     -11.0431      2.00000
      6      -8.5017      2.00000
      7      -7.0144      2.00000
      8      -7.0139      2.00000
      9      -2.6807      0.00000
     10      -2.6800      0.00000
     11      -0.8528      0.00000
     12       0.0042      0.00000

 k-point     3 :       0.0000    0.5000    0.0000
  band No.  band energies     occupation 
      1     -21.5513      2.00000
      2     -17.5266      2.00000
      3     -13.3924      2.00000
      4     -11.0451      2.00000
      5     -11.0431      2.00000
      6      -8.5017      2.00000
      7      -7.0144      2.00000
      8      -7.0139      2.00000
      9      -2.6807      0.00000
     10      -2.6801      0.00000
     11      -0.8528      0.00000
     12       0.0021      0.00000

 k-point     4 :       0.5000    0.5000    0.0000
  band No.  band energies     occupation 
      1     -21.5513      2.00000
      2     -17.5266      2.00000
      3     -13.3924      2.00000
      4     -11.0450      2.00000
      5     -11.0431      2.00000
      6      -8.5017      2.00000
      7      -7.0144      2.00000
      8      -7.0138      2.00000
      9      -2.6807      0.00000
     10      -2.6801      0.00000
     11      -0.8528      0.00000
     12       0.0252      0.00000

 k-point     5 :       0.0000    0.0000    0.5000
  band No.  band energies     occupation 
      1     -21.5513      2.00000
      2     -17.5266      2.00000
      3     -13.3924      2.00000
      4     -11.0451      2.00000
      5     -11.0431      2.00000
      6      -8.5017      2.00000
      7      -7.0145      2.00000
      8      -7.0139      2.00000
      9      -2.6807      0.00000
     10      -2.6801      0.00000
     11      -0.8528      0.00000
     12       0.0028      0.00000

 k-point     6 :       0.5000    0.0000    0.5000
  band No.  band energies     occupation 
      1     -21.5513      2.00000
      2     -17.5266      2.00000
      3     -13.3924      2.00000
      4     -11.0450      2.00000
      5     -11.0430      2.00000
      6      -8.5017      2.00000
      7      -7.0144      2.00000
      8      -7.0138      2.00000
      9      -2.6807      0.00000
     10      -2.6800      0.00000
     11      -0.8528      0.00000
     12       0.0286      0.00000

 k-point     7 :       0.0000    0.5000    0.5000
  band No.  band energies     occupation 
      1     -21.5513      2.00000
      2     -17.5265      2.00000
      3     -13.3924      2.00000
      4     -11.0451      2.00000
      5     -11.0431      2.00000
      6      -8.5017      2.00000
      7      -7.0144      2.00000
      8      -7.0139      2.00000
      9      -2.6806      0.00000
     10      -2.6800      0.00000
     11      -0.8528      0.00000
     12       0.0216      0.00000

 k-point     8 :       0.5000    0.5000    0.5000
  band No.  band energies     occupation 
      1     -21.5513      2.00000
      2     -17.5266      2.00000
      3     -13.3924      2.00000
      4     -11.0450      2.00000
      5     -11.0430      2.00000
      6      -8.5017      2.00000
      7      -7.0144      2.00000
      8      -7.0138      2.00000
      9      -2.6807      0.00000
     10      -2.6800      0.00000
     11      -0.8528      0.00000
     12       0.0424      0.00000


--------------------------------------------------------------------------------------------------------


 soft charge-density along one line, spin component           1
         0         1         2         3         4         5         6         7         8         9
 total charge-density along one line
 
 pseudopotential strength for first ion, spin component:           1
 -2.358  -4.067  -0.002   0.000  -0.001
 -4.067  -6.927  -0.005   0.001  -0.002
 -0.002  -0.005  -0.333  -0.001   0.001
  0.000   0.001  -0.001  -0.336   0.000
 -0.001  -0.002   0.001   0.000  -0.336
 total augmentation occupancy for first ion, spin component:           1
  3.352  -0.607   0.364  -0.098   0.133
 -0.607   0.125  -0.068   0.018  -0.025
  0.364  -0.068   0.041  -0.009   0.013
 -0.098   0.018  -0.009   0.010  -0.003
  0.133  -0.025   0.013  -0.003   0.009


------------------------ aborting loop because EDIFF is reached ----------------------------------------


    CHARGE:  cpu time    1.2008: real time    1.2031
    FORLOC:  cpu time    0.8789: real time    0.8803
    FORNL :  cpu time    0.7359: real time    0.7422
    STRESS:  cpu time    2.9316: real time    2.9491
    FORCOR:  cpu time    7.3529: real time    7.3861
    FORHAR:  cpu time    2.5316: real time    2.5412
    MIXING:  cpu time    0.5129: real time    0.5140
    OFIELD:  cpu time    0.0000: real time    0.0000

  FORCE on cell =-STRESS in cart. coord.  units (eV):
  Direction    XX          YY          ZZ          XY          YZ          ZX
  --------------------------------------------------------------------------------------
  Alpha Z     0.04144     0.04144     0.04144
  Ewald     536.54926    35.00264    35.01821    -2.14216    -0.00999    -0.00539
  Hartree   565.21517   262.89452   262.88581    -1.15807    -0.00283    -0.00776
  E(xc)     -56.29946   -57.61575   -57.61559    -0.00751    -0.00003    -0.00006
  Local   -1257.48908  -468.45531  -468.45191     3.20544     0.01133     0.01489
  n-local   -17.90974   -18.39855   -18.40159     0.00058     0.00268     0.00290
  augment     0.79843     1.08245     1.08341     0.00140    -0.00004     0.00022
  Kinetic   206.31331   242.81781   242.81792     0.25191     0.00073     0.00114
  Fock        0.00000     0.00000     0.00000     0.00000     0.00000     0.00000
  -------------------------------------------------------------------------------------
  Total     -22.78067    -2.63075    -2.62231     0.15157     0.00186     0.00594
  in kB      -1.35180    -0.15611    -0.15561     0.00899     0.00011     0.00035
  external pressure =       -0.55 kB  Pullay stress =        0.00 kB


 VOLUME and BASIS-vectors are now :
 -----------------------------------------------------------------------------
  energy-cutoff  :      400.00
  volume of cell :    27000.00
      direct lattice vectors                 reciprocal lattice vectors
    30.000000000  0.000000000  0.000000000     0.033333333  0.000000000  0.000000000
     0.000000000 30.000000000  0.000000000     0.000000000  0.033333333  0.000000000
     0.000000000  0.000000000 30.000000000     0.000000000  0.000000000  0.033333333

  length of vectors
    30.000000000 30.000000000 30.000000000     0.033333333  0.033333333  0.033333333


 FORCES acting on ions
    electron-ion (+dipol)            ewald-force                    non-local-force                 convergence-correction
 -----------------------------------------------------------------------------------------------
   0.311E+02 0.522E+02 -.140E+02   -.323E+02 -.558E+02 0.150E+02   0.171E+01 0.465E+01 -.125E+01   0.388E-04 0.124E-03 -.337E-04
   0.310E+02 -.140E+02 0.523E+02   -.323E+02 0.150E+02 -.559E+02   0.171E+01 -.125E+01 0.465E+01   0.383E-04 -.347E-04 0.124E-03
   0.310E+02 -.383E+02 -.383E+02   -.323E+02 0.409E+02 0.409E+02   0.171E+01 -.340E+01 -.340E+01   0.384E-04 -.921E-04 -.908E-04
   0.101E+03 -.109E+00 -.332E-02   -.107E+03 0.104E+00 0.588E-02   0.669E+01 -.411E-02 0.631E-02   0.317E-03 -.594E-05 -.340E-05
   -.152E+03 0.115E+01 0.176E-03   0.164E+03 -.126E+01 -.713E-03   -.243E+02 0.211E+00 0.144E-02   -.576E-03 -.131E-05 0.100E-05
   -.292E+02 -.101E+01 0.350E-02   0.397E+02 0.110E+01 -.281E-02   -.954E+00 -.202E+00 0.538E-02   0.494E-03 -.281E-05 0.488E-06
 -----------------------------------------------------------------------------------------------
   0.135E+02 -.167E-01 -.582E-02   0.000E+00 0.178E-14 0.466E-14   -.135E+02 0.247E-02 0.137E-01   0.351E-03 -.132E-04 -.214E-05
 
 
 POSITION                                       TOTAL-FORCE (eV/Angst)
 -----------------------------------------------------------------------------------
     12.67890     15.03300     15.23040         0.478128      1.040742     -0.280906
     12.67890     16.34940     13.91400         0.476177     -0.273627      1.031172
     12.67890     16.83120     15.71220         0.478439     -0.756176     -0.762153
     13.05900     16.07130     14.95200         0.908855     -0.006355      0.007547
     16.07880     16.05810     14.95200       -11.844088      0.102762     -0.000419
     14.56890     16.07130     14.95200         9.502489     -0.107347      0.004758
 -----------------------------------------------------------------------------------
    total drift:                                0.007843     -0.014194      0.007925


--------------------------------------------------------------------------------------------------------



  FREE ENERGIE OF THE ION-ELECTRON SYSTEM (eV)
  ---------------------------------------------------
  free  energy   TOTEN  =       -32.61828184 eV

  energy  without entropy=      -32.61828184  energy(sigma->0) =      -32.61828184
 


--------------------------------------------------------------------------------------------------------


    POTLOK:  cpu time    6.6900: real time    6.7464


--------------------------------------------------------------------------------------------------------




--------------------------------------------------------------------------------------------------------


    WAVPRE:  cpu time    2.2737: real time    2.2782
 FEWALD executed in parallel
    FEWALD:  cpu time    0.0030: real time    0.0031
    ORTHCH:  cpu time    1.1938: real time    1.2612
     LOOP+:  cpu time  288.7831: real time  292.5509


----------------------------------------- Iteration    2(   1)  ---------------------------------------


    POTLOK:  cpu time    6.6500: real time    6.6695
    SETDIJ:  cpu time    0.0030: real time    0.0028
     EDDAV:  cpu time    5.8641: real time    5.9024
       DOS:  cpu time    0.0000: real time    0.0001
    CHARGE:  cpu time    1.2598: real time    1.2630
    MIXING:  cpu time    0.2300: real time    0.2312
    --------------------------------------------
      LOOP:  cpu time   14.0069: real time   14.0706

 eigenvalue-minimisations  :   192
 total energy-change (2. order) : 0.1557215E+03  (-0.1779729E+03)
 number of electron      16.0000005 magnetization 
 augmentation part        0.8580598 magnetization 

 Broyden mixing:
  rms(total) = 0.16131E+02    rms(broyden)= 0.16130E+02
  rms(prec ) = 0.16136E+02
  weight for this iteration     100.00

 Free energy of the ion-electron system (eV)
  ---------------------------------------------------
  alpha Z        PSCENC =         0.04144063
  Ewald energy   TEWEN  =       995.98916124
  -Hartree energ DENC   =     -1195.04832073
  -exchange      EXHF   =         0.00000000
  -V(xc)+E(xc)   XCENC  =        56.23986330
  PAW double counting   =       900.96870200     -903.57385018
  entropy T*S    EENTRO =         0.00000000
  eigenvalues    EBANDS =      -327.67899887
  atomic energy  EATOM  =       596.16534815
  Solvation  Ediel_sol  =         0.00000000
  ---------------------------------------------------
  free energy    TOTEN  =       123.10334553 eV

  energy without entropy =      123.10334553  energy(sigma->0) =      123.10334553


--------------------------------------------------------------------------------------------------------




----------------------------------------- Iteration    2(   2)  ---------------------------------------


    POTLOK:  cpu time    7.0579: real time    7.0795
    SETDIJ:  cpu time    0.0040: real time    0.0037
     EDDAV:  cpu time    6.2321: real time    6.2690
       DOS:  cpu time    0.0000: real time    0.0001
    CHARGE:  cpu time    1.4438: real time    1.4478
    MIXING:  cpu time    0.2340: real time    0.2347
    --------------------------------------------
      LOOP:  cpu time   14.9727: real time   15.0381

 eigenvalue-minimisations  :   216
 total energy-change (2. order) :-0.1190811E+00  (-0.1029066E+02)
 number of electron      16.0000006 magnetization 
 augmentation part        0.8835158 magnetization 

 Broyden mixing:
  rms(total) = 0.18534E+02    rms(broyden)= 0.18534E+02
  rms(prec ) = 0.18538E+02
  weight for this iteration     100.00

 eigenvalues of (default mixing * dielectric matrix)
  average eigenvalue GAMMA=   3.4536
  3.4536

 Free energy of the ion-electron system (eV)
  ---------------------------------------------------
  alpha Z        PSCENC =         0.04144063
  Ewald energy   TEWEN  =       995.98916124
  -Hartree energ DENC   =     -1236.32362904
  -exchange      EXHF   =         0.00000000
  -V(xc)+E(xc)   XCENC  =        58.42780786
  PAW double counting   =     12556.75904716   -12560.42087833
  entropy T*S    EENTRO =         0.00000000
  eigenvalues    EBANDS =      -287.65403322
  atomic energy  EATOM  =       596.16534815
  Solvation  Ediel_sol  =         0.00000000
  ---------------------------------------------------
  free energy    TOTEN  =       122.98426444 eV

  energy without entropy =      122.98426444  energy(sigma->0) =      122.98426444


--------------------------------------------------------------------------------------------------------




----------------------------------------- Iteration    2(   3)  ---------------------------------------


    POTLOK:  cpu time    7.2559: real time    7.2769
    SETDIJ:  cpu time    0.0030: real time    0.0026
     EDDAV:  cpu time    6.5400: real time    6.5771
       DOS:  cpu time    0.0000: real time    0.0001
    CHARGE:  cpu time    1.3128: real time    1.3172
    MIXING:  cpu time    0.2540: real time    0.2555
    --------------------------------------------
      LOOP:  cpu time   15.3667: real time   15.4324

 eigenvalue-minimisations  :   232
 total energy-change (2. order) : 0.3291561E+02  (-0.1374083E+02)
 number of electron      15.9999989 magnetization 
 augmentation part        1.3577305 magnetization 

 Broyden mixing:
  rms(total) = 0.71229E+02    rms(broyden)= 0.71229E+02
  rms(prec ) = 0.71237E+02
  weight for this iteration     100.00

 eigenvalues of (default mixing * dielectric matrix)
  average eigenvalue GAMMA=   0.9718
  0.9718  0.9718

 Free energy of the ion-electron system (eV)
[...]
 augmentation part        0.4495928 magnetization 

 Broyden mixing:
  rms(total) = 0.77861E-03    rms(broyden)= 0.77813E-03
  rms(prec ) = 0.79472E-03
  weight for this iteration     100.00

 eigenvalues of (default mixing * dielectric matrix)
  average eigenvalue GAMMA=   1.3433
  1.3433

 Free energy of the ion-electron system (eV)
  ---------------------------------------------------
  alpha Z        PSCENC =         0.04144063
  Ewald energy   TEWEN  =       702.57779606
  -Hartree energ DENC   =     -1177.61224581
  -exchange      EXHF   =         0.00000000
  -V(xc)+E(xc)   XCENC  =        54.85525929
  PAW double counting   =      1328.21153285    -1331.07876408
  entropy T*S    EENTRO =         0.00000000
  eigenvalues    EBANDS =      -208.80393670
  atomic energy  EATOM  =       596.16534815
  Solvation  Ediel_sol  =         0.00000000
  ---------------------------------------------------
  free energy    TOTEN  =       -35.64356961 eV

  energy without entropy =      -35.64356961  energy(sigma->0) =      -35.64356961


--------------------------------------------------------------------------------------------------------




----------------------------------------- Iteration   21(   3)  ---------------------------------------


    POTLOK:  cpu time    7.1399: real time    7.1636
    SETDIJ:  cpu time    0.0030: real time    0.0027
     EDDAV:  cpu time    4.6943: real time    4.7318
       DOS:  cpu time    0.0010: real time    0.0003
    CHARGE:  cpu time    1.4798: real time    1.4848
    MIXING:  cpu time    0.2330: real time    0.2346
    --------------------------------------------
      LOOP:  cpu time   13.5519: real time   13.6214

 eigenvalue-minimisations  :   128
 total energy-change (2. order) :-0.3241759E-06  (-0.7644694E-06)
 number of electron      15.9999979 magnetization 
 augmentation part        0.4496187 magnetization 

 Broyden mixing:
  rms(total) = 0.34055E-03    rms(broyden)= 0.34023E-03
  rms(prec ) = 0.34623E-03
  weight for this iteration     100.00

 eigenvalues of (default mixing * dielectric matrix)
  average eigenvalue GAMMA=   1.4509
  1.4509  1.4509

 Free energy of the ion-electron system (eV)
  ---------------------------------------------------
  alpha Z        PSCENC =         0.04144063
  Ewald energy   TEWEN  =       702.57779606
  -Hartree energ DENC   =     -1177.60358273
  -exchange      EXHF   =         0.00000000
  -V(xc)+E(xc)   XCENC  =        54.85489543
  PAW double counting   =      1327.98176879    -1330.84887382
  entropy T*S    EENTRO =         0.00000000
  eigenvalues    EBANDS =      -208.81236244
  atomic energy  EATOM  =       596.16534815
  Solvation  Ediel_sol  =         0.00000000
  ---------------------------------------------------
  free energy    TOTEN  =       -35.64356994 eV

  energy without entropy =      -35.64356994  energy(sigma->0) =      -35.64356994


--------------------------------------------------------------------------------------------------------




----------------------------------------- Iteration   21(   4)  ---------------------------------------


    POTLOK:  cpu time    6.8810: real time    6.9068
    SETDIJ:  cpu time    0.0030: real time    0.0025
     EDDAV:  cpu time    4.3453: real time    4.3882
       DOS:  cpu time    0.0000: real time    0.0002
    CHARGE:  cpu time    1.2008: real time    1.2030
    MIXING:  cpu time    0.2380: real time    0.2382
    --------------------------------------------
      LOOP:  cpu time   12.6751: real time   21.3083

 eigenvalue-minimisations  :   132
 total energy-change (2. order) :-0.5261591E-06  (-0.1479330E-06)
 number of electron      15.9999979 magnetization 
 augmentation part        0.4496132 magnetization 

 Broyden mixing:
  rms(total) = 0.15311E-03    rms(broyden)= 0.15303E-03
  rms(prec ) = 0.15548E-03
  weight for this iteration     100.00

 eigenvalues of (default mixing * dielectric matrix)
  average eigenvalue GAMMA=   1.4618
  2.1720  1.0080  1.2054

 Free energy of the ion-electron system (eV)
  ---------------------------------------------------
  alpha Z        PSCENC =         0.04144063
  Ewald energy   TEWEN  =       702.57779606
  -Hartree energ DENC   =     -1177.60633390
  -exchange      EXHF   =         0.00000000
  -V(xc)+E(xc)   XCENC  =        54.85495058
  PAW double counting   =      1327.85006479    -1330.71718518
  entropy T*S    EENTRO =         0.00000000
  eigenvalues    EBANDS =      -208.80965159
  atomic energy  EATOM  =       596.16534815
  Solvation  Ediel_sol  =         0.00000000
  ---------------------------------------------------
  free energy    TOTEN  =       -35.64357046 eV

  energy without entropy =      -35.64357046  energy(sigma->0) =      -35.64357046


--------------------------------------------------------------------------------------------------------




----------------------------------------- Iteration   21(   5)  ---------------------------------------


    POTLOK:  cpu time    6.9789: real time    7.0037
    SETDIJ:  cpu time    0.0020: real time    0.0025
     EDDAV:  cpu time    4.5483: real time    4.5805
       DOS:  cpu time    0.0000: real time    0.0002
    CHARGE:  cpu time    1.3838: real time    1.3888
    MIXING:  cpu time    0.2920: real time    0.2934
    --------------------------------------------
      LOOP:  cpu time   13.2080: real time   20.1641

 eigenvalue-minimisations  :   144
 total energy-change (2. order) :-0.2901265E-06  (-0.3093669E-07)
 number of electron      15.9999979 magnetization 
 augmentation part        0.4496175 magnetization 

 Broyden mixing:
  rms(total) = 0.65842E-04    rms(broyden)= 0.65798E-04
  rms(prec ) = 0.67095E-04
  weight for this iteration     100.00

 eigenvalues of (default mixing * dielectric matrix)
  average eigenvalue GAMMA=   1.5413
  2.3764  1.7502  0.9583  1.0801

 Free energy of the ion-electron system (eV)
  ---------------------------------------------------
  alpha Z        PSCENC =         0.04144063
  Ewald energy   TEWEN  =       702.57779606
  -Hartree energ DENC   =     -1177.60640090
  -exchange      EXHF   =         0.00000000
  -V(xc)+E(xc)   XCENC  =        54.85493514
  PAW double counting   =      1327.76842958    -1330.63555198
  entropy T*S    EENTRO =         0.00000000
  eigenvalues    EBANDS =      -208.80956743
  atomic energy  EATOM  =       596.16534815
  Solvation  Ediel_sol  =         0.00000000
  ---------------------------------------------------
  free energy    TOTEN  =       -35.64357075 eV

  energy without entropy =      -35.64357075  energy(sigma->0) =      -35.64357075


--------------------------------------------------------------------------------------------------------




----------------------------------------- Iteration   21(   6)  ---------------------------------------


    POTLOK:  cpu time    6.8520: real time    6.8745
    SETDIJ:  cpu time    0.0050: real time    0.0051
     EDDAV:  cpu time    4.7123: real time    4.7406
       DOS:  cpu time    0.0010: real time    0.0002
    --------------------------------------------
      LOOP:  cpu time   11.5712: real time   11.6230

 eigenvalue-minimisations  :   140
 total energy-change (2. order) :-0.2059248E-06  (-0.8517382E-08)
 number of electron      15.9999979 magnetization 
 augmentation part        0.4496175 magnetization 

 Free energy of the ion-electron system (eV)
  ---------------------------------------------------
  alpha Z        PSCENC =         0.04144063
  Ewald energy   TEWEN  =       702.57779606
  -Hartree energ DENC   =     -1177.60734161
  -exchange      EXHF   =         0.00000000
  -V(xc)+E(xc)   XCENC  =        54.85496478
  PAW double counting   =      1327.72763552    -1330.59477463
  entropy T*S    EENTRO =         0.00000000
  eigenvalues    EBANDS =      -208.80863986
  atomic energy  EATOM  =       596.16534815
  Solvation  Ediel_sol  =         0.00000000
  ---------------------------------------------------
  free energy    TOTEN  =       -35.64357096 eV

  energy without entropy =      -35.64357096  energy(sigma->0) =      -35.64357096


--------------------------------------------------------------------------------------------------------




 average (electrostatic) potential at core
  the test charge radii are     0.5201  0.6991  0.7089
  (the norm of the test charge is              1.0000)
       1 -43.0752       2 -43.0784       3 -43.0769       4 -60.5373       5 -59.3482
       6 -74.8314
 
 
 
 E-fermi :  -6.2111     XC(G=0):  -0.0595     alpha+bet : -0.0137


 k-point     1 :       0.0000    0.0000    0.0000
  band No.  band energies     occupation 
      1     -23.8867      2.00000
      2     -19.2960      2.00000
      3     -13.8841      2.00000
      4     -11.7941      2.00000
      5     -11.7931      2.00000
      6      -8.3035      2.00000
      7      -8.3022      2.00000
      8      -7.1446      2.00000
      9      -0.7617      0.00000
     10      -0.6644      0.00000
     11      -0.6638      0.00000
     12      -0.0001      0.00000

 k-point     2 :       0.5000    0.0000    0.0000
  band No.  band energies     occupation 
      1     -23.8867      2.00000
      2     -19.2960      2.00000
      3     -13.8841      2.00000
      4     -11.7941      2.00000
      5     -11.7931      2.00000
      6      -8.3035      2.00000
      7      -8.3022      2.00000
      8      -7.1446      2.00000
      9      -0.7617      0.00000
     10      -0.6644      0.00000
     11      -0.6638      0.00000
     12       0.0235      0.00000

 k-point     3 :       0.0000    0.5000    0.0000
  band No.  band energies     occupation 
      1     -23.8867      2.00000
      2     -19.2960      2.00000
      3     -13.8841      2.00000
      4     -11.7941      2.00000
      5     -11.7931      2.00000
      6      -8.3035      2.00000
      7      -8.3023      2.00000
      8      -7.1446      2.00000
      9      -0.7617      0.00000
     10      -0.6644      0.00000
     11      -0.6638      0.00000
     12       0.0258      0.00000

 k-point     4 :       0.5000    0.5000    0.0000
  band No.  band energies     occupation 
      1     -23.8867      2.00000
      2     -19.2960      2.00000
      3     -13.8841      2.00000
      4     -11.7941      2.00000
      5     -11.7931      2.00000
      6      -8.3035      2.00000
      7      -8.3022      2.00000
      8      -7.1445      2.00000
      9      -0.7617      0.00000
     10      -0.6644      0.00000
     11      -0.6637      0.00000
     12       0.0586      0.00000

 k-point     5 :       0.0000    0.0000    0.5000
  band No.  band energies     occupation 
      1     -23.8867      2.00000
      2     -19.2960      2.00000
      3     -13.8841      2.00000
      4     -11.7941      2.00000
      5     -11.7931      2.00000
      6      -8.3036      2.00000
      7      -8.3022      2.00000
      8      -7.1446      2.00000
      9      -0.7617      0.00000
     10      -0.6644      0.00000
     11      -0.6638      0.00000
     12       0.0254      0.00000

 k-point     6 :       0.5000    0.0000    0.5000
  band No.  band energies     occupation 
      1     -23.8867      2.00000
      2     -19.2960      2.00000
      3     -13.8841      2.00000
      4     -11.7941      2.00000
      5     -11.7931      2.00000
      6      -8.3035      2.00000
      7      -8.3022      2.00000
      8      -7.1445      2.00000
      9      -0.7617      0.00000
     10      -0.6644      0.00000
     11      -0.6637      0.00000
     12       0.0587      0.00000

 k-point     7 :       0.0000    0.5000    0.5000
  band No.  band energies     occupation 
      1     -23.8867      2.00000
      2     -19.2960      2.00000
      3     -13.8840      2.00000
      4     -11.7941      2.00000
      5     -11.7931      2.00000
      6      -8.3035      2.00000
      7      -8.3022      2.00000
      8      -7.1445      2.00000
      9      -0.7617      0.00000
     10      -0.6644      0.00000
     11      -0.6637      0.00000
     12       0.0595      0.00000

 k-point     8 :       0.5000    0.5000    0.5000
  band No.  band energies     occupation 
      1     -23.8867      2.00000
      2     -19.2960      2.00000
      3     -13.8841      2.00000
      4     -11.7941      2.00000
      5     -11.7931      2.00000
      6      -8.3035      2.00000
      7      -8.3022      2.00000
      8      -7.1445      2.00000
      9      -0.7617      0.00000
     10      -0.6644      0.00000
     11      -0.6637      0.00000
     12       0.0876      0.00000


--------------------------------------------------------------------------------------------------------


 soft charge-density along one line, spin component           1
         0         1         2         3         4         5         6         7         8         9
 total charge-density along one line
 
 pseudopotential strength for first ion, spin component:           1
 -2.362  -4.075  -0.002   0.000  -0.001
 -4.075  -6.942  -0.005   0.001  -0.002
 -0.002  -0.005  -0.330  -0.001   0.002
  0.000   0.001  -0.001  -0.334   0.000
 -0.001  -0.002   0.002   0.000  -0.333
 total augmentation occupancy for first ion, spin component:           1
  3.519  -0.634   0.402  -0.108   0.154
 -0.634   0.131  -0.074   0.020  -0.028
  0.402  -0.074   0.048  -0.010   0.016
 -0.108   0.020  -0.010   0.012  -0.004
  0.154  -0.028   0.016  -0.004   0.012


------------------------ aborting loop because EDIFF is reached ----------------------------------------


    CHARGE:  cpu time    1.3668: real time    1.3718
    FORLOC:  cpu time    0.9099: real time    0.9133
    FORNL :  cpu time    0.7449: real time    0.7521
    STRESS:  cpu time    2.9865: real time    3.0151
    FORCOR:  cpu time    7.7628: real time    7.7873
    FORHAR:  cpu time    2.5506: real time    2.5574
    MIXING:  cpu time    0.2840: real time    0.2850
    OFIELD:  cpu time    0.0000: real time    0.0000

  FORCE on cell =-STRESS in cart. coord.  units (eV):
  Direction    XX          YY          ZZ          XY          YZ          ZX
  --------------------------------------------------------------------------------------
  Alpha Z     0.04144     0.04144     0.04144
  Ewald     624.21574    39.19812    39.16363    -2.13625    -0.01182    -0.02372
  Hartree   597.13405   290.25050   290.22380    -1.04691    -0.00411     0.01117
  E(xc)     -58.75456   -60.19174   -60.19185    -0.00593    -0.00002    -0.00026
  Local   -1359.69881  -504.44406  -504.37583     3.02873     0.01479     0.00522
  n-local   -26.68564   -24.36506   -24.36700     0.01857     0.00197     0.00135
  augment     0.46010     0.99843     0.99954     0.00215     0.00015     0.00006
  Kinetic   222.42574   257.49411   257.50268     0.15168    -0.00060     0.00374
  Fock        0.00000     0.00000     0.00000     0.00000     0.00000     0.00000
  -------------------------------------------------------------------------------------
  Total      -0.86193    -1.01825    -1.00358     0.01205     0.00037    -0.00244
  in kB      -0.05115    -0.06042    -0.05955     0.00071     0.00002    -0.00014
  external pressure =       -0.06 kB  Pullay stress =        0.00 kB


 VOLUME and BASIS-vectors are now :
 -----------------------------------------------------------------------------
  energy-cutoff  :      400.00
  volume of cell :    27000.00
      direct lattice vectors                 reciprocal lattice vectors
    30.000000000  0.000000000  0.000000000     0.033333333  0.000000000  0.000000000
     0.000000000 30.000000000  0.000000000     0.000000000  0.033333333  0.000000000
     0.000000000  0.000000000 30.000000000     0.000000000  0.000000000  0.033333333

  length of vectors
    30.000000000 30.000000000 30.000000000     0.033333333  0.033333333  0.033333333


 FORCES acting on ions
    electron-ion (+dipol)            ewald-force                    non-local-force                 convergence-correction
 -----------------------------------------------------------------------------------------------
   0.344E+02 0.555E+02 -.149E+02   -.364E+02 -.606E+02 0.163E+02   0.198E+01 0.513E+01 -.138E+01   -.325E-04 -.746E-05 0.121E-04
   0.343E+02 -.150E+02 0.556E+02   -.363E+02 0.163E+02 -.607E+02   0.198E+01 -.138E+01 0.514E+01   -.416E-04 -.860E-05 -.223E-05
   0.343E+02 -.407E+02 -.407E+02   -.362E+02 0.445E+02 0.444E+02   0.198E+01 -.376E+01 -.376E+01   -.335E-04 -.893E-05 0.178E-04
   0.121E+03 -.424E+00 0.500E-01   -.129E+03 0.438E+00 -.490E-01   0.757E+01 -.262E-01 0.119E-01   -.326E-03 -.103E-03 0.120E-03
   -.230E+03 0.947E+00 0.117E+00   0.257E+03 -.107E+01 -.138E+00   -.266E+02 0.120E+00 0.223E-01   0.949E-04 -.120E-04 0.269E-04
   0.164E+02 -.372E+00 -.212E+00   -.195E+02 0.413E+00 0.239E+00   0.310E+01 -.468E-01 -.251E-01   0.468E-03 -.115E-04 0.512E-04
 -----------------------------------------------------------------------------------------------
   0.100E+02 -.487E-01 -.597E-02   0.000E+00 -.405E-14 -.111E-14   -.998E+01 0.385E-01 0.147E-01   0.129E-03 -.151E-03 0.226E-03
 
 
 POSITION                                       TOTAL-FORCE (eV/Angst)
 -----------------------------------------------------------------------------------
     12.76543     15.07341     15.21928        -0.000248      0.014256     -0.004735
     12.76740     16.33889     13.95417         0.006033      0.001292     -0.000265
     12.76757     16.80208     15.68242         0.008632     -0.004835     -0.007058
     13.14283     16.07097     14.95196        -0.009130     -0.009938      0.011641
     15.74038     16.06191     14.95198        -0.007655      0.003575      0.000027
     14.55978     16.06705     14.95278         0.002368     -0.004350      0.000390
 -----------------------------------------------------------------------------------
    total drift:                                0.011758     -0.010420      0.008932


--------------------------------------------------------------------------------------------------------



  FREE ENERGIE OF THE ION-ELECTRON SYSTEM (eV)
  ---------------------------------------------------
  free  energy   TOTEN  =       -35.64357096 eV

  energy  without entropy=      -35.64357096  energy(sigma->0) =      -35.64357096
 
 d Force = 0.1886904E-04[-0.915E-06, 0.387E-04]  d Energy = 0.2045653E-04-0.159E-05
 d Force = 0.2104293E+00[ 0.210E+00, 0.211E+00]  d Ewald  = 0.2104293E+00 0.340E-07


--------------------------------------------------------------------------------------------------------


    POTLOK:  cpu time    7.3829: real time    7.4057


--------------------------------------------------------------------------------------------------------




--------------------------------------------------------------------------------------------------------


  
 reached required accuracy - stopping structural energy minimisation
 writing wavefunctions
     LOOP+:  cpu time  119.6508: real time  141.9519
    4ORBIT:  cpu time    0.0000: real time    0.0000

 total amount of memory used by VASP on root node  1880337. kBytes
========================================================================

   base      :      30000. kBytes
   nonlr-proj:        691. kBytes
   fftplans  :     469080. kBytes
   grid      :    1003680. kBytes
   one-center:         18. kBytes
   wavefun   :     376868. kBytes
 
  
  
 General timing and accounting informations for this job:
 ========================================================
  
                  Total CPU time used (sec):     3614.736
                            User time (sec):     3015.883
                          System time (sec):      598.853
                         Elapsed time (sec):     3672.416
  
                   Maximum memory used (kb):     3440236.
                   Average memory used (kb):           0.
  
                          Minor page faults:     36018388
                          Major page faults:            5
                 Voluntary context switches:       109121
