  22  22   0   0
  0.1227273E+04  0.3000000E-08  0.3000000E-08  0.3000000E-08  0.0000000E+00
  1.000000000000000E-004
  CAR 
 unknown system                          
      2.19687904    -28.16065668  301     -4.48138354      1.00000000
    -28.161  0.0000E+00  0.0000E+00
    -28.059  0.0000E+00  0.0000E+00
    -27.958  0.0000E+00  0.0000E+00
    -27.857  0.0000E+00  0.0000E+00
    -27.756  0.0000E+00  0.0000E+00
    -27.655  0.0000E+00  0.0000E+00
    -27.554  0.0000E+00  0.0000E+00
    -27.452  0.0000E+00  0.0000E+00
    -27.351  0.0000E+00  0.0000E+00
    -27.250  0.4389E-15  0.4441E-16
    -27.149  0.9220E-13  0.9374E-14
    -27.048  0.1170E-10  0.1194E-11
    -26.946  0.8988E-09  0.9215E-10
    -26.845  0.4182E-07  0.4324E-08
    -26.744  0.1180E-05  0.1238E-06
    -26.643  0.2024E-04  0.2172E-05
    -26.542  0.2114E-03  0.2356E-04
    -26.440  0.1346E-02  0.1597E-03
    -26.339  0.5232E-02  0.6892E-03
    -26.238  0.1244E-01  0.1948E-02
    -26.137  0.1810E-01  0.3780E-02
    -26.036  0.1617E-01  0.5416E-02
    -25.934  0.9216E-02  0.6349E-02
    -25.833  0.5200E-02  0.6875E-02
    -25.732  0.8039E-02  0.7689E-02
    -25.631  0.1502E-01  0.9209E-02
    -25.530  0.1839E-01  0.1107E-01
    -25.428  0.1384E-01  0.1247E-01
    -25.327  0.6381E-02  0.1312E-01
    -25.226  0.1799E-02  0.1330E-01
    -25.125  0.3097E-03  0.1333E-01
    -25.024  0.3253E-04  0.1333E-01
    -24.923  0.2081E-05  0.1333E-01
    -24.821  0.8089E-07  0.1333E-01
    -24.720  0.1908E-08  0.1333E-01
    -24.619  0.2728E-10  0.1333E-01
    -24.518  0.2362E-12  0.1333E-01
    -24.417  0.2989E-13  0.1333E-01
    -24.315  0.4077E-11  0.1333E-01
    -24.214  0.3508E-09  0.1333E-01
    -24.113  0.1829E-07  0.1333E-01
    -24.012  0.5780E-06  0.1333E-01
    -23.911  0.1110E-04  0.1333E-01
    -23.809  0.1297E-03  0.1335E-01
    -23.708  0.9234E-03  0.1344E-01
    -23.607  0.4015E-02  0.1385E-01
    -23.506  0.1067E-01  0.1493E-01
    -23.405  0.1735E-01  0.1668E-01
    -23.303  0.1728E-01  0.1843E-01
    -23.202  0.1056E-01  0.1950E-01
    -23.101  0.4202E-02  0.1993E-01
    -23.000  0.2529E-02  0.2018E-01
    -22.899  0.6101E-02  0.2080E-01
    -22.797  0.1339E-01  0.2215E-01
    -22.696  0.1832E-01  0.2401E-01
    -22.595  0.1537E-01  0.2556E-01
    -22.494  0.7891E-02  0.2636E-01
    -22.393  0.2478E-02  0.2661E-01
    -22.292  0.4757E-03  0.2666E-01
    -22.190  0.5570E-04  0.2667E-01
    -22.089  0.3973E-05  0.2667E-01
    -21.988  0.1724E-06  0.2667E-01
    -21.887  0.4539E-08  0.2667E-01
    -21.786  0.7246E-10  0.2667E-01
    -21.684  0.7001E-12  0.2667E-01
    -21.583  0.4089E-14  0.2667E-01
    -21.482  0.1463E-16  0.2667E-01
    -21.381  0.0000E+00  0.2667E-01
    -21.280  0.0000E+00  0.2667E-01
    -21.178  0.0000E+00  0.2667E-01
    -21.077  0.0000E+00  0.2667E-01
    -20.976  0.0000E+00  0.2667E-01
    -20.875  0.0000E+00  0.2667E-01
    -20.774  0.0000E+00  0.2667E-01
    -20.672  0.1719E-15  0.2667E-01
    -20.571  0.3943E-13  0.2667E-01
    -20.470  0.5439E-11  0.2667E-01
    -20.369  0.4539E-09  0.2667E-01
    -20.268  0.2294E-07  0.2667E-01
    -20.167  0.7031E-06  0.2667E-01
    -20.065  0.1309E-04  0.2667E-01
    -19.964  0.1484E-03  0.2668E-01
    -19.863  0.1025E-02  0.2679E-01
    -19.762  0.4324E-02  0.2722E-01
    -19.661  0.1115E-01  0.2835E-01
    -19.559  0.1760E-01  0.3013E-01
    -19.458  0.1700E-01  0.3185E-01
    -19.357  0.1006E-01  0.3287E-01
    -19.256  0.3640E-02  0.3324E-01
    -19.155  0.8053E-03  0.3332E-01
    -19.053  0.1088E-03  0.3333E-01
    -18.952  0.8958E-05  0.3333E-01
    -18.851  0.7077E-06  0.3333E-01
    -18.750  0.5642E-05  0.3333E-01
    -18.649  0.7428E-04  0.3334E-01
    -18.547  0.5972E-03  0.3340E-01
    -18.446  0.2930E-02  0.3370E-01
    -18.345  0.8786E-02  0.3459E-01
    -18.244  0.1612E-01  0.3622E-01
    -18.143  0.1810E-01  0.3805E-01
    -18.041  0.1246E-01  0.3931E-01
    -17.940  0.5423E-02  0.3986E-01
    -17.839  0.2562E-02  0.4012E-01
    -17.738  0.5081E-02  0.4063E-01
    -17.637  0.1196E-01  0.4184E-01
    -17.536  0.1793E-01  0.4366E-01
    -17.434  0.1648E-01  0.4533E-01
    -17.333  0.9276E-02  0.4627E-01
    -17.232  0.3194E-02  0.4659E-01
    -17.131  0.6722E-03  0.4666E-01
    -17.030  0.8633E-04  0.4667E-01
    -16.928  0.6756E-05  0.4667E-01
    -16.827  0.3217E-06  0.4667E-01
    -16.726  0.9300E-08  0.4667E-01
    -16.625  0.2037E-09  0.4667E-01
    -16.524  0.2724E-08  0.4667E-01
    -16.422  0.1103E-06  0.4667E-01
    -16.321  0.2714E-05  0.4667E-01
    -16.220  0.4060E-04  0.4667E-01
    -16.119  0.3698E-03  0.4671E-01
    -16.018  0.2055E-02  0.4692E-01
    -15.916  0.6976E-02  0.4762E-01
    -15.815  0.1449E-01  0.4909E-01
    -15.714  0.1841E-01  0.5095E-01
    -15.613  0.1433E-01  0.5240E-01
    -15.512  0.6827E-02  0.5309E-01
    -15.410  0.2008E-02  0.5330E-01
    -15.309  0.5567E-03  0.5335E-01
    -15.208  0.1342E-02  0.5349E-01
    -15.107  0.5119E-02  0.5401E-01
    -15.006  0.1228E-01  0.5525E-01
    -14.905  0.1805E-01  0.5708E-01
    -14.803  0.1624E-01  0.5872E-01
    -14.702  0.8945E-02  0.5962E-01
    -14.601  0.3019E-02  0.5993E-01
    -14.500  0.6820E-03  0.6000E-01
    -14.399  0.5913E-03  0.6006E-01
    -14.297  0.2628E-02  0.6032E-01
    -14.196  0.8183E-02  0.6115E-01
    -14.095  0.1563E-01  0.6273E-01
    -13.994  0.1826E-01  0.6458E-01
    -13.893  0.1307E-01  0.6590E-01
    -13.791  0.5726E-02  0.6648E-01
    -13.690  0.1536E-02  0.6664E-01
    -13.589  0.2852E-03  0.6667E-01
    -13.488  0.3481E-03  0.6670E-01
    -13.387  0.1858E-02  0.6689E-01
    -13.285  0.6519E-02  0.6755E-01
    -13.184  0.1400E-01  0.6897E-01
    -13.083  0.1840E-01  0.7083E-01
    -12.982  0.1481E-01  0.7233E-01
    -12.881  0.7294E-02  0.7307E-01
    -12.780  0.2206E-02  0.7329E-01
    -12.678  0.5078E-03  0.7334E-01
    -12.577  0.8199E-03  0.7342E-01
    -12.476  0.3568E-02  0.7378E-01
    -12.375  0.1018E-01  0.7481E-01
    -12.274  0.1867E-01  0.7670E-01
    -12.172  0.2403E-01  0.7913E-01
    -12.071  0.2514E-01  0.8168E-01
    -11.970  0.2283E-01  0.8399E-01
    -11.869  0.1606E-01  0.8561E-01
    -11.768  0.7689E-02  0.8639E-01
    -11.666  0.2770E-02  0.8667E-01
    -11.565  0.2932E-02  0.8697E-01
    -11.464  0.8334E-02  0.8781E-01
    -11.363  0.1769E-01  0.8960E-01
    -11.262  0.2599E-01  0.9223E-01
    -11.160  0.2865E-01  0.9513E-01
    -11.059  0.2492E-01  0.9765E-01
    -10.958  0.1799E-01  0.9947E-01
    -10.857  0.1483E-01  0.1010E+00
    -10.756  0.1753E-01  0.1027E+00
    -10.654  0.1859E-01  0.1046E+00
    -10.553  0.1355E-01  0.1060E+00
    -10.452  0.8959E-02  0.1069E+00
    -10.351  0.1281E-01  0.1082E+00
    -10.250  0.2504E-01  0.1107E+00
    -10.149  0.3705E-01  0.1145E+00
    -10.047  0.4054E-01  0.1186E+00
     -9.946  0.3545E-01  0.1222E+00
     -9.845  0.2590E-01  0.1248E+00
     -9.744  0.1751E-01  0.1266E+00
     -9.643  0.1740E-01  0.1283E+00
     -9.541  0.2585E-01  0.1309E+00
     -9.440  0.3374E-01  0.1344E+00
     -9.339  0.3476E-01  0.1379E+00
     -9.238  0.3431E-01  0.1413E+00
     -9.137  0.3866E-01  0.1453E+00
     -9.035  0.4221E-01  0.1495E+00
     -8.934  0.3876E-01  0.1535E+00
     -8.833  0.3210E-01  0.1567E+00
     -8.732  0.2683E-01  0.1594E+00
     -8.631  0.2422E-01  0.1619E+00
     -8.529  0.2182E-01  0.1641E+00
     -8.428  0.1554E-01  0.1656E+00
     -8.327  0.7397E-02  0.1664E+00
     -8.226  0.2209E-02  0.1666E+00
     -8.125  0.4060E-03  0.1667E+00
     -8.023  0.4560E-04  0.1667E+00
     -7.922  0.3121E-05  0.1667E+00
     -7.821  0.1299E-06  0.1667E+00
     -7.720  0.3283E-08  0.1667E+00
     -7.619  0.2572E-09  0.1667E+00
     -7.518  0.1148E-07  0.1667E+00
     -7.416  0.3862E-06  0.1667E+00
     -7.315  0.7889E-05  0.1667E+00
     -7.214  0.9806E-04  0.1667E+00
     -7.113  0.7427E-03  0.1668E+00
     -7.012  0.3434E-02  0.1671E+00
     -6.910  0.9703E-02  0.1681E+00
     -6.809  0.1678E-01  0.1698E+00
     -6.708  0.1776E-01  0.1716E+00
     -6.607  0.1158E-01  0.1727E+00
     -6.506  0.5138E-02  0.1733E+00
     -6.404  0.3960E-02  0.1737E+00
     -6.303  0.8906E-02  0.1746E+00
     -6.202  0.1689E-01  0.1763E+00
     -6.101  0.2206E-01  0.1785E+00
     -6.000  0.2313E-01  0.1809E+00
     -5.898  0.2272E-01  0.1832E+00
     -5.797  0.1947E-01  0.1851E+00
     -5.696  0.1422E-01  0.1866E+00
     -5.595  0.1352E-01  0.1879E+00
     -5.494  0.1754E-01  0.1897E+00
     -5.393  0.1799E-01  0.1915E+00
     -5.291  0.1177E-01  0.1927E+00
     -5.190  0.4736E-02  0.1932E+00
     -5.089  0.1166E-02  0.1933E+00
     -4.988  0.1754E-03  0.1933E+00
     -4.887  0.1608E-04  0.1933E+00
     -4.785  0.8973E-06  0.1933E+00
     -4.684  0.3043E-07  0.1933E+00
     -4.583  0.6258E-09  0.1933E+00
     -4.482  0.7797E-11  0.1933E+00
     -4.381  0.5876E-13  0.1933E+00
     -4.279  0.2633E-15  0.1933E+00
     -4.178  0.0000E+00  0.1933E+00
     -4.077  0.0000E+00  0.1933E+00
     -3.976  0.0000E+00  0.1933E+00
     -3.875  0.0000E+00  0.1933E+00
     -3.773  0.0000E+00  0.1933E+00
     -3.672  0.0000E+00  0.1933E+00
     -3.571  0.0000E+00  0.1933E+00
     -3.470  0.0000E+00  0.1933E+00
     -3.369  0.0000E+00  0.1933E+00
     -3.267  0.0000E+00  0.1933E+00
     -3.166  0.0000E+00  0.1933E+00
     -3.065  0.0000E+00  0.1933E+00
     -2.964  0.0000E+00  0.1933E+00
     -2.863  0.0000E+00  0.1933E+00
     -2.762  0.0000E+00  0.1933E+00
     -2.660  0.0000E+00  0.1933E+00
     -2.559  0.0000E+00  0.1933E+00
     -2.458  0.0000E+00  0.1933E+00
     -2.357  0.0000E+00  0.1933E+00
     -2.256  0.1097E-16  0.1933E+00
     -2.154  0.2772E-14  0.1933E+00
     -2.053  0.4922E-12  0.1933E+00
     -1.952  0.5282E-10  0.1933E+00
     -1.851  0.3430E-08  0.1933E+00
     -1.750  0.1350E-06  0.1933E+00
     -1.648  0.3227E-05  0.1933E+00
     -1.547  0.4694E-04  0.1933E+00
     -1.446  0.4167E-03  0.1934E+00
     -1.345  0.2271E-02  0.1936E+00
     -1.244  0.7697E-02  0.1944E+00
     -1.142  0.1672E-01  0.1961E+00
     -1.041  0.2483E-01  0.1986E+00
     -0.940  0.2785E-01  0.2014E+00
     -0.839  0.2516E-01  0.2040E+00
     -0.738  0.1868E-01  0.2058E+00
     -0.636  0.1500E-01  0.2074E+00
     -0.535  0.2012E-01  0.2094E+00
     -0.434  0.3138E-01  0.2126E+00
     -0.333  0.4247E-01  0.2169E+00
     -0.232  0.5094E-01  0.2220E+00
     -0.131  0.5953E-01  0.2281E+00
     -0.029  0.7608E-01  0.2358E+00
      0.072  0.1012E+00  0.2460E+00
      0.173  0.1128E+00  0.2574E+00
      0.274  0.8979E-01  0.2665E+00
      0.375  0.4748E-01  0.2713E+00
      0.477  0.1617E-01  0.2729E+00
      0.578  0.3495E-02  0.2733E+00
      0.679  0.4745E-03  0.2733E+00
      0.780  0.4020E-04  0.2733E+00
      0.881  0.2112E-05  0.2733E+00
      0.983  0.6844E-07  0.2733E+00
      1.084  0.1362E-08  0.2733E+00
      1.185  0.1658E-10  0.2733E+00
      1.286  0.1231E-12  0.2733E+00
      1.387  0.5559E-15  0.2733E+00
      1.489  0.0000E+00  0.2733E+00
      1.590  0.0000E+00  0.2733E+00
      1.691  0.0000E+00  0.2733E+00
      1.792  0.0000E+00  0.2733E+00
      1.893  0.0000E+00  0.2733E+00
      1.994  0.0000E+00  0.2733E+00
      2.096  0.0000E+00  0.2733E+00
      2.197  0.0000E+00  0.2733E+00
