   22   22  300    1
  0.1227273E+04  0.3000000E-08  0.3000000E-08  0.3000000E-08  0.0000000E+00
  1.000000000000000E-004
  CAR 
 unknown system                          
     58      4     41
 
  0.2500000E+00  0.2500000E+00  0.2500000E+00  0.2500000E+00
    1      -26.160656   1.000000
    2      -25.588185   1.000000
    3      -23.405523   1.000000
    4      -22.732574   1.000000
    5      -19.566455   1.000000
    6      -18.219917   1.000000
    7      -17.552893   1.000000
    8      -15.765788   1.000000
    9      -14.926340   1.000000
   10      -14.062806   1.000000
   11      -13.127896   1.000000
   12      -12.264051   1.000000
   13      -12.012110   1.000000
   14      -11.325823   1.000000
   15      -11.120862   1.000000
   16      -10.726052   1.000000
   17      -10.224675   1.000000
   18      -10.113821   1.000000
   19       -9.934307   1.000000
   20       -9.537003   1.000000
   21       -9.397415   1.000000
   22       -9.135711   1.000000
   23       -9.064952   1.000000
   24       -8.846680   1.000000
   25       -8.574126   1.000000
   26       -6.797448   1.000000
   27       -6.175829   1.000000
   28       -5.897164   1.000000
   29       -5.478773   1.000000
   30       -1.098910   0.000000
   31       -0.882455   0.000000
   32       -0.479668   0.000000
   33       -0.314236   0.000000
   34       -0.209530   0.000000
   35       -0.077827   0.000000
   36        0.038513   0.000000
   37        0.120931   0.000000
   38        0.128204   0.000000
   39        0.133141   0.000000
   40        0.175386   0.000000
   41        0.193582   0.000000
 
 -0.2500000E+00  0.2500000E+00  0.2500000E+00  0.2500000E+00
    1      -26.160657   1.000000
    2      -25.588183   1.000000
    3      -23.405523   1.000000
    4      -22.732571   1.000000
    5      -19.566456   1.000000
    6      -18.219917   1.000000
    7      -17.552890   1.000000
    8      -15.765785   1.000000
    9      -14.926345   1.000000
   10      -14.062810   1.000000
   11      -13.127895   1.000000
   12      -12.264053   1.000000
   13      -12.012110   1.000000
   14      -11.325815   1.000000
   15      -11.120852   1.000000
   16      -10.726054   1.000000
   17      -10.224685   1.000000
   18      -10.113827   1.000000
   19       -9.934307   1.000000
   20       -9.537003   1.000000
   21       -9.397413   1.000000
   22       -9.135703   1.000000
   23       -9.064937   1.000000
   24       -8.846653   1.000000
   25       -8.574129   1.000000
   26       -6.797457   1.000000
   27       -6.175836   1.000000
   28       -5.897155   1.000000
   29       -5.478758   1.000000
   30       -1.098923   0.000000
   31       -0.882461   0.000000
   32       -0.479676   0.000000
   33       -0.314230   0.000000
   34       -0.209541   0.000000
   35       -0.078407   0.000000
   36        0.044780   0.000000
   37        0.109213   0.000000
   38        0.120459   0.000000
   39        0.140532   0.000000
   40        0.180495   0.000000
   41        0.189715   0.000000
 
  0.2500000E+00 -0.2500000E+00  0.2500000E+00  0.2500000E+00
    1      -26.160654   1.000000
    2      -25.588187   1.000000
    3      -23.405524   1.000000
    4      -22.732574   1.000000
    5      -19.566456   1.000000
    6      -18.219916   1.000000
    7      -17.552892   1.000000
    8      -15.765788   1.000000
    9      -14.926342   1.000000
   10      -14.062807   1.000000
   11      -13.127890   1.000000
   12      -12.264049   1.000000
   13      -12.012105   1.000000
   14      -11.325816   1.000000
   15      -11.120863   1.000000
   16      -10.726056   1.000000
   17      -10.224685   1.000000
   18      -10.113822   1.000000
   19       -9.934307   1.000000
   20       -9.537007   1.000000
   21       -9.397408   1.000000
   22       -9.135701   1.000000
   23       -9.064936   1.000000
   24       -8.846674   1.000000
   25       -8.574119   1.000000
   26       -6.797455   1.000000
   27       -6.175824   1.000000
   28       -5.897167   1.000000
   29       -5.478773   1.000000
   30       -1.098912   0.000000
   31       -0.882456   0.000000
   32       -0.479685   0.000000
   33       -0.314224   0.000000
   34       -0.209620   0.000000
   35       -0.077716   0.000000
   36        0.042993   0.000000
   37        0.103993   0.000000
   38        0.129239   0.000000
   39        0.137921   0.000000
   40        0.178128   0.000000
   41        0.194802   0.000000
 
 -0.2500000E+00 -0.2500000E+00  0.2500000E+00  0.2500000E+00
    1      -26.160655   1.000000
    2      -25.588186   1.000000
    3      -23.405522   1.000000
    4      -22.732571   1.000000
    5      -19.566455   1.000000
    6      -18.219918   1.000000
    7      -17.552895   1.000000
    8      -15.765789   1.000000
    9      -14.926342   1.000000
   10      -14.062805   1.000000
   11      -13.127889   1.000000
   12      -12.264050   1.000000
   13      -12.012107   1.000000
   14      -11.325823   1.000000
   15      -11.120851   1.000000
   16      -10.726053   1.000000
   17      -10.224675   1.000000
   18      -10.113833   1.000000
   19       -9.934304   1.000000
   20       -9.537002   1.000000
   21       -9.397410   1.000000
   22       -9.135697   1.000000
   23       -9.064946   1.000000
   24       -8.846659   1.000000
   25       -8.574136   1.000000
   26       -6.797460   1.000000
   27       -6.175826   1.000000
   28       -5.897147   1.000000
   29       -5.478780   1.000000
   30       -1.098918   0.000000
   31       -0.882458   0.000000
   32       -0.479684   0.000000
   33       -0.314233   0.000000
   34       -0.209561   0.000000
   35       -0.078174   0.000000
   36        0.044565   0.000000
   37        0.108379   0.000000
   38        0.128751   0.000000
   39        0.130498   0.000000
   40        0.179756   0.000000
   41        0.196879   0.000000
