       N       E                     dE             d eps       ncg     rms          rms(c)
DAV:   1     0.611500309774E+03    0.61150E+03   -0.79454E+03   392   0.485E+02
DAV:   2     0.276145855094E+03   -0.33535E+03   -0.32425E+03   571   0.926E+01
DAV:   3    -0.425851899178E+02   -0.31873E+03   -0.30948E+03   487   0.110E+02
DAV:   4    -0.135973093165E+03   -0.93388E+02   -0.93049E+02   398   0.817E+01
DAV:   5    -0.141918462335E+03   -0.59454E+01   -0.59267E+01   432   0.238E+01    0.196E+01
DAV:   6    -0.131813380446E+03    0.10105E+02   -0.23692E+01   405   0.200E+01    0.100E+01
DAV:   7    -0.130042204027E+03    0.17712E+01   -0.45371E+00   432   0.830E+00    0.515E+00
DAV:   8    -0.129557572566E+03    0.48463E+00   -0.86258E-01   432   0.402E+00    0.154E+00
DAV:   9    -0.129489987530E+03    0.67585E-01   -0.99851E-02   464   0.153E+00    0.563E-01
DAV:  10    -0.129479150484E+03    0.10837E-01   -0.24822E-02   423   0.816E-01    0.256E-01
DAV:  11    -0.129474183154E+03    0.49673E-02   -0.77992E-03   440   0.432E-01    0.159E-01
DAV:  12    -0.129475221441E+03   -0.10383E-02   -0.59618E-03   372   0.350E-01    0.964E-02
DAV:  13    -0.129481337531E+03   -0.61161E-02   -0.41049E-03   416   0.293E-01    0.572E-02
DAV:  14    -0.129487520525E+03   -0.61830E-02   -0.15857E-03   398   0.183E-01    0.374E-02
DAV:  15    -0.129495120700E+03   -0.76002E-02   -0.81520E-04   400   0.100E-01    0.233E-02
DAV:  16    -0.129501327764E+03   -0.62071E-02   -0.52879E-04   330   0.755E-02    0.132E-02
DAV:  17    -0.129503566721E+03   -0.22390E-02   -0.10264E-04   360   0.353E-02    0.872E-03
DAV:  18    -0.129505381278E+03   -0.18146E-02   -0.11867E-04   259   0.308E-02    0.529E-03
DAV:  19    -0.129506259595E+03   -0.87832E-03   -0.48876E-05   344   0.195E-02    0.338E-03
DAV:  20    -0.129506736297E+03   -0.47670E-03   -0.19462E-05   274   0.144E-02    0.209E-03
DAV:  21    -0.129506915290E+03   -0.17899E-03   -0.70249E-06   352   0.776E-03    0.127E-03
DAV:  22    -0.129507068856E+03   -0.15357E-03   -0.42492E-06   260   0.685E-03    0.111E-03
DAV:  23    -0.129507103438E+03   -0.34582E-04   -0.10336E-06   360   0.359E-03
   1 F= -.12950710E+03 E0= -.12950710E+03  d E =-.129507E+03
       N       E                     dE             d eps       ncg     rms          rms(c)
DAV:   1    -0.129509682200E+03   -0.26133E-02   -0.24301E-01   331   0.252E+00    0.158E-01
DAV:   2    -0.129510440049E+03   -0.75785E-03   -0.10597E-02   408   0.449E-01    0.899E-02
DAV:   3    -0.129510326320E+03    0.11373E-03   -0.26753E-04   432   0.917E-02    0.502E-02
DAV:   4    -0.129510287044E+03    0.39276E-04   -0.17643E-04   375   0.682E-02    0.124E-02
DAV:   5    -0.129510290539E+03   -0.34954E-05   -0.31576E-05   336   0.275E-02    0.640E-03
DAV:   6    -0.129510296370E+03   -0.58309E-05   -0.41522E-06   318   0.105E-02
   2 F= -.12951030E+03 E0= -.12951030E+03  d E =-.319293E-02
       N       E                     dE             d eps       ncg     rms          rms(c)
DAV:   1    -0.129511478165E+03   -0.11876E-02   -0.18908E-01   351   0.230E+00    0.113E-01
DAV:   2    -0.129511897988E+03   -0.41982E-03   -0.58744E-03   398   0.346E-01    0.656E-02
DAV:   3    -0.129511854584E+03    0.43404E-04   -0.14273E-04   351   0.690E-02    0.379E-02
DAV:   4    -0.129511864231E+03   -0.96477E-05   -0.11206E-04   210   0.575E-02    0.899E-03
DAV:   5    -0.129511872990E+03   -0.87585E-05   -0.24995E-05   304   0.263E-02    0.483E-03
DAV:   6    -0.129511879201E+03   -0.62108E-05   -0.31844E-06   218   0.101E-02
   3 F= -.12951188E+03 E0= -.12951188E+03  d E =-.158283E-02
       N       E                     dE             d eps       ncg     rms          rms(c)
DAV:   1    -0.129515764992E+03   -0.38920E-02   -0.25566E-01   331   0.275E+00    0.122E-01
DAV:   2    -0.129516305131E+03   -0.54014E-03   -0.72820E-03   427   0.393E-01    0.859E-02
DAV:   3    -0.129516250631E+03    0.54500E-04   -0.22353E-04   400   0.820E-02    0.534E-02
DAV:   4    -0.129516263719E+03   -0.13089E-04   -0.14687E-04   296   0.619E-02    0.130E-02
DAV:   5    -0.129516267210E+03   -0.34902E-05   -0.27001E-05   336   0.264E-02    0.569E-03
DAV:   6    -0.129516268627E+03   -0.14171E-05   -0.35996E-06   318   0.989E-03
   4 F= -.12951627E+03 E0= -.12951627E+03  d E =-.438943E-02
       N       E                     dE             d eps       ncg     rms          rms(c)
DAV:   1    -0.129516498747E+03   -0.23154E-03   -0.37441E-01   331   0.330E+00    0.148E-01
DAV:   2    -0.129517253207E+03   -0.75446E-03   -0.10400E-02   452   0.466E-01    0.102E-01
DAV:   3    -0.129517160078E+03    0.93130E-04   -0.31547E-04   432   0.970E-02    0.628E-02
DAV:   4    -0.129517159696E+03    0.38159E-06   -0.18294E-04   329   0.701E-02    0.153E-02
DAV:   5    -0.129517163205E+03   -0.35088E-05   -0.37086E-05   336   0.302E-02    0.666E-03
DAV:   6    -0.129517166989E+03   -0.37846E-05   -0.49452E-06   270   0.117E-02
   5 F= -.12951717E+03 E0= -.12951717E+03  d E =-.898363E-03
       N       E                     dE             d eps       ncg     rms          rms(c)
DAV:   1    -0.129517966381E+03   -0.80318E-03   -0.10476E-02   362   0.521E-01    0.332E-02
DAV:   2    -0.129518008750E+03   -0.42368E-04   -0.47759E-04   440   0.955E-02    0.200E-02
DAV:   3    -0.129518009530E+03   -0.78000E-06   -0.11084E-05   298   0.188E-02    0.114E-02
DAV:   4    -0.129518016500E+03   -0.69701E-05   -0.10129E-05   285   0.162E-02    0.230E-03
DAV:   5    -0.129518020077E+03   -0.35767E-05   -0.21872E-06   336   0.708E-03    0.124E-03
DAV:   6    -0.129518022171E+03   -0.20941E-05   -0.31850E-07   252   0.271E-03
   6 F= -.12951802E+03 E0= -.12951802E+03  d E =-.855181E-03
       N       E                     dE             d eps       ncg     rms          rms(c)
DAV:   1    -0.129518685195E+03   -0.66512E-03   -0.30044E-02   356   0.890E-01    0.541E-02
DAV:   2    -0.129518783683E+03   -0.98488E-04   -0.13544E-03   402   0.162E-01    0.337E-02
DAV:   3    -0.129518767757E+03    0.15926E-04   -0.31771E-05   310   0.318E-02    0.196E-02
DAV:   4    -0.129518759054E+03    0.87024E-05   -0.30156E-05   272   0.282E-02    0.417E-03
DAV:   5    -0.129518759035E+03    0.19768E-07   -0.64720E-06   336   0.125E-02    0.229E-03
DAV:   6    -0.129518759777E+03   -0.74198E-06   -0.90401E-07   298   0.478E-03
   7 F= -.12951876E+03 E0= -.12951876E+03  d E =-.737606E-03
       N       E                     dE             d eps       ncg     rms          rms(c)
DAV:   1    -0.129518722764E+03    0.36270E-04   -0.35842E-02   368   0.990E-01    0.547E-02
DAV:   2    -0.129518826435E+03   -0.10367E-03   -0.14658E-03   422   0.171E-01    0.353E-02
DAV:   3    -0.129518807311E+03    0.19124E-04   -0.31924E-05   280   0.331E-02    0.211E-02
DAV:   4    -0.129518797700E+03    0.96110E-05   -0.40086E-05   300   0.322E-02    0.475E-03
DAV:   5    -0.129518798775E+03   -0.10751E-05   -0.83087E-06   272   0.152E-02    0.253E-03
DAV:   6    -0.129518800575E+03   -0.18005E-05   -0.14099E-06   282   0.584E-03
   8 F= -.12951880E+03 E0= -.12951880E+03  d E =-.407987E-04
       N       E                     dE             d eps       ncg     rms          rms(c)
DAV:   1    -0.129518627331E+03    0.17144E-03   -0.28762E-02   332   0.895E-01    0.397E-02
DAV:   2    -0.129518688077E+03   -0.60746E-04   -0.82223E-04   365   0.132E-01    0.271E-02
DAV:   3    -0.129518679729E+03    0.83474E-05   -0.15097E-05   251   0.238E-02    0.165E-02
DAV:   4    -0.129518679220E+03    0.50977E-06   -0.23279E-05   253   0.259E-02    0.334E-03
DAV:   5    -0.129518680987E+03   -0.17672E-05   -0.49936E-06   203   0.121E-02    0.205E-03
DAV:   6    -0.129518682850E+03   -0.18632E-05   -0.79325E-07   244   0.441E-03
   9 F= -.12951868E+03 E0= -.12951868E+03  d E =0.117725E-03
       N       E                     dE             d eps       ncg     rms          rms(c)
DAV:   1    -0.129519070173E+03   -0.38919E-03   -0.34297E-02   331   0.946E-01    0.377E-02
DAV:   2    -0.129519122090E+03   -0.51917E-04   -0.66402E-04   396   0.117E-01    0.259E-02
DAV:   3    -0.129519119729E+03    0.23610E-05   -0.11352E-05   256   0.207E-02    0.144E-02
DAV:   4    -0.129519125382E+03   -0.56528E-05   -0.16613E-05   264   0.207E-02    0.283E-03
DAV:   5    -0.129519126406E+03   -0.10241E-05   -0.31278E-06   272   0.933E-03    0.168E-03
DAV:   6    -0.129519127481E+03   -0.10747E-05   -0.40367E-07   200   0.326E-03
  10 F= -.12951913E+03 E0= -.12951913E+03  d E =-.444631E-03
       N       E                     dE             d eps       ncg     rms          rms(c)
DAV:   1    -0.129519909443E+03   -0.78304E-03   -0.60800E-02   335   0.128E+00    0.556E-02
DAV:   2    -0.129520018552E+03   -0.10911E-03   -0.14568E-03   394   0.175E-01    0.375E-02
DAV:   3    -0.129520008559E+03    0.99936E-05   -0.31108E-05   310   0.329E-02    0.217E-02
DAV:   4    -0.129520012665E+03   -0.41061E-05   -0.30714E-05   272   0.298E-02    0.383E-03
DAV:   5    -0.129520013550E+03   -0.88525E-06   -0.60949E-06   304   0.127E-02    0.227E-03
DAV:   6    -0.129520013951E+03   -0.40145E-06   -0.74333E-07   252   0.442E-03
  11 F= -.12952001E+03 E0= -.12952001E+03  d E =-.886471E-03
       N       E                     dE             d eps       ncg     rms          rms(c)
DAV:   1    -0.129520480056E+03   -0.46651E-03   -0.11692E-01   334   0.179E+00    0.799E-02
DAV:   2    -0.129520700752E+03   -0.22070E-03   -0.30250E-03   394   0.251E-01    0.537E-02
DAV:   3    -0.129520675324E+03    0.25428E-04   -0.66600E-05   368   0.477E-02    0.315E-02
DAV:   4    -0.129520676741E+03   -0.14167E-05   -0.64671E-05   264   0.433E-02    0.567E-03
DAV:   5    -0.129520678050E+03   -0.13088E-05   -0.13057E-05   336   0.184E-02    0.332E-03
DAV:   6    -0.129520678823E+03   -0.77276E-06   -0.16333E-06   268   0.652E-03
  12 F= -.12952068E+03 E0= -.12952068E+03  d E =-.664871E-03
       N       E                     dE             d eps       ncg     rms          rms(c)
DAV:   1    -0.129520660562E+03    0.17488E-04   -0.17552E-01   333   0.216E+00    0.890E-02
DAV:   2    -0.129520944712E+03   -0.28415E-03   -0.38301E-03   388   0.284E-01    0.615E-02
DAV:   3    -0.129520922273E+03    0.22439E-04   -0.88646E-05   312   0.529E-02    0.359E-02
DAV:   4    -0.129520934915E+03   -0.12642E-04   -0.86574E-05   280   0.504E-02    0.611E-03
DAV:   5    -0.129520936850E+03   -0.19349E-05   -0.17148E-05   272   0.217E-02    0.384E-03
DAV:   6    -0.129520938394E+03   -0.15435E-05   -0.21263E-06   236   0.734E-03
  13 F= -.12952094E+03 E0= -.12952094E+03  d E =-.259571E-03
       N       E                     dE             d eps       ncg     rms          rms(c)
DAV:   1    -0.129521495808E+03   -0.55896E-03   -0.26572E-01   329   0.262E+00    0.105E-01
DAV:   2    -0.129521890617E+03   -0.39481E-03   -0.51714E-03   364   0.327E-01    0.712E-02
DAV:   3    -0.129521870103E+03    0.20515E-04   -0.10376E-04   368   0.565E-02    0.401E-02
DAV:   4    -0.129521899279E+03   -0.29177E-04   -0.11043E-04   264   0.559E-02    0.718E-03
DAV:   5    -0.129521901074E+03   -0.17945E-05   -0.21535E-05   272   0.241E-02    0.474E-03
DAV:   6    -0.129521902550E+03   -0.14767E-05   -0.28408E-06   272   0.854E-03
  14 F= -.12952190E+03 E0= -.12952190E+03  d E =-.964157E-03
       N       E                     dE             d eps       ncg     rms          rms(c)
DAV:   1    -0.129522455812E+03   -0.55474E-03   -0.43443E-01   334   0.340E+00    0.141E-01
DAV:   2    -0.129523202087E+03   -0.74628E-03   -0.98166E-03   378   0.453E-01    0.947E-02
DAV:   3    -0.129523133977E+03    0.68110E-04   -0.16528E-04   360   0.769E-02    0.539E-02
DAV:   4    -0.129523161046E+03   -0.27070E-04   -0.20044E-04   289   0.767E-02    0.906E-03
DAV:   5    -0.129523166330E+03   -0.52841E-05   -0.38591E-05   336   0.327E-02    0.588E-03
DAV:   6    -0.129523169411E+03   -0.30805E-05   -0.38722E-06   270   0.101E-02
  15 F= -.12952317E+03 E0= -.12952317E+03  d E =-.126686E-02
       N       E                     dE             d eps       ncg     rms          rms(c)
DAV:   1    -0.129523230224E+03   -0.63894E-04   -0.54890E-01   329   0.380E+00    0.153E-01
DAV:   2    -0.129524094743E+03   -0.86452E-03   -0.11384E-02   380   0.486E-01    0.103E-01
DAV:   3    -0.129524035044E+03    0.59698E-04   -0.21169E-04   333   0.830E-02    0.585E-02
DAV:   4    -0.129524089605E+03   -0.54561E-04   -0.25037E-04   371   0.820E-02    0.114E-02
DAV:   5    -0.129524093511E+03   -0.39064E-05   -0.37058E-05   272   0.320E-02    0.644E-03
DAV:   6    -0.129524098123E+03   -0.46115E-05   -0.50595E-06   266   0.111E-02
  16 F= -.12952410E+03 E0= -.12952410E+03  d E =-.928712E-03
       N       E                     dE             d eps       ncg     rms          rms(c)
DAV:   1    -0.129524854117E+03   -0.76061E-03   -0.59246E-01   328   0.399E+00    0.161E-01
DAV:   2    -0.129525844592E+03   -0.99048E-03   -0.12977E-02   396   0.519E-01    0.113E-01
DAV:   3    -0.129525765837E+03    0.78756E-04   -0.28464E-04   392   0.956E-02    0.670E-02
DAV:   4    -0.129525831710E+03   -0.65873E-04   -0.26270E-04   352   0.855E-02    0.123E-02
DAV:   5    -0.129525835979E+03   -0.42689E-05   -0.41926E-05   336   0.331E-02    0.705E-03
DAV:   6    -0.129525838307E+03   -0.23281E-05   -0.39477E-06   264   0.105E-02
  17 F= -.12952584E+03 E0= -.12952584E+03  d E =-.174018E-02
       N       E                     dE             d eps       ncg     rms          rms(c)
DAV:   1    -0.129525878355E+03   -0.42376E-04   -0.30329E-04   329   0.916E-02    0.386E-03
DAV:   2    -0.129525880810E+03   -0.24544E-05   -0.98307E-06   272   0.170E-02    0.222E-03
DAV:   3    -0.129525882500E+03   -0.16902E-05   -0.10418E-06   234   0.555E-03    0.137E-03
DAV:   4    -0.129525885109E+03   -0.26090E-05   -0.27509E-07   276   0.279E-03    0.446E-04
DAV:   5    -0.129525886435E+03   -0.13261E-05   -0.76072E-08   271   0.138E-03    0.251E-04
DAV:   6    -0.129525887743E+03   -0.13078E-05   -0.46069E-08   232   0.837E-04
  18 F= -.12952589E+03 E0= -.12952589E+03  d E =-.494356E-04
       N       E                     dE             d eps       ncg     rms          rms(c)
DAV:   1    -0.129525957568E+03   -0.71133E-04   -0.11515E-03   390   0.177E-01    0.713E-03
DAV:   2    -0.129525959855E+03   -0.22871E-05   -0.25041E-05   236   0.242E-02    0.435E-03
DAV:   3    -0.129525960489E+03   -0.63406E-06   -0.25108E-06   236   0.819E-03    0.242E-03
DAV:   4    -0.129525961423E+03   -0.93402E-06   -0.64021E-07   218   0.419E-03    0.590E-04
DAV:   5    -0.129525961973E+03   -0.54949E-06   -0.23960E-07   328   0.204E-03    0.325E-04
DAV:   6    -0.129525962236E+03   -0.26298E-06   -0.81414E-09   216   0.778E-04
  19 F= -.12952596E+03 E0= -.12952596E+03  d E =-.744930E-04
       N       E                     dE             d eps       ncg     rms          rms(c)
DAV:   1    -0.129526059062E+03   -0.97090E-04   -0.22860E-03   376   0.249E-01    0.992E-03
DAV:   2    -0.129526062533E+03   -0.34704E-05   -0.47858E-05   225   0.333E-02    0.602E-03
DAV:   3    -0.129526062942E+03   -0.40929E-06   -0.47462E-06   246   0.113E-02    0.335E-03
DAV:   4    -0.129526063452E+03   -0.51034E-06   -0.11528E-06   217   0.577E-03    0.820E-04
DAV:   5    -0.129526063662E+03   -0.20968E-06   -0.28785E-07   271   0.279E-03    0.362E-04
DAV:   6    -0.129526063775E+03   -0.11249E-06   -0.44218E-08   200   0.130E-03
  20 F= -.12952606E+03 E0= -.12952606E+03  d E =-.101539E-03
       N       E                     dE             d eps       ncg     rms          rms(c)
DAV:   1    -0.129526188853E+03   -0.12519E-03   -0.35032E-03   391   0.308E-01    0.122E-02
DAV:   2    -0.129526194054E+03   -0.52013E-05   -0.73362E-05   277   0.405E-02    0.742E-03
DAV:   3    -0.129526194289E+03   -0.23543E-06   -0.49014E-06   210   0.110E-02    0.429E-03
DAV:   4    -0.129526194829E+03   -0.54000E-06   -0.17863E-06   263   0.703E-03    0.977E-04
DAV:   5    -0.129526194946E+03   -0.11696E-06   -0.49435E-07   200   0.344E-03    0.494E-04
DAV:   6    -0.129526195007E+03   -0.60864E-07   -0.90916E-08   164   0.148E-03
  21 F= -.12952620E+03 E0= -.12952620E+03  d E =-.131232E-03
       N       E                     dE             d eps       ncg     rms          rms(c)
DAV:   1    -0.129526352583E+03   -0.15764E-03   -0.46679E-03   343   0.356E-01    0.140E-02
DAV:   2    -0.129526359503E+03   -0.69198E-05   -0.96632E-05   277   0.465E-02    0.857E-03
DAV:   3    -0.129526359828E+03   -0.32525E-06   -0.65509E-06   226   0.127E-02    0.502E-03
DAV:   4    -0.129526360605E+03   -0.77637E-06   -0.24178E-06   235   0.818E-03    0.121E-03
DAV:   5    -0.129526360745E+03   -0.14021E-06   -0.69729E-07   200   0.403E-03    0.580E-04
DAV:   6    -0.129526360812E+03   -0.67295E-07   -0.14798E-07   164   0.172E-03
  22 F= -.12952636E+03 E0= -.12952636E+03  d E =-.165805E-03
       N       E                     dE             d eps       ncg     rms          rms(c)
DAV:   1    -0.129526551123E+03   -0.19038E-03   -0.56909E-03   329   0.395E-01    0.155E-02
DAV:   2    -0.129526559819E+03   -0.86955E-05   -0.12001E-04   269   0.517E-02    0.960E-03
DAV:   3    -0.129526560210E+03   -0.39126E-06   -0.82362E-06   252   0.142E-02    0.576E-03
DAV:   4    -0.129526561221E+03   -0.10112E-05   -0.31190E-06   243   0.933E-03    0.146E-03
DAV:   5    -0.129526561378E+03   -0.15686E-06   -0.90900E-07   200   0.462E-03    0.675E-04
DAV:   6    -0.129526561454E+03   -0.75735E-07   -0.21132E-07   164   0.199E-03
  23 F= -.12952656E+03 E0= -.12952656E+03  d E =-.200642E-03
       N       E                     dE             d eps       ncg     rms          rms(c)
DAV:   1    -0.129526800887E+03   -0.23951E-03   -0.79916E-03   328   0.468E-01    0.184E-02
DAV:   2    -0.129526813496E+03   -0.12609E-04   -0.17281E-04   251   0.617E-02    0.115E-02
DAV:   3    -0.129526813999E+03   -0.50318E-06   -0.11871E-05   260   0.170E-02    0.700E-03
DAV:   4    -0.129526815404E+03   -0.14052E-05   -0.45657E-06   263   0.112E-02    0.181E-03
DAV:   5    -0.129526815587E+03   -0.18212E-06   -0.13409E-06   200   0.558E-03    0.830E-04
DAV:   6    -0.129526815681E+03   -0.93984E-07   -0.33800E-07   164   0.243E-03
  24 F= -.12952682E+03 E0= -.12952682E+03  d E =-.254227E-03
       N       E                     dE             d eps       ncg     rms          rms(c)
DAV:   1    -0.129527103688E+03   -0.28810E-03   -0.11094E-02   330   0.548E-01    0.217E-02
DAV:   2    -0.129527122264E+03   -0.18576E-04   -0.24893E-04   265   0.719E-02    0.138E-02
DAV:   3    -0.129527122218E+03    0.45682E-07   -0.12231E-05   236   0.184E-02    0.839E-03
DAV:   4    -0.129527124079E+03   -0.18609E-05   -0.55092E-06   252   0.129E-02    0.208E-03
DAV:   5    -0.129527124247E+03   -0.16828E-06   -0.15110E-06   200   0.631E-03    0.949E-04
DAV:   6    -0.129527124342E+03   -0.94729E-07   -0.28079E-07   164   0.249E-03
  25 F= -.12952712E+03 E0= -.12952712E+03  d E =-.308661E-03
       N       E                     dE             d eps       ncg     rms          rms(c)
DAV:   1    -0.129527463387E+03   -0.33914E-03   -0.16437E-02   331   0.660E-01    0.264E-02
DAV:   2    -0.129527492231E+03   -0.28844E-04   -0.37714E-04   329   0.854E-02    0.174E-02
DAV:   3    -0.129527490591E+03    0.16401E-05   -0.79829E-06   228   0.164E-02    0.105E-02
DAV:   4    -0.129527493249E+03   -0.26582E-05   -0.75514E-06   236   0.151E-02    0.249E-03
DAV:   5    -0.129527493399E+03   -0.14947E-06   -0.20078E-06   217   0.732E-03    0.127E-03
DAV:   6    -0.129527493514E+03   -0.11564E-06   -0.30409E-07   173   0.254E-03
  26 F= -.12952749E+03 E0= -.12952749E+03  d E =-.369172E-03
       N       E                     dE             d eps       ncg     rms          rms(c)
DAV:   1    -0.129527883217E+03   -0.38982E-03   -0.27211E-02   330   0.846E-01    0.341E-02
DAV:   2    -0.129527930399E+03   -0.47181E-04   -0.61115E-04   379   0.108E-01    0.225E-02
DAV:   3    -0.129527927352E+03    0.30466E-05   -0.10567E-05   237   0.193E-02    0.131E-02
DAV:   4    -0.129527931082E+03   -0.37299E-05   -0.11189E-05   236   0.180E-02    0.277E-03
DAV:   5    -0.129527931353E+03   -0.27125E-06   -0.26822E-06   248   0.846E-03    0.149E-03
DAV:   6    -0.129527931527E+03   -0.17372E-06   -0.32485E-07   200   0.278E-03
  27 F= -.12952793E+03 E0= -.12952793E+03  d E =-.438013E-03
       N       E                     dE             d eps       ncg     rms          rms(c)
DAV:   1    -0.129528359169E+03   -0.42782E-03   -0.47674E-02   332   0.112E+00    0.452E-02
DAV:   2    -0.129528438972E+03   -0.79803E-04   -0.10341E-03   362   0.142E-01    0.301E-02
DAV:   3    -0.129528433663E+03    0.53087E-05   -0.16846E-05   228   0.247E-02    0.172E-02
DAV:   4    -0.129528439731E+03   -0.60678E-05   -0.20934E-05   268   0.237E-02    0.372E-03
DAV:   5    -0.129528440119E+03   -0.38861E-06   -0.44472E-06   271   0.111E-02    0.191E-03
DAV:   6    -0.129528440373E+03   -0.25417E-06   -0.46041E-07   199   0.345E-03
  28 F= -.12952844E+03 E0= -.12952844E+03  d E =-.508846E-03
       N       E                     dE             d eps       ncg     rms          rms(c)
DAV:   1    -0.129528893277E+03   -0.45316E-03   -0.82124E-02   333   0.147E+00    0.595E-02
DAV:   2    -0.129529025202E+03   -0.13192E-03   -0.17185E-03   363   0.185E-01    0.402E-02
DAV:   3    -0.129529016207E+03    0.89942E-05   -0.28561E-05   227   0.324E-02    0.226E-02
DAV:   4    -0.129529026579E+03   -0.10371E-04   -0.36885E-05   268   0.312E-02    0.479E-03
DAV:   5    -0.129529027182E+03   -0.60338E-06   -0.75466E-06   255   0.144E-02    0.250E-03
DAV:   6    -0.129529027588E+03   -0.40612E-06   -0.80563E-07   199   0.448E-03
  29 F= -.12952903E+03 E0= -.12952903E+03  d E =-.587215E-03
       N       E                     dE             d eps       ncg     rms          rms(c)
DAV:   1    -0.129529493887E+03   -0.46671E-03   -0.13463E-01   328   0.188E+00    0.766E-02
DAV:   2    -0.129529704482E+03   -0.21059E-03   -0.27604E-03   380   0.236E-01    0.523E-02
DAV:   3    -0.129529689862E+03    0.14620E-04   -0.48103E-05   236   0.421E-02    0.293E-02
DAV:   4    -0.129529706945E+03   -0.17083E-04   -0.63313E-05   298   0.404E-02    0.636E-03
DAV:   5    -0.129529707653E+03   -0.70749E-06   -0.12375E-05   245   0.185E-02    0.327E-03
DAV:   6    -0.129529708158E+03   -0.50527E-06   -0.13645E-06   200   0.582E-03
  30 F= -.12952971E+03 E0= -.12952971E+03  d E =-.680570E-03
       N       E                     dE             d eps       ncg     rms          rms(c)
DAV:   1    -0.129530178215E+03   -0.47056E-03   -0.20652E-01   328   0.233E+00    0.954E-02
DAV:   2    -0.129530499213E+03   -0.32100E-03   -0.42219E-03   396   0.293E-01    0.650E-02
DAV:   3    -0.129530476483E+03    0.22731E-04   -0.75164E-05   236   0.526E-02    0.364E-02
DAV:   4    -0.129530502122E+03   -0.25639E-04   -0.98061E-05   300   0.501E-02    0.795E-03
DAV:   5    -0.129530503107E+03   -0.98526E-06   -0.19246E-05   236   0.230E-02    0.406E-03
DAV:   6    -0.129530503814E+03   -0.70679E-06   -0.21326E-06   200   0.728E-03
  31 F= -.12953050E+03 E0= -.12953050E+03  d E =-.795656E-03
       N       E                     dE             d eps       ncg     rms          rms(c)
DAV:   1    -0.129530983512E+03   -0.48041E-03   -0.29109E-01   328   0.277E+00    0.114E-01
DAV:   2    -0.129531448244E+03   -0.46473E-03   -0.60828E-03   396   0.350E-01    0.765E-02
DAV:   3    -0.129531415986E+03    0.32258E-04   -0.11554E-04   275   0.625E-02    0.427E-02
DAV:   4    -0.129531449047E+03   -0.33062E-04   -0.11337E-04   276   0.565E-02    0.767E-03
DAV:   5    -0.129531451494E+03   -0.24468E-05   -0.22403E-05   248   0.245E-02    0.478E-03
DAV:   6    -0.129531453032E+03   -0.15381E-05   -0.23004E-06   248   0.782E-03
  32 F= -.12953145E+03 E0= -.12953145E+03  d E =-.949218E-03
       N       E                     dE             d eps       ncg     rms          rms(c)
DAV:   1    -0.129531957677E+03   -0.50618E-03   -0.34259E-01   328   0.301E+00    0.123E-01
DAV:   2    -0.129532526323E+03   -0.56865E-03   -0.73922E-03   396   0.381E-01    0.832E-02
DAV:   3    -0.129532486410E+03    0.39913E-04   -0.15804E-04   300   0.721E-02    0.480E-02
DAV:   4    -0.129532530018E+03   -0.43608E-04   -0.13316E-04   300   0.617E-02    0.897E-03
DAV:   5    -0.129532533176E+03   -0.31576E-05   -0.26966E-05   246   0.267E-02    0.546E-03
DAV:   6    -0.129532535023E+03   -0.18472E-05   -0.32248E-06   256   0.893E-03
  33 F= -.12953254E+03 E0= -.12953254E+03  d E =-.108199E-02
       N       E                     dE             d eps       ncg     rms          rms(c)
DAV:   1    -0.129532962876E+03   -0.42970E-03   -0.40365E-01   328   0.327E+00    0.133E-01
DAV:   2    -0.129533662414E+03   -0.69954E-03   -0.90475E-03   396   0.419E-01    0.879E-02
DAV:   3    -0.129533616155E+03    0.46258E-04   -0.19341E-04   308   0.786E-02    0.517E-02
DAV:   4    -0.129533669753E+03   -0.53598E-04   -0.14841E-04   300   0.659E-02    0.101E-02
DAV:   5    -0.129533673808E+03   -0.40543E-05   -0.31195E-05   256   0.288E-02    0.588E-03
DAV:   6    -0.129533675974E+03   -0.21661E-05   -0.38374E-06   248   0.979E-03
  34 F= -.12953368E+03 E0= -.12953368E+03  d E =-.114095E-02
       N       E                     dE             d eps       ncg     rms          rms(c)
DAV:   1    -0.129533917030E+03   -0.24322E-03   -0.50425E-01   328   0.367E+00    0.146E-01
DAV:   2    -0.129534791687E+03   -0.87466E-03   -0.11286E-02   372   0.471E-01    0.963E-02
DAV:   3    -0.129534743032E+03    0.48655E-04   -0.28019E-04   380   0.910E-02    0.577E-02
DAV:   4    -0.129534810235E+03   -0.67203E-04   -0.18759E-04   332   0.734E-02    0.125E-02
DAV:   5    -0.129534814470E+03   -0.42351E-05   -0.37475E-05   272   0.319E-02    0.667E-03
DAV:   6    -0.129534816815E+03   -0.23450E-05   -0.48483E-06   234   0.111E-02
  35 F= -.12953482E+03 E0= -.12953482E+03  d E =-.114084E-02
       N       E                     dE             d eps       ncg     rms          rms(c)
DAV:   1    -0.129534692792E+03    0.12168E-03   -0.66882E-01   328   0.425E+00    0.166E-01
DAV:   2    -0.129535853524E+03   -0.11607E-02   -0.14966E-02   396   0.546E-01    0.110E-01
DAV:   3    -0.129535784419E+03    0.69105E-04   -0.34800E-04   405   0.102E-01    0.657E-02
DAV:   4    -0.129535869133E+03   -0.84714E-04   -0.19578E-04   299   0.779E-02    0.131E-02
DAV:   5    -0.129535877326E+03   -0.81924E-05   -0.43762E-05   296   0.340E-02    0.729E-03
DAV:   6    -0.129535879946E+03   -0.26204E-05   -0.44387E-06   224   0.111E-02
  36 F= -.12953588E+03 E0= -.12953588E+03  d E =-.106313E-02
       N       E                     dE             d eps       ncg     rms          rms(c)
DAV:   1    -0.129534863046E+03    0.10143E-02   -0.86676E-01   328   0.483E+00    0.192E-01
DAV:   2    -0.129536439423E+03   -0.15764E-02   -0.20380E-02   362   0.639E-01    0.130E-01
DAV:   3    -0.129536322030E+03    0.11739E-03   -0.47694E-04   406   0.119E-01    0.789E-02
DAV:   4    -0.129536403218E+03   -0.81188E-04   -0.28679E-04   362   0.930E-02    0.148E-02
DAV:   5    -0.129536415385E+03   -0.12167E-04   -0.53915E-05   336   0.372E-02    0.938E-03
DAV:   6    -0.129536419581E+03   -0.41958E-05   -0.59096E-06   288   0.130E-02
  37 F= -.12953642E+03 E0= -.12953642E+03  d E =-.539634E-03
       N       E                     dE             d eps       ncg     rms          rms(c)
DAV:   1    -0.129536800233E+03   -0.38485E-03   -0.26373E-02   359   0.865E-01    0.559E-02
DAV:   2    -0.129536898285E+03   -0.98052E-04   -0.12733E-03   361   0.164E-01    0.328E-02
DAV:   3    -0.129536887589E+03    0.10697E-04   -0.36706E-05   309   0.361E-02    0.190E-02
DAV:   4    -0.129536884858E+03    0.27303E-05   -0.28028E-05   273   0.284E-02    0.466E-03
DAV:   5    -0.129536886068E+03   -0.12096E-05   -0.72448E-06   335   0.136E-02    0.223E-03
DAV:   6    -0.129536887204E+03   -0.11367E-05   -0.11087E-06   236   0.546E-03
  38 F= -.12953689E+03 E0= -.12953689E+03  d E =-.467624E-03
       N       E                     dE             d eps       ncg     rms          rms(c)
DAV:   1    -0.129536518035E+03    0.36803E-03   -0.25958E-02   366   0.857E-01    0.543E-02
DAV:   2    -0.129536603008E+03   -0.84973E-04   -0.12569E-03   409   0.162E-01    0.328E-02
DAV:   3    -0.129536584417E+03    0.18592E-04   -0.35311E-05   304   0.353E-02    0.191E-02
DAV:   4    -0.129536571873E+03    0.12544E-04   -0.29369E-05   264   0.290E-02    0.469E-03
DAV:   5    -0.129536571090E+03    0.78290E-06   -0.75968E-06   336   0.143E-02    0.239E-03
DAV:   6    -0.129536572461E+03   -0.13707E-05   -0.11475E-06   240   0.571E-03
  39 F= -.12953657E+03 E0= -.12953657E+03  d E =0.314744E-03
       N       E                     dE             d eps       ncg     rms          rms(c)
DAV:   1    -0.129536721409E+03   -0.15032E-03   -0.13146E-03   366   0.193E-01    0.127E-02
DAV:   2    -0.129536728360E+03   -0.69520E-05   -0.57706E-05   324   0.363E-02    0.708E-03
DAV:   3    -0.129536730633E+03   -0.22728E-05   -0.48574E-06   212   0.117E-02    0.367E-03
DAV:   4    -0.129536733495E+03   -0.28613E-05   -0.12975E-06   290   0.582E-03    0.126E-03
DAV:   5    -0.129536735607E+03   -0.21123E-05   -0.41662E-07   295   0.323E-03    0.531E-04
DAV:   6    -0.129536736305E+03   -0.69823E-06   -0.85402E-08   222   0.144E-03
  40 F= -.12953674E+03 E0= -.12953674E+03  d E =-.163844E-03
       N       E                     dE             d eps       ncg     rms          rms(c)
DAV:   1    -0.129536893257E+03   -0.15765E-03   -0.41100E-03   372   0.342E-01    0.218E-02
DAV:   2    -0.129536907627E+03   -0.14369E-04   -0.19829E-04   360   0.653E-02    0.129E-02
DAV:   3    -0.129536905779E+03    0.18479E-05   -0.69485E-06   269   0.154E-02    0.748E-03
DAV:   4    -0.129536904706E+03    0.10727E-05   -0.43612E-06   265   0.112E-02    0.189E-03
DAV:   5    -0.129536904669E+03    0.37449E-07   -0.11288E-06   304   0.553E-03    0.896E-04
DAV:   6    -0.129536904844E+03   -0.17511E-06   -0.16868E-07   220   0.230E-03
  41 F= -.12953690E+03 E0= -.12953690E+03  d E =-.168539E-03
       N       E                     dE             d eps       ncg     rms          rms(c)
DAV:   1    -0.129536930966E+03   -0.26298E-04   -0.57070E-03   379   0.403E-01    0.254E-02
DAV:   2    -0.129536948328E+03   -0.17361E-04   -0.27370E-04   367   0.770E-02    0.152E-02
DAV:   3    -0.129536944356E+03    0.39711E-05   -0.10412E-05   272   0.189E-02    0.902E-03
DAV:   4    -0.129536940985E+03    0.33716E-05   -0.82169E-06   325   0.151E-02    0.235E-03
DAV:   5    -0.129536940728E+03    0.25707E-06   -0.18545E-06   264   0.754E-03    0.119E-03
DAV:   6    -0.129536941037E+03   -0.30898E-06   -0.35193E-07   204   0.314E-03
  42 F= -.12953694E+03 E0= -.12953694E+03  d E =-.361929E-04
       N       E                     dE             d eps       ncg     rms          rms(c)
DAV:   1    -0.129536943689E+03   -0.29611E-05   -0.45311E-06   236   0.114E-02    0.690E-04
DAV:   2    -0.129536944268E+03   -0.57880E-06   -0.34663E-07   254   0.319E-03    0.462E-04
DAV:   3    -0.129536944950E+03   -0.68263E-06   -0.67263E-08   210   0.120E-03    0.301E-04
DAV:   4    -0.129536946004E+03   -0.10541E-05   -0.53460E-08   291   0.788E-04    0.121E-04
DAV:   5    -0.129536946643E+03   -0.63868E-06   -0.19343E-09   271   0.410E-04    0.916E-05
DAV:   6    -0.129536947462E+03   -0.81875E-06   -0.34970E-09   200   0.400E-04
  43 F= -.12953695E+03 E0= -.12953695E+03  d E =-.642506E-05
       N       E                     dE             d eps       ncg     rms          rms(c)
DAV:   1    -0.129536951664E+03   -0.50210E-05   -0.17905E-05   277   0.228E-02    0.102E-03
DAV:   2    -0.129536951945E+03   -0.28080E-06   -0.10124E-06   272   0.559E-03    0.670E-04
DAV:   3    -0.129536952119E+03   -0.17371E-06   -0.83472E-08   202   0.176E-03    0.490E-04
DAV:   4    -0.129536952427E+03   -0.30836E-06    0.17449E-08   236   0.103E-03    0.127E-04
DAV:   5    -0.129536952550E+03   -0.12341E-06    0.48216E-08   272   0.479E-04    0.759E-05
DAV:   6    -0.129536952661E+03   -0.11071E-06    0.60740E-08   200   0.259E-04
  44 F= -.12953695E+03 E0= -.12953695E+03  d E =-.519920E-05
       N       E                     dE             d eps       ncg     rms          rms(c)
DAV:   1    -0.129536957182E+03   -0.46313E-05   -0.38517E-05   264   0.336E-02    0.150E-03
DAV:   2    -0.129536957445E+03   -0.26306E-06   -0.25664E-06   200   0.900E-03    0.979E-04
DAV:   3    -0.129536957496E+03   -0.51853E-07   -0.26456E-07   217   0.277E-03    0.754E-04
DAV:   4    -0.129536957533E+03   -0.36350E-07   -0.17725E-08   236   0.158E-03    0.214E-04
DAV:   5    -0.129536957552E+03   -0.18702E-07    0.41301E-08   166   0.760E-04    0.125E-04
DAV:   6    -0.129536957567E+03   -0.15441E-07    0.59747E-08   202   0.426E-04
  45 F= -.12953696E+03 E0= -.12953696E+03  d E =-.490599E-05
       N       E                     dE             d eps       ncg     rms          rms(c)
DAV:   1    -0.129536962436E+03   -0.48847E-05   -0.65490E-05   164   0.436E-02    0.193E-03
DAV:   2    -0.129536962817E+03   -0.38049E-06   -0.43658E-06   186   0.117E-02    0.125E-03
DAV:   3    -0.129536962859E+03   -0.42152E-07   -0.50581E-07   164   0.359E-03    0.965E-04
DAV:   4    -0.129536962856E+03    0.27276E-08   -0.87344E-08   250   0.204E-03    0.263E-04
DAV:   5    -0.129536962862E+03   -0.60436E-08    0.13424E-08   164   0.976E-04    0.159E-04
DAV:   6    -0.129536962873E+03   -0.11183E-07    0.45755E-08   164   0.543E-04
  46 F= -.12953696E+03 E0= -.12953696E+03  d E =-.530641E-05
       N       E                     dE             d eps       ncg     rms          rms(c)
DAV:   1    -0.129536967687E+03   -0.48243E-05   -0.96489E-05   164   0.526E-02    0.230E-03
DAV:   2    -0.129536968231E+03   -0.54416E-06   -0.63392E-06   167   0.140E-02    0.148E-03
DAV:   3    -0.129536968284E+03   -0.53636E-07   -0.76509E-07   165   0.429E-03    0.114E-03
DAV:   4    -0.129536968270E+03    0.14674E-07   -0.15466E-07   164   0.243E-03    0.295E-04
DAV:   5    -0.129536968274E+03   -0.40218E-08   -0.96062E-09   164   0.115E-03    0.184E-04
DAV:   6    -0.129536968287E+03   -0.13518E-07    0.36302E-08   164   0.627E-04
  47 F= -.12953697E+03 E0= -.12953697E+03  d E =-.541381E-05
       N       E                     dE             d eps       ncg     rms          rms(c)
DAV:   1    -0.129536972796E+03   -0.45219E-05   -0.13061E-04   164   0.608E-02    0.263E-03
DAV:   2    -0.129536973524E+03   -0.72888E-06   -0.83945E-06   192   0.160E-02    0.167E-03
DAV:   3    -0.129536973604E+03   -0.79469E-07   -0.10284E-06   164   0.490E-03    0.128E-03
DAV:   4    -0.129536973597E+03    0.73906E-08   -0.21750E-07   164   0.275E-03    0.306E-04
DAV:   5    -0.129536973606E+03   -0.94587E-08   -0.29390E-08   164   0.127E-03    0.203E-04
DAV:   6    -0.129536973624E+03   -0.17802E-07    0.29291E-08   164   0.684E-04
  48 F= -.12953697E+03 E0= -.12953697E+03  d E =-.533662E-05
       N       E                     dE             d eps       ncg     rms          rms(c)
DAV:   1    -0.129536979149E+03   -0.55430E-05   -0.21899E-04   260   0.762E-02    0.337E-03
DAV:   2    -0.129536979452E+03   -0.30322E-06   -0.49537E-06   165   0.116E-02    0.221E-03
DAV:   3    -0.129536979471E+03   -0.18548E-07   -0.52446E-07   164   0.411E-03    0.115E-03
DAV:   4    -0.129536979478E+03   -0.69704E-08   -0.11108E-07   164   0.218E-03    0.273E-04
DAV:   5    -0.129536979495E+03   -0.17574E-07    0.86566E-09   164   0.110E-03    0.161E-04
DAV:   6    -0.129536979518E+03   -0.22926E-07    0.39459E-08   164   0.536E-04
  49 F= -.12953698E+03 E0= -.12953698E+03  d E =-.589442E-05
       N       E                     dE             d eps       ncg     rms          rms(c)
DAV:   1    -0.129536985951E+03   -0.64552E-05   -0.34799E-04   261   0.951E-02    0.420E-03
DAV:   2    -0.129536986396E+03   -0.44575E-06   -0.69998E-06   165   0.138E-02    0.271E-03
DAV:   3    -0.129536986458E+03   -0.62189E-07   -0.75297E-07   164   0.490E-03    0.131E-03
DAV:   4    -0.129536986492E+03   -0.33610E-07   -0.16453E-07   164   0.248E-03    0.297E-04
DAV:   5    -0.129536986513E+03   -0.21225E-07   -0.43047E-09   164   0.124E-03    0.171E-04
DAV:   6    -0.129536986534E+03   -0.20365E-07    0.36150E-08   164   0.594E-04
  50 F= -.12953699E+03 E0= -.12953699E+03  d E =-.701541E-05
       N       E                     dE             d eps       ncg     rms          rms(c)
DAV:   1    -0.129536994729E+03   -0.82153E-05   -0.55287E-04   260   0.119E-01    0.526E-03
DAV:   2    -0.129536995393E+03   -0.66447E-06   -0.10199E-05   164   0.166E-02    0.336E-03
DAV:   3    -0.129536995522E+03   -0.12861E-06   -0.11172E-06   164   0.594E-03    0.150E-03
DAV:   4    -0.129536995585E+03   -0.63231E-07   -0.25310E-07   164   0.290E-03    0.320E-04
DAV:   5    -0.129536995604E+03   -0.18814E-07   -0.25428E-08   164   0.141E-03    0.174E-04
DAV:   6    -0.129536995619E+03   -0.15504E-07    0.30963E-08   164   0.677E-04
  51 F= -.12953700E+03 E0= -.12953700E+03  d E =-.908557E-05
       N       E                     dE             d eps       ncg     rms          rms(c)
DAV:   1    -0.129537007010E+03   -0.11406E-04   -0.87888E-04   292   0.149E-01    0.668E-03
DAV:   2    -0.129537007732E+03   -0.72190E-06   -0.12513E-05   164   0.176E-02    0.426E-03
DAV:   3    -0.129537007894E+03   -0.16184E-06   -0.13744E-06   164   0.619E-03    0.175E-03
DAV:   4    -0.129537007981E+03   -0.87074E-07   -0.33224E-07   182   0.301E-03    0.358E-04
DAV:   5    -0.129537007997E+03   -0.16750E-07   -0.38451E-08   164   0.138E-03    0.160E-04
DAV:   6    -0.129537008010E+03   -0.12526E-07    0.27420E-08   164   0.668E-04
  52 F= -.12953701E+03 E0= -.12953701E+03  d E =-.123907E-04
       N       E                     dE             d eps       ncg     rms          rms(c)
DAV:   1    -0.129537023021E+03   -0.15023E-04   -0.13707E-03   292   0.186E-01    0.836E-03
DAV:   2    -0.129537024168E+03   -0.11471E-05   -0.19826E-05   220   0.222E-02    0.534E-03
DAV:   3    -0.129537024399E+03   -0.23107E-06   -0.22016E-06   172   0.779E-03    0.221E-03
DAV:   4    -0.129537024524E+03   -0.12571E-06   -0.55842E-07   192   0.379E-03    0.456E-04
DAV:   5    -0.129537024547E+03   -0.22387E-07   -0.90759E-08   164   0.177E-03    0.207E-04
DAV:   6    -0.129537024564E+03   -0.16825E-07    0.14356E-08   164   0.838E-04
  53 F= -.12953702E+03 E0= -.12953702E+03  d E =-.165537E-04
       N       E                     dE             d eps       ncg     rms          rms(c)
DAV:   1    -0.129537042777E+03   -0.18231E-04   -0.20648E-03   292   0.229E-01    0.103E-02
DAV:   2    -0.129537044572E+03   -0.17942E-05   -0.30739E-05   236   0.277E-02    0.660E-03
DAV:   3    -0.129537044891E+03   -0.31903E-06   -0.34462E-06   209   0.971E-03    0.278E-03
DAV:   4    -0.129537045071E+03   -0.18031E-06   -0.90761E-07   229   0.477E-03    0.588E-04
DAV:   5    -0.129537045107E+03   -0.36197E-07   -0.17719E-07   164   0.226E-03    0.276E-04
DAV:   6    -0.129537045140E+03   -0.32827E-07   -0.10382E-08   164   0.106E-03
  54 F= -.12953705E+03 E0= -.12953705E+03  d E =-.205764E-04
       N       E                     dE             d eps       ncg     rms          rms(c)
DAV:   1    -0.129537065864E+03   -0.20757E-04   -0.29479E-03   324   0.274E-01    0.124E-02
DAV:   2    -0.129537068391E+03   -0.25270E-05   -0.43920E-05   236   0.332E-02    0.792E-03
DAV:   3    -0.129537068813E+03   -0.42192E-06   -0.49792E-06   244   0.116E-02    0.332E-03
DAV:   4    -0.129537069068E+03   -0.25526E-06   -0.13348E-06   204   0.571E-03    0.706E-04
DAV:   5    -0.129537069132E+03   -0.63372E-07   -0.28734E-07   164   0.272E-03    0.333E-04
DAV:   6    -0.129537069191E+03   -0.59297E-07   -0.47107E-08   166   0.128E-03
  55 F= -.12953707E+03 E0= -.12953707E+03  d E =-.240509E-04
       N       E                     dE             d eps       ncg     rms          rms(c)
DAV:   1    -0.129537094015E+03   -0.24884E-04   -0.39784E-03   326   0.318E-01    0.144E-02
DAV:   2    -0.129537097274E+03   -0.32587E-05   -0.57065E-05   210   0.378E-02    0.921E-03
DAV:   3    -0.129537097940E+03   -0.66584E-06   -0.65619E-06   200   0.133E-02    0.370E-03
DAV:   4    -0.129537098334E+03   -0.39439E-06   -0.17494E-06   164   0.643E-03    0.778E-04
DAV:   5    -0.129537098431E+03   -0.97150E-07   -0.38857E-07   164   0.301E-03    0.357E-04
DAV:   6    -0.129537098514E+03   -0.82565E-07   -0.82036E-08   200   0.145E-03
  56 F= -.12953710E+03 E0= -.12953710E+03  d E =-.293230E-04
       N       E                     dE             d eps       ncg     rms          rms(c)
DAV:   1    -0.129537131075E+03   -0.32644E-04   -0.52452E-03   325   0.365E-01    0.167E-02
DAV:   2    -0.129537135273E+03   -0.41986E-05   -0.73837E-05   236   0.431E-02    0.106E-02
DAV:   3    -0.129537136253E+03   -0.98000E-06   -0.86111E-06   201   0.152E-02    0.416E-03
DAV:   4    -0.129537136789E+03   -0.53587E-06   -0.22944E-06   235   0.730E-03    0.880E-04
DAV:   5    -0.129537136893E+03   -0.10396E-06   -0.52782E-07   164   0.339E-03    0.397E-04
DAV:   6    -0.129537136974E+03   -0.80477E-07   -0.13489E-07   198   0.167E-03
  57 F= -.12953714E+03 E0= -.12953714E+03  d E =-.384599E-04
       N       E                     dE             d eps       ncg     rms          rms(c)
DAV:   1    -0.129537177368E+03   -0.40475E-04   -0.69564E-03   324   0.422E-01    0.194E-02
DAV:   2    -0.129537183289E+03   -0.59214E-05   -0.10295E-04   276   0.502E-02    0.124E-02
DAV:   3    -0.129537184186E+03   -0.89659E-06   -0.92580E-06   255   0.148E-02    0.518E-03
DAV:   4    -0.129537184868E+03   -0.68262E-06   -0.33129E-06   272   0.849E-03    0.109E-03
DAV:   5    -0.129537184979E+03   -0.11017E-06   -0.79726E-07   172   0.403E-03    0.530E-04
DAV:   6    -0.129537185073E+03   -0.94462E-07   -0.21814E-07   172   0.185E-03
  58 F= -.12953719E+03 E0= -.12953719E+03  d E =-.480993E-04
       N       E                     dE             d eps       ncg     rms          rms(c)
DAV:   1    -0.129537233332E+03   -0.48353E-04   -0.90498E-03   327   0.482E-01    0.221E-02
DAV:   2    -0.129537240808E+03   -0.74758E-05   -0.13056E-04   268   0.567E-02    0.142E-02
DAV:   3    -0.129537242048E+03   -0.12405E-05   -0.12029E-05   237   0.168E-02    0.573E-03
DAV:   4    -0.129537242972E+03   -0.92392E-06   -0.42721E-06   255   0.948E-03    0.121E-03
DAV:   5    -0.129537243146E+03   -0.17453E-06   -0.10438E-06   164   0.447E-03    0.581E-04
DAV:   6    -0.129537243300E+03   -0.15395E-06   -0.30774E-07   199   0.210E-03
  59 F= -.12953724E+03 E0= -.12953724E+03  d E =-.582273E-04
