 vasp.5.4.1 24Jun15 (build Jan 13 2020 12:58:22) complex                        
  
 executed on           IFC91_ompi date 2020.02.03  09:59:13
 running on   15 total cores
 each image running on    1 cores
 distrk:  each k-point on    1 cores,    1 groups
 distr:  one band on NCORES_PER_BAND=   1 cores,    1 groups


--------------------------------------------------------------------------------------------------------


 INCAR:
 POTCAR:    PAW_PBE H 15Jun2001                   
 POTCAR:    PAW_PBE C 08Apr2002                   
 POTCAR:    PAW_PBE N 08Apr2002                   
 POTCAR:    PAW_PBE O 08Apr2002                   
 POTCAR:    PAW_PBE H 15Jun2001                   
   VRHFIN =H: ultrasoft test                                                    
   LEXCH  = PE                                                                  
   EATOM  =    12.4884 eV,    0.9179 Ry                                         
                                                                                
   TITEL  = PAW_PBE H 15Jun2001                                                 
   LULTRA =        F    use ultrasoft PP ?                                      
   IUNSCR =        0    unscreen: 0-lin 1-nonlin 2-no                           
   RPACOR =    0.000    partial core radius                                     
   POMASS =    1.000; ZVAL   =    1.000    mass and valenz                      
   RCORE  =    1.100    outmost cutoff radius                                   
   RWIGS  =    0.700; RWIGS  =    0.370    wigner-seitz radius (au A)           
   ENMAX  =  250.000; ENMIN  =  200.000 eV                                      
   RCLOC  =    0.701    cutoff for local pot                                    
   LCOR   =        T    correct aug charges                                     
   LPAW   =        T    paw PP                                                  
   EAUG   =  400.000                                                            
   RMAX   =    1.123    core radius for proj-oper                               
   RAUG   =    1.200    factor for augmentation sphere                          
   RDEP   =    1.112    radius for radial grids                                 
   RDEPT  =    0.926    core radius for aug-charge                              
                                                                                
   Atomic configuration                                                         
    2 entries                                                                   
     n  l   j            E        occ.                                          
     1  0  0.50        -6.4927   1.0000                                         
     2  1  0.50        -3.4015   0.0000                                         
   Description                                                                  
     l       E           TYP  RCUT    TYP  RCUT                                 
     0     -6.4927494     23  1.100                                             
     0      6.8029130     23  1.100                                             
     1     -4.0817478     23  1.100                                             
  local pseudopotential read in
  atomic valenz-charges read in
  non local Contribution for L=           0  read in
    real space projection operators read in
  non local Contribution for L=           0  read in
    real space projection operators read in
  non local Contribution for L=           1  read in
    real space projection operators read in
    PAW grid and wavefunctions read in
 
   number of l-projection  operators is LMAX  =           3
   number of lm-projection operators is LMMAX =           5
 
 POTCAR:    PAW_PBE C 08Apr2002                   
   VRHFIN =C: s2p2                                                              
   LEXCH  = PE                                                                  
   EATOM  =   147.1560 eV,   10.8157 Ry                                         
                                                                                
   TITEL  = PAW_PBE C 08Apr2002                                                 
   LULTRA =        F    use ultrasoft PP ?                                      
   IUNSCR =        1    unscreen: 0-lin 1-nonlin 2-no                           
   RPACOR =    1.200    partial core radius                                     
   POMASS =   12.011; ZVAL   =    4.000    mass and valenz                      
   RCORE  =    1.500    outmost cutoff radius                                   
   RWIGS  =    1.630; RWIGS  =    0.863    wigner-seitz radius (au A)           
   ENMAX  =  400.000; ENMIN  =  300.000 eV                                      
   ICORE  =        2    local potential                                         
   LCOR   =        T    correct aug charges                                     
   LPAW   =        T    paw PP                                                  
   EAUG   =  644.873                                                            
   DEXC   =    0.000                                                            
   RMAX   =    1.529    core radius for proj-oper                               
   RAUG   =    1.300    factor for augmentation sphere                          
   RDEP   =    1.501    radius for radial grids                                 
   RDEPT  =    1.300    core radius for aug-charge                              
                                                                                
   Atomic configuration                                                         
    4 entries                                                                   
     n  l   j            E        occ.                                          
     1  0  0.50      -273.3789   2.0000                                         
     2  0  0.50       -13.7508   2.0000                                         
     2  1  0.50        -5.2854   2.0000                                         
     3  2  1.50        -5.4423   0.0000                                         
   Description                                                                  
     l       E           TYP  RCUT    TYP  RCUT                                 
     0    -13.7508458     23  1.200                                             
     0     -8.2022199     23  1.200                                             
     1     -5.2854383     23  1.500                                             
     1     34.0145650     23  1.500                                             
     2     -5.4423304      7  1.500                                             
  local pseudopotential read in
  partial core-charges read in
  partial kinetic energy density read in
  atomic valenz-charges read in
  non local Contribution for L=           0  read in
    real space projection operators read in
  non local Contribution for L=           0  read in
    real space projection operators read in
  non local Contribution for L=           1  read in
    real space projection operators read in
  non local Contribution for L=           1  read in
    real space projection operators read in
    PAW grid and wavefunctions read in
 
   number of l-projection  operators is LMAX  =           4
   number of lm-projection operators is LMMAX =           8
 
 POTCAR:    PAW_PBE N 08Apr2002                   
   VRHFIN =N: s2p3                                                              
   LEXCH  = PE                                                                  
   EATOM  =   264.5486 eV,   19.4438 Ry                                         
                                                                                
   TITEL  = PAW_PBE N 08Apr2002                                                 
   LULTRA =        F    use ultrasoft PP ?                                      
   IUNSCR =        1    unscreen: 0-lin 1-nonlin 2-no                           
   RPACOR =    1.200    partial core radius                                     
   POMASS =   14.001; ZVAL   =    5.000    mass and valenz                      
   RCORE  =    1.500    outmost cutoff radius                                   
   RWIGS  =    1.400; RWIGS  =    0.741    wigner-seitz radius (au A)           
   ENMAX  =  400.000; ENMIN  =  300.000 eV                                      
   ICORE  =        2    local potential                                         
   LCOR   =        T    correct aug charges                                     
   LPAW   =        T    paw PP                                                  
   EAUG   =  627.112                                                            
   DEXC   =    0.000                                                            
   RMAX   =    1.529    core radius for proj-oper                               
   RAUG   =    1.300    factor for augmentation sphere                          
   RDEP   =    1.514    radius for radial grids                                 
   RDEPT  =    1.338    core radius for aug-charge                              
                                                                                
   Atomic configuration                                                         
    4 entries                                                                   
     n  l   j            E        occ.                                          
     1  0  0.50      -384.7179   2.0000                                         
     2  0  0.50       -18.5828   2.0000                                         
     2  1  0.50        -7.0898   3.0000                                         
     3  2  1.50        -6.8029   0.0000                                         
   Description                                                                  
     l       E           TYP  RCUT    TYP  RCUT                                 
     0    -18.5828119     23  1.200                                             
     0    -13.5018863     23  1.200                                             
     1     -7.0897853     23  1.500                                             
     1      9.5240782     23  1.500                                             
     2     -6.8029130      7  1.500                                             
  local pseudopotential read in
  partial core-charges read in
  partial kinetic energy density read in
  atomic valenz-charges read in
  non local Contribution for L=           0  read in
    real space projection operators read in
  non local Contribution for L=           0  read in
    real space projection operators read in
  non local Contribution for L=           1  read in
    real space projection operators read in
  non local Contribution for L=           1  read in
    real space projection operators read in
    PAW grid and wavefunctions read in
 
   number of l-projection  operators is LMAX  =           4
   number of lm-projection operators is LMMAX =           8
 
 POTCAR:    PAW_PBE O 08Apr2002                   
   VRHFIN =O: s2p4                                                              
   LEXCH  = PE                                                                  
   EATOM  =   432.3788 eV,   31.7789 Ry                                         
                                                                                
   TITEL  = PAW_PBE O 08Apr2002                                                 
   LULTRA =        F    use ultrasoft PP ?                                      
   IUNSCR =        1    unscreen: 0-lin 1-nonlin 2-no                           
   RPACOR =    1.200    partial core radius                                     
   POMASS =   16.000; ZVAL   =    6.000    mass and valenz                      
   RCORE  =    1.520    outmost cutoff radius                                   
   RWIGS  =    1.550; RWIGS  =    0.820    wigner-seitz radius (au A)           
   ENMAX  =  400.000; ENMIN  =  300.000 eV                                      
   ICORE  =        2    local potential                                         
   LCOR   =        T    correct aug charges                                     
   LPAW   =        T    paw PP                                                  
   EAUG   =  605.392                                                            
   DEXC   =    0.000                                                            
   RMAX   =    1.553    core radius for proj-oper                               
   RAUG   =    1.300    factor for augmentation sphere                          
   RDEP   =    1.550    radius for radial grids                                 
   RDEPT  =    1.329    core radius for aug-charge                              
                                                                                
   Atomic configuration                                                         
    4 entries                                                                   
     n  l   j            E        occ.                                          
     1  0  0.50      -514.6923   2.0000                                         
     2  0  0.50       -23.9615   2.0000                                         
     2  1  0.50        -9.0305   4.0000                                         
     3  2  1.50        -9.5241   0.0000                                         
   Description                                                                  
     l       E           TYP  RCUT    TYP  RCUT                                 
     0    -23.9615318     23  1.200                                             
     0     -9.5240782     23  1.200                                             
     1     -9.0304911     23  1.520                                             
     1      8.1634956     23  1.520                                             
     2     -9.5240782      7  1.500                                             
  local pseudopotential read in
  partial core-charges read in
  partial kinetic energy density read in
  kinetic energy density of atom read in
  atomic valenz-charges read in
  non local Contribution for L=           0  read in
    real space projection operators read in
  non local Contribution for L=           0  read in
    real space projection operators read in
  non local Contribution for L=           1  read in
    real space projection operators read in
  non local Contribution for L=           1  read in
    real space projection operators read in
    PAW grid and wavefunctions read in
 
   number of l-projection  operators is LMAX  =           4
   number of lm-projection operators is LMMAX =           8
 
 Optimization of the real space projectors (new method)

 maximal supplied QI-value         = 34.20
 optimisation between [QCUT,QGAM] = [  9.92, 20.18] = [ 27.55,114.04] Ry 
 Optimized for a Real-space Cutoff    1.26 Angstroem

   l    n(q)    QCUT    max X(q) W(low)/X(q) W(high)/X(q)  e(spline) 
   0      8     9.919    19.460    0.50E-03    0.23E-03    0.29E-06
   0      8     9.919    12.209    0.48E-03    0.23E-03    0.28E-06
   1      7     9.919     4.655    0.17E-03    0.75E-03    0.30E-06
 Optimization of the real space projectors (new method)

 maximal supplied QI-value         = 25.13
 optimisation between [QCUT,QGAM] = [ 10.05, 20.36] = [ 28.30,116.06] Ry 
 Optimized for a Real-space Cutoff    1.30 Angstroem

   l    n(q)    QCUT    max X(q) W(low)/X(q) W(high)/X(q)  e(spline) 
   0      8    10.053   115.676    0.49E-03    0.72E-03    0.18E-06
   0      8    10.053    87.132    0.49E-03    0.71E-03    0.18E-06
   1      7    10.053     4.429    0.32E-03    0.31E-03    0.18E-06
   1      7    10.053     2.733    0.23E-03    0.19E-03    0.20E-06
 Optimization of the real space projectors (new method)

 maximal supplied QI-value         = 25.13
 optimisation between [QCUT,QGAM] = [ 10.05, 20.36] = [ 28.30,116.06] Ry 
 Optimized for a Real-space Cutoff    1.65 Angstroem

   l    n(q)    QCUT    max X(q) W(low)/X(q) W(high)/X(q)  e(spline) 
   0     10    10.053    79.467    0.76E-04    0.72E-04    0.56E-06
   0     10    10.053    66.151    0.76E-04    0.72E-04    0.55E-06
   1     10    10.053     8.350    0.25E-03    0.92E-03    0.41E-05
   1     10    10.053     5.531    0.27E-03    0.10E-02    0.45E-05
 Optimization of the real space projectors (new method)

 maximal supplied QI-value         = 24.76
 optimisation between [QCUT,QGAM] = [ 10.15, 20.30] = [ 28.85,115.39] Ry 
 Optimized for a Real-space Cutoff    1.38 Angstroem

   l    n(q)    QCUT    max X(q) W(low)/X(q) W(high)/X(q)  e(spline) 
   0      8    10.150    20.381    0.22E-03    0.32E-03    0.29E-06
   0      8    10.150    15.268    0.23E-03    0.35E-03    0.30E-06
   1      8    10.150     5.964    0.46E-03    0.53E-03    0.21E-06
   1      8    10.150     5.382    0.38E-03    0.45E-03    0.19E-06
  PAW_PBE H 15Jun2001                   :
 energy of atom  1       EATOM=  -12.4884
 kinetic energy error for atom=    0.0098 (will be added to EATOM!!)
  PAW_PBE C 08Apr2002                   :
 energy of atom  2       EATOM= -147.1560
 kinetic energy error for atom=    0.0288 (will be added to EATOM!!)
  PAW_PBE N 08Apr2002                   :
 energy of atom  3       EATOM= -264.5486
 kinetic energy error for atom=    0.0736 (will be added to EATOM!!)
  PAW_PBE O 08Apr2002                   :
 energy of atom  4       EATOM= -432.3788
 kinetic energy error for atom=    0.1156 (will be added to EATOM!!)
 
 
 POSCAR: H12 C6 N2 O2                            
  positions in direct lattice
  velocities in cartesian coordinates
 exchange correlation table for  LEXCH =        8
   RHO(1)=    0.500       N(1)  =     2000
   RHO(2)=  100.500       N(2)  =     4000

 VTST: version 3.2, (02/03/18)

 CHAIN: initializing optimizer
 
 OPT: Using FIRE optimizer
 OPT: FIRE, Init
 OPT: FIRE, MAXMOVE       0.20000
 OPT: FIRE, TIMESTEP      0.10000
 OPT: FIRE, FTIMEMAX      1.00000
 OPT: FIRE, FTIMEINC      1.10000
 OPT: FIRE, FTIMEDEC      0.50000
 OPT: FIRE, FALPHADEC     0.99000
 OPT: FIRE, FALPHA        0.10000
 OPT: FIRE, FNMIN         5
 
 CHAIN: Read ICHAIN            0
 CHAIN: Running the NEB
 NEB:          SPRING     -5.000000
 NEB:          LCLIMB      T
 NEB:     LTANGENTOLD      F
 NEB:           LDNEB      F
 NEB:        LDNEBORG      F
 NEB:        LNEBCELL      F
 NEB:          EFIRST      0.000000
 NEB:           ELAST      0.000000
 
 POSCAR: H12 C6 N2 O2                            
  positions in direct lattice
  No initial velocities read in
 
 POSCAR: H12 C6 N2 O2                            
  positions in direct lattice
  No initial velocities read in
 


--------------------------------------------------------------------------------------------------------


 ion  position               nearest neighbor table
   1  0.384  0.553  0.513-  13 1.10
   2  0.386  0.502  0.482-  13 1.10
   3  0.380  0.500  0.540-  13 1.10
   4  0.450  0.452  0.501-  19 1.02
   5  0.522  0.491  0.554-  15 1.10
   6  0.562  0.420  0.536-  16 1.10
   7  0.518  0.404  0.500-  16 1.10
   8  0.508  0.410  0.559-  16 1.10
   9  0.524  0.554  0.503-  20 1.03
  10  0.601  0.544  0.441-  18 1.10
  11  0.550  0.555  0.414-  18 1.11
  12  0.573  0.594  0.454-  18 1.10
  13  0.396  0.518  0.513-   1 1.10   2 1.10   3 1.10  14 1.51
  14  0.446  0.519  0.519-  21 1.24  19 1.37  13 1.51
  15  0.515  0.472  0.523-   5 1.10  19 1.47  16 1.52  17 1.55
  16  0.526  0.423  0.530-   8 1.10   7 1.10   6 1.10  15 1.52
  17  0.544  0.492  0.485-  22 1.24  20 1.36  15 1.55
  18  0.569  0.559  0.446-  12 1.10  10 1.10  11 1.11  20 1.45
  19  0.468  0.479  0.513-   4 1.02  14 1.37  15 1.47
  20  0.546  0.537  0.483-   9 1.03  17 1.36  18 1.45
  21  0.466  0.553  0.531-  14 1.24
  22  0.565  0.467  0.459-  17 1.24
 
  LATTYP: Found a simple cubic cell.
 ALAT       =    30.0000000000
  
  Lattice vectors:
  
 A1 = (  30.0000000000,   0.0000000000,   0.0000000000)
 A2 = (   0.0000000000,  30.0000000000,   0.0000000000)
 A3 = (   0.0000000000,   0.0000000000,  30.0000000000)


Analysis of symmetry for initial positions (statically):
=====================================================================
 Subroutine PRICEL returns:
 Original cell was already a primitive cell.
 

 Routine SETGRP: Setting up the symmetry group for a 
 simple cubic supercell.


 Subroutine GETGRP returns: Found  1 space group operations
 (whereof  1 operations were pure point group operations)
 out of a pool of 48 trial point group operations.


The static configuration has the point symmetry C_1 .


Analysis of symmetry for dynamics (positions and initial velocities):
=====================================================================
 Subroutine PRICEL returns:
 Original cell was already a primitive cell.
 

 Routine SETGRP: Setting up the symmetry group for a 
 simple cubic supercell.


 Subroutine GETGRP returns: Found  1 space group operations
 (whereof  1 operations were pure point group operations)
 out of a pool of 48 trial point group operations.


The dynamic configuration has the point symmetry C_1 .
 
 
 KPOINTS: Mo2C                                    

Automatic generation of k-mesh.
Space group operators:
 irot       det(A)        alpha          n_x          n_y          n_z        tau_x        tau_y        tau_z
    1     1.000000     0.000000     1.000000     0.000000     0.000000     0.000000     0.000000     0.000000
 
 Subroutine IBZKPT returns following result:
 ===========================================
 
 Found      4 irreducible k-points:
 
 Following reciprocal coordinates:
            Coordinates               Weight
  0.250000  0.250000  0.250000      2.000000
 -0.250000  0.250000  0.250000      2.000000
  0.250000 -0.250000  0.250000      2.000000
 -0.250000 -0.250000  0.250000      2.000000
 
 Following cartesian coordinates:
            Coordinates               Weight
  0.008333  0.008333  0.008333      2.000000
 -0.008333  0.008333  0.008333      2.000000
  0.008333 -0.008333  0.008333      2.000000
 -0.008333 -0.008333  0.008333      2.000000
 


--------------------------------------------------------------------------------------------------------




 Dimension of arrays:
   k-points           NKPTS =      4   k-points in BZ     NKDIM =      4   number of bands    NBANDS=     41
   number of dos      NEDOS =    301   number of ions     NIONS =     22
   non local maximal  LDIM  =      4   non local SUM 2l+1 LMDIM =      8
   total plane-waves  NPLWV = ******
   max r-space proj   IRMAX =   2395   max aug-charges    IRDMAX=   1821
   dimension x,y,z NGX =   150 NGY =  150 NGZ =  150
   dimension x,y,z NGXF=   300 NGYF=  300 NGZF=  300
   support grid    NGXF=   300 NGYF=  300 NGZF=  300
   ions per type =              12   6   2   2
 NGX,Y,Z   is equivalent  to a cutoff of   8.31,  8.31,  8.31 a.u.
 NGXF,Y,Z  is equivalent  to a cutoff of  16.62, 16.62, 16.62 a.u.


 I would recommend the setting:
   dimension x,y,z NGX =   147 NGY =  147 NGZ =  147
 SYSTEM =  unknown system                          
 POSCAR =  H12 C6 N2 O2                            

 Startparameter for this run:
   NWRITE =      2    write-flag & timer
   PREC   = normal    normal or accurate (medium, high low for compatibility)
   ISTART =      0    job   : 0-new  1-cont  2-samecut
   ICHARG =      2    charge: 1-file 2-atom 10-const
   ISPIN  =      1    spin polarized calculation?
   LNONCOLLINEAR =      F non collinear calculations
   LSORBIT =      F    spin-orbit coupling
   INIWAV =      1    electr: 0-lowe 1-rand  2-diag
   LASPH  =      F    aspherical Exc in radial PAW
   METAGGA=      F    non-selfconsistent MetaGGA calc.

 Electronic Relaxation 1
   ENCUT  =  400.0 eV  29.40 Ry    5.42 a.u.  48.92 48.92 48.92*2*pi/ulx,y,z
   ENINI  =  400.0     initial cutoff
   ENAUG  =  644.9 eV  augmentation charge cutoff
   NELM   =    500;   NELMIN=  6; NELMDL= -5     # of ELM steps 
   EDIFF  = 0.1E-03   stopping-criterion for ELM
   LREAL  =      T    real-space projection
   NLSPLINE    = F    spline interpolate recip. space projectors
   LCOMPAT=      F    compatible to vasp.4.4
   GGA_COMPAT  = T    GGA compatible to vasp.4.4-vasp.4.6
   LMAXPAW     = -100 max onsite density
   LMAXMIX     =    2 max onsite mixed and CHGCAR
   VOSKOWN=      0    Vosko Wilk Nusair interpolation
   ROPT   =   -0.00050  -0.00050  -0.00050  -0.00050
 Ionic relaxation
   EDIFFG = -.1E+00   stopping-criterion for IOM
   NSW    =    300    number of steps for IOM
   NBLOCK =      1;   KBLOCK =    300    inner block; outer block 
   IBRION =      3    ionic relax: 0-MD 1-quasi-New 2-CG
   NFREE  =      0    steps in history (QN), initial steepest desc. (CG)
   ISIF   =      2    stress and relaxation
   IWAVPR =     11    prediction:  0-non 1-charg 2-wave 3-comb
   ISYM   =      2    0-nonsym 1-usesym 2-fastsym
   LCORR  =      T    Harris-Foulkes like correction to forces

   POTIM  = 0.0000    time-step for ionic-motion
   TEIN   =    0.0    initial temperature
   TEBEG  =    0.0;   TEEND  =   0.0 temperature during run
   SMASS  =   2.00    Nose mass-parameter (am)
   estimated Nose-frequenzy (Omega)   =  0.24E+10 period in steps =  0.00 mass=   0.137E-25a.u.
   SCALEE = 1.0000    scale energy and forces
   NPACO  =    256;   APACO  = 16.0  distance and # of slots for P.C.
   PSTRESS=    0.0 pullay stress

  Mass of Ions in am
   POMASS =   1.00 12.01 14.00 16.00
  Ionic Valenz
   ZVAL   =   1.00  4.00  5.00  6.00
  Atomic Wigner-Seitz radii
   RWIGS  =  -1.00 -1.00 -1.00 -1.00
  virtual crystal weights 
   VCA    =   1.00  1.00  1.00  1.00
   NELECT =      58.0000    total number of electrons
   NUPDOWN=      -1.0000    fix difference up-down

 DOS related values:
   EMIN   =  10.00;   EMAX   =-10.00  energy-range for DOS
   EFERMI =   0.00
   ISMEAR =     0;   SIGMA  =   0.20  broadening in eV -4-tet -1-fermi 0-gaus

 Electronic relaxation 2 (details)
   IALGO  =     38    algorithm
   LDIAG  =      T    sub-space diagonalisation (order eigenvalues)
   LSUBROT=      F    optimize rotation matrix (better conditioning)
   TURBO    =      0    0=normal 1=particle mesh
   IRESTART =      0    0=no restart 2=restart with 2 vectors
   NREBOOT  =      0    no. of reboots
   NMIN     =      0    reboot dimension
   EREF     =   0.00    reference energy to select bands
   IMIX   =      4    mixing-type and parameters
     AMIX     =   0.40;   BMIX     =  1.00
     AMIX_MAG =   1.60;   BMIX_MAG =  1.00
     AMIN     =   0.10
     WC   =   100.;   INIMIX=   1;  MIXPRE=   1;  MAXMIX= -45

 Intra band minimization:
   WEIMIN = 0.0010     energy-eigenvalue tresh-hold
   EBREAK =  0.61E-06  absolut break condition
   DEPER  =   0.30     relativ break condition  

   TIME   =   0.40     timestep for ELM

  volume/ion in A,a.u.               =    1227.27      8282.05
  Fermi-wavevector in a.u.,A,eV,Ry     =   0.211234  0.399174  0.607087  0.044620
  Thomas-Fermi vector in A             =   0.980021
 
 Write flags
   LWAVE  =      F    write WAVECAR
   LCHARG =      F    write CHGCAR
   LVTOT  =      F    write LOCPOT, total local potential
   LVHAR  =      F    write LOCPOT, Hartree potential only
   LELF   =      F    write electronic localiz. function (ELF)
   LORBIT =      0    0 simple, 1 ext, 2 COOP (PROOUT)


 Dipole corrections
   LMONO  =      F    monopole corrections only (constant potential shift)
   LDIPOL =      F    correct potential (dipole corrections)
   IDIPOL =      0    1-x, 2-y, 3-z, 4-all directions 
   EPSILON=  1.0000000 bulk dielectric constant

 Exchange correlation treatment:
   GGA     =    PE    GGA type
   LEXCH   =     8    internal setting for exchange type
   VOSKOWN=      0    Vosko Wilk Nusair interpolation
   LHFCALC =     F    Hartree Fock is set to
   LHFONE  =     F    Hartree Fock one center treatment
   AEXX    =    0.0000 exact exchange contribution

 Linear response parameters
   LEPSILON=     F    determine dielectric tensor
   LRPA    =     F    only Hartree local field effects (RPA)
   LNABLA  =     F    use nabla operator in PAW spheres
   LVEL    =     F    velocity operator in full k-point grid
   LINTERFAST=   F  fast interpolation
   KINTER  =     0    interpolate to denser k-point grid
   CSHIFT  =0.1000    complex shift for real part using Kramers Kronig
   OMEGAMAX=  -1.0    maximum frequency
   DEG_THRESHOLD= 0.2000000E-02 threshold for treating states as degnerate
   RTIME   =    0.100 relaxation time in fs

 Orbital magnetization related:
   ORBITALMAG=     F  switch on orbital magnetization
   LCHIMAG   =     F  perturbation theory with respect to B field
   DQ        =  0.001000  dq finite difference perturbation B field



--------------------------------------------------------------------------------------------------------


 quickmin algorithm: (dynamic with friction)
 charge density and potential will be updated during run
 non-spin polarized calculation
 Variant of blocked Davidson
 Davidson routine will perform the subspace rotation
 perform sub-space diagonalisation
    after iterative eigenvector-optimisation
 modified Broyden-mixing scheme, WC =      100.0
 initial mixing is a Kerker type mixing with AMIX =  0.4000 and BMIX =      1.0000
 Hartree-type preconditioning will be used
 using additional bands           12
 real space projection scheme for non local part
 use partial core corrections
 calculate Harris-corrections to forces 
   (improved forces if not selfconsistent)
 use gradient corrections 
 use of overlap-Matrix (Vanderbilt PP)
 Gauss-broadening in eV      SIGMA  =   0.20


--------------------------------------------------------------------------------------------------------


  energy-cutoff  :      400.00
  volume of cell :    27000.00
      direct lattice vectors                 reciprocal lattice vectors
    30.000000000  0.000000000  0.000000000     0.033333333  0.000000000  0.000000000
     0.000000000 30.000000000  0.000000000     0.000000000  0.033333333  0.000000000
     0.000000000  0.000000000 30.000000000     0.000000000  0.000000000  0.033333333

  length of vectors
    30.000000000 30.000000000 30.000000000     0.033333333  0.033333333  0.033333333


 
 k-points in units of 2pi/SCALE and weight: Mo2C                                    
   0.00833333  0.00833333  0.00833333       0.250
  -0.00833333  0.00833333  0.00833333       0.250
   0.00833333 -0.00833333  0.00833333       0.250
  -0.00833333 -0.00833333  0.00833333       0.250
 
 k-points in reciprocal lattice and weights: Mo2C                                    
   0.25000000  0.25000000  0.25000000       0.250
  -0.25000000  0.25000000  0.25000000       0.250
   0.25000000 -0.25000000  0.25000000       0.250
  -0.25000000 -0.25000000  0.25000000       0.250
 
 position of ions in fractional coordinates (direct lattice) 
   0.38429383  0.55303953  0.51314616
   0.38573716  0.50243869  0.48158802
   0.38012164  0.50025149  0.54045402
   0.45029867  0.45241741  0.50077757
   0.52154366  0.49137950  0.55366980
   0.56228707  0.41988464  0.53648733
   0.51842007  0.40401217  0.50018645
   0.50775108  0.40961642  0.55868734
   0.52409592  0.55415683  0.50264087
   0.60149298  0.54364605  0.44102122
   0.55042264  0.55540449  0.41388210
   0.57296176  0.59405108  0.45373492
   0.39603929  0.51844443  0.51286460
   0.44609789  0.51854109  0.51936344
   0.51505579  0.47242046  0.52301313
   0.52628125  0.42341056  0.53025904
   0.54447906  0.49157472  0.48516312
   0.56852120  0.55866138  0.44582017
   0.46750766  0.47883843  0.51310519
   0.54582721  0.53673968  0.48262027
   0.46610410  0.55259992  0.53131639
   0.56485001  0.46667067  0.45944893
 
 position of ions in cartesian coordinates  (Angst):
  11.52881480 16.59118586 15.39438477
  11.57211486 15.07316079 14.44764069
  11.40364917 15.00754481 16.21362045
  13.50896017 13.57252229 15.02332712
  15.64630988 14.74138510 16.61009411
  16.86861223 12.59653909 16.09461985
  15.55260209 12.12036521 15.00559360
  15.23253235 12.28849269 16.76062012
  15.72287770 16.62470489 15.07922612
  18.04478926 16.30938148 13.23063659
  16.51267915 16.66213474 12.41646298
  17.18885271 17.82153227 13.61204761
  11.88117865 15.55333276 15.38593812
  13.38293678 15.55623273 15.58090333
  15.45167370 14.17261389 15.69039405
  15.78843739 12.70231690 15.90777124
  16.33437194 14.74724171 14.55489360
  17.05563588 16.75984136 13.37460523
  14.02522983 14.36515293 15.39315563
  16.37481638 16.10219050 14.47860803
  13.98312285 16.57799746 15.93949180
  16.94550032 14.00012006 13.78346776
 


--------------------------------------------------------------------------------------------------------


 k-point  1 :   0.2500 0.2500 0.2500  plane waves:  490454
 k-point  2 :  -0.2500 0.2500 0.2500  plane waves:  490454
 k-point  3 :   0.2500-0.2500 0.2500  plane waves:  490454
 k-point  4 :  -0.2500-0.2500 0.2500  plane waves:  490454

 maximum and minimum number of plane-waves per node :    490454   490454

 maximum number of plane-waves:    490454
 maximum index in each direction: 
   IXMAX=   49   IYMAX=   49   IZMAX=   48
   IXMIN=  -49   IYMIN=  -49   IZMIN=  -49

 WARNING: aliasing errors must be expected set NGX to 198 to avoid them
 WARNING: aliasing errors must be expected set NGY to 198 to avoid them
 WARNING: aliasing errors must be expected set NGZ to 196 to avoid them
 aliasing errors are usually negligible using standard VASP settings
 and one can safely disregard these warnings

 serial   3D FFT for wavefunctions
 parallel 3D FFT for charge:
    minimum data exchange during FFTs selected (reduces bandwidth)


 total amount of memory used by VASP on root node  4333708. kBytes
========================================================================

   base      :      30000. kBytes
   nonlr-proj:       2403. kBytes
   fftplans  :     924480. kBytes
   grid      :    2089440. kBytes
   one-center:         67. kBytes
   wavefun   :    1287318. kBytes
 
     INWAV:  cpu time    0.0000: real time    0.0004
 Broyden mixing: mesh for mixing (old mesh)
   NGX = 97   NGY = 97   NGZ = 97
  (NGX  =300   NGY  =300   NGZ  =300)
  gives a total of 912673 points

 initial charge density was supplied:
 charge density of overlapping atoms calculated
 number of electron      58.0000000 magnetization 
 keeping initial charge density in first step


--------------------------------------------------------------------------------------------------------


 Maximum index for non-local projection operator         2278
 Maximum index for augmentation-charges         1574 (set IRDMAX)


--------------------------------------------------------------------------------------------------------


 First call to EWALD:  gamma=   0.059
 Maximum number of real-space cells 3x 3x 3
 Maximum number of reciprocal cells 3x 3x 3

 FEWALD executed in parallel
    FEWALD:  cpu time    0.0040: real time    0.0047


----------------------------------------- Iteration    1(   1)  ---------------------------------------


    POTLOK:  cpu time   19.8750: real time   19.8605
    SETDIJ:  cpu time    0.0290: real time    0.0285
     EDDAV:  cpu time  252.6606: real time  252.4519
       DOS:  cpu time    0.0010: real time    0.0009
    --------------------------------------------
      LOOP:  cpu time  272.5676: real time  272.3463

 eigenvalue-minimisations  :   392
 total energy-change (2. order) : 0.6115003E+03  (-0.7945393E+03)
 number of electron      58.0000000 magnetization 
 augmentation part       58.0000000 magnetization 

 Free energy of the ion-electron system (eV)
  ---------------------------------------------------
  alpha Z        PSCENC =         0.51957394
  Ewald energy   TEWEN  =      6093.82797790
  -Hartree energ DENC   =     -7835.96277952
  -exchange      EXHF   =         0.00000000
  -V(xc)+E(xc)   XCENC  =       202.06265644
  PAW double counting   =      1779.70502452    -1789.20730229
  entropy T*S    EENTRO =        -0.78623159
  eigenvalues    EBANDS =      -264.64194173
  atomic energy  EATOM  =      2425.98333211
  Solvation  Ediel_sol  =         0.00000000
  ---------------------------------------------------
  free energy    TOTEN  =       611.50030977 eV

  energy without entropy =      612.28654137  energy(sigma->0) =      611.89342557


--------------------------------------------------------------------------------------------------------




----------------------------------------- Iteration    1(   2)  ---------------------------------------


     EDDAV:  cpu time  343.2818: real time  342.9989
       DOS:  cpu time    0.0010: real time    0.0008
    --------------------------------------------
      LOOP:  cpu time  343.2848: real time  343.0027

 eigenvalue-minimisations  :   571
 total energy-change (2. order) :-0.3353545E+03  (-0.3242469E+03)
 number of electron      58.0000000 magnetization 
 augmentation part       58.0000000 magnetization 

 Free energy of the ion-electron system (eV)
  ---------------------------------------------------
  alpha Z        PSCENC =         0.51957394
  Ewald energy   TEWEN  =      6093.82797790
  -Hartree energ DENC   =     -7835.96277952
  -exchange      EXHF   =         0.00000000
  -V(xc)+E(xc)   XCENC  =       202.06265644
  PAW double counting   =      1779.70502452    -1789.20730229
  entropy T*S    EENTRO =        -0.51776976
  eigenvalues    EBANDS =      -600.26485824
  atomic energy  EATOM  =      2425.98333211
  Solvation  Ediel_sol  =         0.00000000
  ---------------------------------------------------
  free energy    TOTEN  =       276.14585509 eV

  energy without entropy =      276.66362485  energy(sigma->0) =      276.40473997


--------------------------------------------------------------------------------------------------------




----------------------------------------- Iteration    1(   3)  ---------------------------------------


     EDDAV:  cpu time  300.2774: real time  300.0295
       DOS:  cpu time    0.0000: real time    0.0006
    --------------------------------------------
      LOOP:  cpu time  300.2784: real time  300.0334

 eigenvalue-minimisations  :   487
 total energy-change (2. order) :-0.3187310E+03  (-0.3094758E+03)
 number of electron      58.0000000 magnetization 
 augmentation part       58.0000000 magnetization 

 Free energy of the ion-electron system (eV)
  ---------------------------------------------------
  alpha Z        PSCENC =         0.51957394
  Ewald energy   TEWEN  =      6093.82797790
  -Hartree energ DENC   =     -7835.96277952
  -exchange      EXHF   =         0.00000000
  -V(xc)+E(xc)   XCENC  =       202.06265644
  PAW double counting   =      1779.70502452    -1789.20730229
  entropy T*S    EENTRO =        -0.01226896
  eigenvalues    EBANDS =      -919.50140405
  atomic energy  EATOM  =      2425.98333211
  Solvation  Ediel_sol  =         0.00000000
  ---------------------------------------------------
  free energy    TOTEN  =       -42.58518992 eV

  energy without entropy =      -42.57292096  energy(sigma->0) =      -42.57905544


--------------------------------------------------------------------------------------------------------




----------------------------------------- Iteration    1(   4)  ---------------------------------------


     EDDAV:  cpu time  254.9732: real time  254.7636
       DOS:  cpu time    0.0000: real time    0.0005
    --------------------------------------------
      LOOP:  cpu time  254.9752: real time  254.7671

 eigenvalue-minimisations  :   398
 total energy-change (2. order) :-0.9338790E+02  (-0.9304875E+02)
 number of electron      58.0000000 magnetization 
 augmentation part       58.0000000 magnetization 

 Free energy of the ion-electron system (eV)
  ---------------------------------------------------
  alpha Z        PSCENC =         0.51957394
  Ewald energy   TEWEN  =      6093.82797790
  -Hartree energ DENC   =     -7835.96277952
  -exchange      EXHF   =         0.00000000
  -V(xc)+E(xc)   XCENC  =       202.06265644
  PAW double counting   =      1779.70502452    -1789.20730229
  entropy T*S    EENTRO =         0.00000000
  eigenvalues    EBANDS =     -1012.90157626
  atomic energy  EATOM  =      2425.98333211
  Solvation  Ediel_sol  =         0.00000000
  ---------------------------------------------------
  free energy    TOTEN  =      -135.97309317 eV

  energy without entropy =     -135.97309317  energy(sigma->0) =     -135.97309317


--------------------------------------------------------------------------------------------------------




----------------------------------------- Iteration    1(   5)  ---------------------------------------


     EDDAV:  cpu time  272.2966: real time  272.0727
       DOS:  cpu time    0.0000: real time    0.0005
    CHARGE:  cpu time   16.5295: real time   16.5159
    MIXING:  cpu time    0.5879: real time    0.5870
    --------------------------------------------
      LOOP:  cpu time  289.4160: real time  289.1788

 eigenvalue-minimisations  :   432
 total energy-change (2. order) :-0.5945369E+01  (-0.5926682E+01)
 number of electron      58.0000047 magnetization 
 augmentation part        2.9722974 magnetization 

 Broyden mixing:
  rms(total) = 0.19553E+01    rms(broyden)= 0.19532E+01
  rms(prec ) = 0.20305E+01
  weight for this iteration     100.00

 Free energy of the ion-electron system (eV)
  ---------------------------------------------------
  alpha Z        PSCENC =         0.51957394
  Ewald energy   TEWEN  =      6093.82797790
  -Hartree energ DENC   =     -7835.96277952
  -exchange      EXHF   =         0.00000000
  -V(xc)+E(xc)   XCENC  =       202.06265644
  PAW double counting   =      1779.70502452    -1789.20730229
  entropy T*S    EENTRO =         0.00000000
  eigenvalues    EBANDS =     -1018.84694543
  atomic energy  EATOM  =      2425.98333211
  Solvation  Ediel_sol  =         0.00000000
  ---------------------------------------------------
  free energy    TOTEN  =      -141.91846233 eV

  energy without entropy =     -141.91846233  energy(sigma->0) =     -141.91846233


--------------------------------------------------------------------------------------------------------




----------------------------------------- Iteration    1(   6)  ---------------------------------------


    POTLOK:  cpu time   18.4952: real time   18.4804
    SETDIJ:  cpu time    0.0290: real time    0.0287
     EDDAV:  cpu time  259.7505: real time  259.5350
       DOS:  cpu time    0.0000: real time    0.0005
    CHARGE:  cpu time   16.4665: real time   16.4527
    MIXING:  cpu time    0.6239: real time    0.6243
    --------------------------------------------
      LOOP:  cpu time  295.3671: real time  295.1751

 eigenvalue-minimisations  :   405
 total energy-change (2. order) : 0.1010508E+02  (-0.2369222E+01)
 number of electron      58.0000053 magnetization 
 augmentation part        2.6334587 magnetization 

 Broyden mixing:
  rms(total) = 0.99971E+00    rms(broyden)= 0.99926E+00
  rms(prec ) = 0.10280E+01
  weight for this iteration     100.00

 eigenvalues of (default mixing * dielectric matrix)
  average eigenvalue GAMMA=   1.2779
  1.2779

 Free energy of the ion-electron system (eV)
  ---------------------------------------------------
  alpha Z        PSCENC =         0.51957394
  Ewald energy   TEWEN  =      6093.82797790
  -Hartree energ DENC   =     -7951.32689268
  -exchange      EXHF   =         0.00000000
  -V(xc)+E(xc)   XCENC  =       208.13802377
  PAW double counting   =      2778.12085725    -2788.98553820
  entropy T*S    EENTRO =         0.00000000
  eigenvalues    EBANDS =      -898.09071453
  atomic energy  EATOM  =      2425.98333211
  Solvation  Ediel_sol  =         0.00000000
  ---------------------------------------------------
  free energy    TOTEN  =      -131.81338045 eV

  energy without entropy =     -131.81338045  energy(sigma->0) =     -131.81338045


--------------------------------------------------------------------------------------------------------




----------------------------------------- Iteration    1(   7)  ---------------------------------------


    POTLOK:  cpu time   18.4622: real time   18.4470
    SETDIJ:  cpu time    0.0280: real time    0.0285
     EDDAV:  cpu time  274.0083: real time  273.7812
       DOS:  cpu time    0.0000: real time    0.0005
    CHARGE:  cpu time   16.4875: real time   16.4745
    MIXING:  cpu time    0.6539: real time    0.6535
    --------------------------------------------
      LOOP:  cpu time  309.6429: real time  309.3883

 eigenvalue-minimisations  :   432
 total energy-change (2. order) : 0.1771176E+01  (-0.4537073E+00)
 number of electron      58.0000051 magnetization 
 augmentation part        2.6216797 magnetization 

 Broyden mixing:
  rms(total) = 0.51477E+00    rms(broyden)= 0.51465E+00
  rms(prec ) = 0.52735E+00
  weight for this iteration     100.00

 eigenvalues of (default mixing * dielectric matrix)
  average eigenvalue GAMMA=   1.5658
  1.0991  2.0325

 Free energy of the ion-electron system (eV)
  ---------------------------------------------------
  alpha Z        PSCENC =         0.51957394
  Ewald energy   TEWEN  =      6093.82797790
  -Hartree energ DENC   =     -8013.81059567
  -exchange      EXHF   =         0.00000000
  -V(xc)+E(xc)   XCENC  =       211.17264458
  PAW double counting   =      3751.10269067    -3762.24106990
  entropy T*S    EENTRO =         0.00000000
  eigenvalues    EBANDS =      -836.59675766
  atomic energy  EATOM  =      2425.98333211
  Solvation  Ediel_sol  =         0.00000000
  ---------------------------------------------------
  free energy    TOTEN  =      -130.04220403 eV

  energy without entropy =     -130.04220403  energy(sigma->0) =     -130.04220403


--------------------------------------------------------------------------------------------------------




----------------------------------------- Iteration    1(   8)  ---------------------------------------


    POTLOK:  cpu time   18.6862: real time   18.6713
    SETDIJ:  cpu time    0.0280: real time    0.0284
     EDDAV:  cpu time  273.7864: real time  273.5587
       DOS:  cpu time    0.0010: real time    0.0005
    CHARGE:  cpu time   16.4755: real time   16.4620
    MIXING:  cpu time    0.6969: real time    0.6969
    --------------------------------------------
      LOOP:  cpu time  309.6759: real time  309.4211

 eigenvalue-minimisations  :   432
 total energy-change (2. order) : 0.4846315E+00  (-0.8625763E-01)
 number of electron      58.0000051 magnetization 
 augmentation part        2.5930126 magnetization 

 Broyden mixing:
  rms(total) = 0.15385E+00    rms(broyden)= 0.15379E+00
  rms(prec ) = 0.16136E+00
  weight for this iteration     100.00

 eigenvalues of (default mixing * dielectric matrix)
  average eigenvalue GAMMA=   1.5452
  2.3834  0.9466  1.3055

 Free energy of the ion-electron system (eV)
  ---------------------------------------------------
  alpha Z        PSCENC =         0.51957394
  Ewald energy   TEWEN  =      6093.82797790
  -Hartree energ DENC   =     -8054.63816666
  -exchange      EXHF   =         0.00000000
  -V(xc)+E(xc)   XCENC  =       213.29810937
  PAW double counting   =      4574.66901269    -4585.99233538
  entropy T*S    EENTRO =         0.00000000
  eigenvalues    EBANDS =      -797.22507654
  atomic energy  EATOM  =      2425.98333211
  Solvation  Ediel_sol  =         0.00000000
  ---------------------------------------------------
  free energy    TOTEN  =      -129.55757257 eV

  energy without entropy =     -129.55757257  energy(sigma->0) =     -129.55757257


--------------------------------------------------------------------------------------------------------




----------------------------------------- Iteration    1(   9)  ---------------------------------------


    POTLOK:  cpu time   18.5072: real time   18.4926
    SETDIJ:  cpu time    0.0290: real time    0.0286
     EDDAV:  cpu time  290.7208: real time  290.4788
       DOS:  cpu time    0.0000: real time    0.0005
    CHARGE:  cpu time   16.4555: real time   16.4411
    MIXING:  cpu time    0.7289: real time    0.7297
    --------------------------------------------
      LOOP:  cpu time  326.4424: real time  326.1748

 eigenvalue-minimisations  :   464
 total energy-change (2. order) : 0.6758504E-01  (-0.9985069E-02)
 number of electron      58.0000051 magnetization 
 augmentation part        2.5849626 magnetization 

 Broyden mixing:
  rms(total) = 0.56289E-01    rms(broyden)= 0.56259E-01
  rms(prec ) = 0.64661E-01
  weight for this iteration     100.00

 eigenvalues of (default mixing * dielectric matrix)
  average eigenvalue GAMMA=   1.5196
  2.2065  1.0514  1.0514  1.7690

 Free energy of the ion-electron system (eV)
  ---------------------------------------------------
  alpha Z        PSCENC =         0.51957394
  Ewald energy   TEWEN  =      6093.82797790
  -Hartree energ DENC   =     -8068.25031634
  -exchange      EXHF   =         0.00000000
  -V(xc)+E(xc)   XCENC  =       213.84926069
  PAW double counting   =      4808.78036228    -4820.07210154
  entropy T*S    EENTRO =         0.00000000
  eigenvalues    EBANDS =      -784.12807657
  atomic energy  EATOM  =      2425.98333211
  Solvation  Ediel_sol  =         0.00000000
  ---------------------------------------------------
  free energy    TOTEN  =      -129.48998753 eV

  energy without entropy =     -129.48998753  energy(sigma->0) =     -129.48998753


--------------------------------------------------------------------------------------------------------




----------------------------------------- Iteration    1(  10)  ---------------------------------------


    POTLOK:  cpu time   18.5532: real time   18.5381
    SETDIJ:  cpu time    0.0280: real time    0.0285
     EDDAV:  cpu time  268.9831: real time  268.7594
       DOS:  cpu time    0.0010: real time    0.0005
    CHARGE:  cpu time   16.4505: real time   16.4370
    MIXING:  cpu time    0.7779: real time    0.7779
    --------------------------------------------
      LOOP:  cpu time  304.7957: real time  304.5451

 eigenvalue-minimisations  :   423
 total energy-change (2. order) : 0.1083705E-01  (-0.2482165E-02)
 number of electron      58.0000051 magnetization 
 augmentation part        2.5916417 magnetization 

 Broyden mixing:
  rms(total) = 0.25551E-01    rms(broyden)= 0.25530E-01
  rms(prec ) = 0.35311E-01
  weight for this iteration     100.00

 eigenvalues of (default mixing * dielectric matrix)
  average eigenvalue GAMMA=   1.4906
  2.1801  2.1801  0.9575  0.9575  1.1778

 Free energy of the ion-electron system (eV)
  ---------------------------------------------------
  alpha Z        PSCENC =         0.51957394
  Ewald energy   TEWEN  =      6093.82797790
  -Hartree energ DENC   =     -8073.37793727
  -exchange      EXHF   =         0.00000000
  -V(xc)+E(xc)   XCENC  =       213.86531383
  PAW double counting   =      4802.72416060    -4813.96653893
  entropy T*S    EENTRO =         0.00000000
  eigenvalues    EBANDS =      -779.05503267
  atomic energy  EATOM  =      2425.98333211
  Solvation  Ediel_sol  =         0.00000000
  ---------------------------------------------------
  free energy    TOTEN  =      -129.47915048 eV

  energy without entropy =     -129.47915048  energy(sigma->0) =     -129.47915048


--------------------------------------------------------------------------------------------------------




----------------------------------------- Iteration    1(  11)  ---------------------------------------


    POTLOK:  cpu time   18.5862: real time   18.5710
    SETDIJ:  cpu time    0.0290: real time    0.0286
     EDDAV:  cpu time  278.0297: real time  277.7996
       DOS:  cpu time    0.0000: real time    0.0005
    CHARGE:  cpu time   16.4605: real time   16.4472
    MIXING:  cpu time    0.8419: real time    0.8414
    --------------------------------------------
      LOOP:  cpu time  313.9493: real time  313.6918

 eigenvalue-minimisations  :   440
 total energy-change (2. order) : 0.4967330E-02  (-0.7799201E-03)
 number of electron      58.0000051 magnetization 
 augmentation part        2.5873660 magnetization 

 Broyden mixing:
  rms(total) = 0.15901E-01    rms(broyden)= 0.15895E-01
  rms(prec ) = 0.24456E-01
  weight for this iteration     100.00

 eigenvalues of (default mixing * dielectric matrix)
  average eigenvalue GAMMA=   1.5569
  2.4856  2.4856  0.9466  0.9466  1.2386  1.2386

 Free energy of the ion-electron system (eV)
  ---------------------------------------------------
  alpha Z        PSCENC =         0.51957394
  Ewald energy   TEWEN  =      6093.82797790
  -Hartree energ DENC   =     -8079.25453707
  -exchange      EXHF   =         0.00000000
  -V(xc)+E(xc)   XCENC  =       213.97046289
  PAW double counting   =      4805.24667138    -4816.48781449
  entropy T*S    EENTRO =         0.00000000
  eigenvalues    EBANDS =      -773.27984981
  atomic energy  EATOM  =      2425.98333211
  Solvation  Ediel_sol  =         0.00000000
  ---------------------------------------------------
  free energy    TOTEN  =      -129.47418315 eV

  energy without entropy =     -129.47418315  energy(sigma->0) =     -129.47418315


--------------------------------------------------------------------------------------------------------




----------------------------------------- Iteration    1(  12)  ---------------------------------------


    POTLOK:  cpu time   18.4732: real time   18.4578
    SETDIJ:  cpu time    0.0290: real time    0.0287
     EDDAV:  cpu time  243.3930: real time  243.1954
       DOS:  cpu time    0.0000: real time    0.0005
    CHARGE:  cpu time   16.5565: real time   16.5425
    MIXING:  cpu time    0.8549: real time    0.8544
    --------------------------------------------
      LOOP:  cpu time  279.3085: real time  279.0831

 eigenvalue-minimisations  :   372
 total energy-change (2. order) :-0.1038287E-02  (-0.5961786E-03)
 number of electron      58.0000051 magnetization 
 augmentation part        2.5866545 magnetization 

 Broyden mixing:
  rms(total) = 0.96445E-02    rms(broyden)= 0.96400E-02
  rms(prec ) = 0.15496E-01
  weight for this iteration     100.00

 eigenvalues of (default mixing * dielectric matrix)
  average eigenvalue GAMMA=   1.6108
  2.7369  2.7369  1.4019  1.2298  1.2298  0.9700  0.9700

 Free energy of the ion-electron system (eV)
  ---------------------------------------------------
  alpha Z        PSCENC =         0.51957394
  Ewald energy   TEWEN  =      6093.82797790
  -Hartree energ DENC   =     -8086.21222551
  -exchange      EXHF   =         0.00000000
  -V(xc)+E(xc)   XCENC  =       214.06133129
  PAW double counting   =      4800.59630272    -4811.82760869
  entropy T*S    EENTRO =         0.00000000
  eigenvalues    EBANDS =      -766.42390520
  atomic energy  EATOM  =      2425.98333211
  Solvation  Ediel_sol  =         0.00000000
  ---------------------------------------------------
  free energy    TOTEN  =      -129.47522144 eV

  energy without entropy =     -129.47522144  energy(sigma->0) =     -129.47522144


--------------------------------------------------------------------------------------------------------




----------------------------------------- Iteration    1(  13)  ---------------------------------------


    POTLOK:  cpu time   18.7252: real time   18.7095
    SETDIJ:  cpu time    0.0280: real time    0.0287
     EDDAV:  cpu time  266.0596: real time  265.8407
       DOS:  cpu time    0.0000: real time    0.0005
    CHARGE:  cpu time   16.5295: real time   16.5160
    MIXING:  cpu time    0.9039: real time    0.9030
    --------------------------------------------
      LOOP:  cpu time  302.2471: real time  302.0019

 eigenvalue-minimisations  :   416
 total energy-change (2. order) :-0.6116090E-02  (-0.4104890E-03)
 number of electron      58.0000051 magnetization 
 augmentation part        2.5853886 magnetization 

 Broyden mixing:
  rms(total) = 0.57221E-02    rms(broyden)= 0.57169E-02
  rms(prec ) = 0.92898E-02
  weight for this iteration     100.00

 eigenvalues of (default mixing * dielectric matrix)
  average eigenvalue GAMMA=   1.7111
  4.0923  2.5009  1.6307  1.4398  0.9998  0.9998  0.9479  1.0774

 Free energy of the ion-electron system (eV)
  ---------------------------------------------------
  alpha Z        PSCENC =         0.51957394
  Ewald energy   TEWEN  =      6093.82797790
  -Hartree energ DENC   =     -8091.72241088
  -exchange      EXHF   =         0.00000000
  -V(xc)+E(xc)   XCENC  =       214.12544106
  PAW double counting   =      4794.90298467    -4806.13421418
  entropy T*S    EENTRO =         0.00000000
  eigenvalues    EBANDS =      -760.98402214
  atomic energy  EATOM  =      2425.98333211
  Solvation  Ediel_sol  =         0.00000000
  ---------------------------------------------------
  free energy    TOTEN  =      -129.48133753 eV

  energy without entropy =     -129.48133753  energy(sigma->0) =     -129.48133753


--------------------------------------------------------------------------------------------------------




----------------------------------------- Iteration    1(  14)  ---------------------------------------


    POTLOK:  cpu time   18.6272: real time   18.6133
    SETDIJ:  cpu time    0.0290: real time    0.0288
     EDDAV:  cpu time  257.0229: real time  256.8093
       DOS:  cpu time    0.0000: real time    0.0005
    CHARGE:  cpu time   16.5485: real time   16.5349
    MIXING:  cpu time    0.9579: real time    0.9566
    --------------------------------------------
      LOOP:  cpu time  293.1884: real time  292.9466

 eigenvalue-minimisations  :   398
 total energy-change (2. order) :-0.6182994E-02  (-0.1585692E-03)
 number of electron      58.0000051 magnetization 
 augmentation part        2.5849179 magnetization 

 Broyden mixing:
  rms(total) = 0.37363E-02    rms(broyden)= 0.37334E-02
  rms(prec ) = 0.57419E-02
  weight for this iteration     100.00

 eigenvalues of (default mixing * dielectric matrix)
  average eigenvalue GAMMA=   1.8252
  5.0439  2.4276  2.2263  1.2533  1.2533  1.2211  1.0367  0.9823  0.9823

 Free energy of the ion-electron system (eV)
  ---------------------------------------------------
  alpha Z        PSCENC =         0.51957394
  Ewald energy   TEWEN  =      6093.82797790
  -Hartree energ DENC   =     -8095.17426125
  -exchange      EXHF   =         0.00000000
  -V(xc)+E(xc)   XCENC  =       214.14885857
  PAW double counting   =      4789.42570658    -4800.65435540
  entropy T*S    EENTRO =         0.00000000
  eigenvalues    EBANDS =      -757.56435298
  atomic energy  EATOM  =      2425.98333211
  Solvation  Ediel_sol  =         0.00000000
  ---------------------------------------------------
  free energy    TOTEN  =      -129.48752053 eV

  energy without entropy =     -129.48752053  energy(sigma->0) =     -129.48752053


--------------------------------------------------------------------------------------------------------




----------------------------------------- Iteration    1(  15)  ---------------------------------------


    POTLOK:  cpu time   18.6462: real time   18.6311
    SETDIJ:  cpu time    0.0280: real time    0.0285
     EDDAV:  cpu time  258.7337: real time  258.5186
       DOS:  cpu time    0.0000: real time    0.0005
    CHARGE:  cpu time   16.5115: real time   16.4988
    MIXING:  cpu time    1.0268: real time    1.0252
    --------------------------------------------
      LOOP:  cpu time  294.9482: real time  294.7058

 eigenvalue-minimisations  :   400
 total energy-change (2. order) :-0.7600175E-02  (-0.8151958E-04)
 number of electron      58.0000051 magnetization 
 augmentation part        2.5845780 magnetization 

 Broyden mixing:
  rms(total) = 0.23331E-02    rms(broyden)= 0.23319E-02
  rms(prec ) = 0.34689E-02
  weight for this iteration     100.00

 eigenvalues of (default mixing * dielectric matrix)
  average eigenvalue GAMMA=   1.9327
  5.7398  2.8687  2.3796  1.8816  1.2801  1.0538  1.0538  1.0544  1.0078  1.0078

 Free energy of the ion-electron system (eV)
  ---------------------------------------------------
  alpha Z        PSCENC =         0.51957394
  Ewald energy   TEWEN  =      6093.82797790
  -Hartree energ DENC   =     -8096.96387885
  -exchange      EXHF   =         0.00000000
  -V(xc)+E(xc)   XCENC  =       214.15090929
  PAW double counting   =      4788.56689145    -4799.79439414
  entropy T*S    EENTRO =         0.00000000
  eigenvalues    EBANDS =      -755.78553239
  atomic energy  EATOM  =      2425.98333211
  Solvation  Ediel_sol  =         0.00000000
  ---------------------------------------------------
  free energy    TOTEN  =      -129.49512070 eV

  energy without entropy =     -129.49512070  energy(sigma->0) =     -129.49512070


--------------------------------------------------------------------------------------------------------




----------------------------------------- Iteration    1(  16)  ---------------------------------------


    POTLOK:  cpu time   18.6532: real time   18.6385
    SETDIJ:  cpu time    0.0290: real time    0.0284
     EDDAV:  cpu time  222.6661: real time  222.4826
       DOS:  cpu time    0.0000: real time    0.0005
    CHARGE:  cpu time   16.5525: real time   16.5388
    MIXING:  cpu time    1.0878: real time    1.0876
    --------------------------------------------
      LOOP:  cpu time  258.9906: real time  258.7798

 eigenvalue-minimisations  :   330
 total energy-change (2. order) :-0.6207063E-02  (-0.5287899E-04)
 number of electron      58.0000051 magnetization 
 augmentation part        2.5847794 magnetization 

 Broyden mixing:
  rms(total) = 0.13213E-02    rms(broyden)= 0.13206E-02
  rms(prec ) = 0.19305E-02
  weight for this iteration     100.00

 eigenvalues of (default mixing * dielectric matrix)
  average eigenvalue GAMMA=   1.9434
  6.2531  3.2052  2.3516  1.8987  1.2601  1.2279  1.2279  1.0188  1.0188  0.9576
  0.9576

 Free energy of the ion-electron system (eV)
  ---------------------------------------------------
  alpha Z        PSCENC =         0.51957394
  Ewald energy   TEWEN  =      6093.82797790
  -Hartree energ DENC   =     -8097.63180619
  -exchange      EXHF   =         0.00000000
  -V(xc)+E(xc)   XCENC  =       214.13939511
  PAW double counting   =      4788.82597154    -4800.05213052
  entropy T*S    EENTRO =         0.00000000
  eigenvalues    EBANDS =      -755.11364165
  atomic energy  EATOM  =      2425.98333211
  Solvation  Ediel_sol  =         0.00000000
  ---------------------------------------------------
  free energy    TOTEN  =      -129.50132776 eV

  energy without entropy =     -129.50132776  energy(sigma->0) =     -129.50132776


--------------------------------------------------------------------------------------------------------




----------------------------------------- Iteration    1(  17)  ---------------------------------------


    POTLOK:  cpu time   18.6492: real time   18.6338
    SETDIJ:  cpu time    0.0280: real time    0.0286
     EDDAV:  cpu time  238.9277: real time  238.7291
       DOS:  cpu time    0.0000: real time    0.0005
    CHARGE:  cpu time   16.6065: real time   16.5929
    MIXING:  cpu time    1.1198: real time    1.1191
    --------------------------------------------
      LOOP:  cpu time  275.3331: real time  275.1069

 eigenvalue-minimisations  :   360
 total energy-change (2. order) :-0.2238958E-02  (-0.1026423E-04)
 number of electron      58.0000051 magnetization 
 augmentation part        2.5846285 magnetization 

 Broyden mixing:
  rms(total) = 0.87179E-03    rms(broyden)= 0.87139E-03
  rms(prec ) = 0.12852E-02
  weight for this iteration     100.00

 eigenvalues of (default mixing * dielectric matrix)
  average eigenvalue GAMMA=   2.0348
  7.1216  3.6276  2.3159  2.3159  1.5341  1.5341  1.0460  1.0460  1.0216  1.0216
  0.9164  0.9164

 Free energy of the ion-electron system (eV)
  ---------------------------------------------------
  alpha Z        PSCENC =         0.51957394
  Ewald energy   TEWEN  =      6093.82797790
  -Hartree energ DENC   =     -8097.93392649
  -exchange      EXHF   =         0.00000000
  -V(xc)+E(xc)   XCENC  =       214.13730315
  PAW double counting   =      4788.82554785    -4800.05206122
  entropy T*S    EENTRO =         0.00000000
  eigenvalues    EBANDS =      -754.81131395
  atomic energy  EATOM  =      2425.98333211
  Solvation  Ediel_sol  =         0.00000000
  ---------------------------------------------------
  free energy    TOTEN  =      -129.50356672 eV

  energy without entropy =     -129.50356672  energy(sigma->0) =     -129.50356672


--------------------------------------------------------------------------------------------------------




----------------------------------------- Iteration    1(  18)  ---------------------------------------


    POTLOK:  cpu time   18.6452: real time   18.6301
    SETDIJ:  cpu time    0.0290: real time    0.0286
     EDDAV:  cpu time  186.6436: real time  186.4899
       DOS:  cpu time    0.0000: real time    0.0005
    CHARGE:  cpu time   16.5655: real time   16.5512
    MIXING:  cpu time    1.1768: real time    1.1762
    --------------------------------------------
      LOOP:  cpu time  223.0611: real time  222.8798

 eigenvalue-minimisations  :   259
 total energy-change (2. order) :-0.1814556E-02  (-0.1186742E-04)
 number of electron      58.0000051 magnetization 
 augmentation part        2.5845888 magnetization 

 Broyden mixing:
  rms(total) = 0.52905E-03    rms(broyden)= 0.52886E-03
  rms(prec ) = 0.75909E-03
  weight for this iteration     100.00

 eigenvalues of (default mixing * dielectric matrix)
  average eigenvalue GAMMA=   2.0796
  7.5716  4.2165  2.4990  2.2906  1.7415  1.3394  1.3394  1.0477  1.0477  0.9650
  0.9650  1.0055  1.0055

 Free energy of the ion-electron system (eV)
  ---------------------------------------------------
  alpha Z        PSCENC =         0.51957394
  Ewald energy   TEWEN  =      6093.82797790
  -Hartree energ DENC   =     -8098.12188168
  -exchange      EXHF   =         0.00000000
  -V(xc)+E(xc)   XCENC  =       214.13401384
  PAW double counting   =      4788.87343639    -4800.09981666
  entropy T*S    EENTRO =         0.00000000
  eigenvalues    EBANDS =      -754.62201711
  atomic energy  EATOM  =      2425.98333211
  Solvation  Ediel_sol  =         0.00000000
  ---------------------------------------------------
  free energy    TOTEN  =      -129.50538128 eV

  energy without entropy =     -129.50538128  energy(sigma->0) =     -129.50538128


--------------------------------------------------------------------------------------------------------




----------------------------------------- Iteration    1(  19)  ---------------------------------------


    POTLOK:  cpu time   18.6312: real time   18.6165
    SETDIJ:  cpu time    0.0280: real time    0.0284
     EDDAV:  cpu time  230.7669: real time  230.5747
       DOS:  cpu time    0.0000: real time    0.0005
    CHARGE:  cpu time   16.5765: real time   16.5631
    MIXING:  cpu time    1.2728: real time    1.2711
    --------------------------------------------
      LOOP:  cpu time  267.2764: real time  267.1010

 eigenvalue-minimisations  :   344
 total energy-change (2. order) :-0.8783170E-03  (-0.4887595E-05)
 number of electron      58.0000051 magnetization 
 augmentation part        2.5845477 magnetization 

 Broyden mixing:
  rms(total) = 0.33756E-03    rms(broyden)= 0.33737E-03
  rms(prec ) = 0.47003E-03
  weight for this iteration     100.00

 eigenvalues of (default mixing * dielectric matrix)
  average eigenvalue GAMMA=   2.1415
  8.0965  4.7396  2.6201  2.6201  1.6258  1.6258  1.6374  1.0390  1.0390  0.9175
  1.0133  1.0133  0.9969  0.9969

 Free energy of the ion-electron system (eV)
  ---------------------------------------------------
  alpha Z        PSCENC =         0.51957394
  Ewald energy   TEWEN  =      6093.82797790
  -Hartree energ DENC   =     -8098.20442238
  -exchange      EXHF   =         0.00000000
  -V(xc)+E(xc)   XCENC  =       214.13365029
  PAW double counting   =      4789.29225379    -4800.51871462
  entropy T*S    EENTRO =         0.00000000
  eigenvalues    EBANDS =      -754.53991063
  atomic energy  EATOM  =      2425.98333211
  Solvation  Ediel_sol  =         0.00000000
  ---------------------------------------------------
  free energy    TOTEN  =      -129.50625959 eV

  energy without entropy =     -129.50625959  energy(sigma->0) =     -129.50625959


--------------------------------------------------------------------------------------------------------




----------------------------------------- Iteration    1(  20)  ---------------------------------------


    POTLOK:  cpu time   18.5502: real time   18.5364
    SETDIJ:  cpu time    0.0290: real time    0.0284
     EDDAV:  cpu time  194.5274: real time  194.3657
       DOS:  cpu time    0.0000: real time    0.0005
    CHARGE:  cpu time   16.5075: real time   16.4930
    MIXING:  cpu time    1.3508: real time    1.3502
    --------------------------------------------
      LOOP:  cpu time  230.9659: real time  230.7771

 eigenvalue-minimisations  :   274
 total energy-change (2. order) :-0.4767026E-03  (-0.1946171E-05)
 number of electron      58.0000051 magnetization 
 augmentation part        2.5845649 magnetization 

 Broyden mixing:
  rms(total) = 0.20921E-03    rms(broyden)= 0.20915E-03
  rms(prec ) = 0.28046E-03
  weight for this iteration     100.00

 eigenvalues of (default mixing * dielectric matrix)
  average eigenvalue GAMMA=   2.1389
  8.2732  5.1812  2.8404  2.5092  1.9148  1.7885  1.1907  1.1907  1.0417  1.0417
  1.0774  1.0774  0.9316  1.0121  1.0121

 Free energy of the ion-electron system (eV)
  ---------------------------------------------------
  alpha Z        PSCENC =         0.51957394
  Ewald energy   TEWEN  =      6093.82797790
  -Hartree energ DENC   =     -8098.22282737
  -exchange      EXHF   =         0.00000000
  -V(xc)+E(xc)   XCENC  =       214.13211393
  PAW double counting   =      4788.86149683    -4800.08784664
  entropy T*S    EENTRO =         0.00000000
  eigenvalues    EBANDS =      -754.52055699
  atomic energy  EATOM  =      2425.98333211
  Solvation  Ediel_sol  =         0.00000000
  ---------------------------------------------------
  free energy    TOTEN  =      -129.50673630 eV

  energy without entropy =     -129.50673630  energy(sigma->0) =     -129.50673630


--------------------------------------------------------------------------------------------------------




----------------------------------------- Iteration    1(  21)  ---------------------------------------


    POTLOK:  cpu time   18.6922: real time   18.6774
    SETDIJ:  cpu time    0.0290: real time    0.0285
     EDDAV:  cpu time  235.3522: real time  235.1567
       DOS:  cpu time    0.0000: real time    0.0005
    CHARGE:  cpu time   16.5665: real time   16.5528
    MIXING:  cpu time    1.4158: real time    1.4148
    --------------------------------------------
      LOOP:  cpu time  272.0566: real time  271.8370

 eigenvalue-minimisations  :   352
 total energy-change (2. order) :-0.1789926E-03  (-0.7024911E-06)
 number of electron      58.0000051 magnetization 
 augmentation part        2.5845517 magnetization 

 Broyden mixing:
  rms(total) = 0.12722E-03    rms(broyden)= 0.12718E-03
  rms(prec ) = 0.17700E-03
  weight for this iteration     100.00

 eigenvalues of (default mixing * dielectric matrix)
  average eigenvalue GAMMA=   2.2172
  8.4808  5.7485  3.3506  2.6017  2.4060  1.6676  1.6676  1.4247  1.0441  1.0441
  1.0881  1.0881  0.9719  0.9719  1.0307  0.8882

 Free energy of the ion-electron system (eV)
  ---------------------------------------------------
  alpha Z        PSCENC =         0.51957394
  Ewald energy   TEWEN  =      6093.82797790
  -Hartree energ DENC   =     -8098.23329095
  -exchange      EXHF   =         0.00000000
  -V(xc)+E(xc)   XCENC  =       214.13201191
  PAW double counting   =      4788.95148490    -4800.17785639
  entropy T*S    EENTRO =         0.00000000
  eigenvalues    EBANDS =      -754.51014870
  atomic energy  EATOM  =      2425.98333211
  Solvation  Ediel_sol  =         0.00000000
  ---------------------------------------------------
  free energy    TOTEN  =      -129.50691529 eV

  energy without entropy =     -129.50691529  energy(sigma->0) =     -129.50691529


--------------------------------------------------------------------------------------------------------




----------------------------------------- Iteration    1(  22)  ---------------------------------------


    POTLOK:  cpu time   18.5282: real time   18.5133
    SETDIJ:  cpu time    0.0290: real time    0.0285
     EDDAV:  cpu time  187.6505: real time  187.4949
       DOS:  cpu time    0.0000: real time    0.0005
    CHARGE:  cpu time   16.5235: real time   16.5103
    MIXING:  cpu time    1.4828: real time    1.4811
    --------------------------------------------
      LOOP:  cpu time  224.2149: real time  224.0319

 eigenvalue-minimisations  :   260
 total energy-change (2. order) :-0.1535658E-03  (-0.4249163E-06)
 number of electron      58.0000051 magnetization 
 augmentation part        2.5845485 magnetization 

 Broyden mixing:
  rms(total) = 0.11068E-03    rms(broyden)= 0.11065E-03
  rms(prec ) = 0.12811E-03
  weight for this iteration     100.00

 eigenvalues of (default mixing * dielectric matrix)
  average eigenvalue GAMMA=   2.2034
  8.5859  6.1112  3.6561  2.4730  2.4730  1.7329  1.7329  1.2913  1.2913  1.0412
  1.0412  1.0772  1.0772  0.9797  0.9797  1.0013  0.9116

 Free energy of the ion-electron system (eV)
  ---------------------------------------------------
  alpha Z        PSCENC =         0.51957394
  Ewald energy   TEWEN  =      6093.82797790
  -Hartree energ DENC   =     -8098.24926635
  -exchange      EXHF   =         0.00000000
  -V(xc)+E(xc)   XCENC  =       214.13178243
  PAW double counting   =      4788.87340843    -4800.09980942
  entropy T*S    EENTRO =         0.00000000
  eigenvalues    EBANDS =      -754.49406790
  atomic energy  EATOM  =      2425.98333211
  Solvation  Ediel_sol  =         0.00000000
  ---------------------------------------------------
  free energy    TOTEN  =      -129.50706886 eV

  energy without entropy =     -129.50706886  energy(sigma->0) =     -129.50706886


--------------------------------------------------------------------------------------------------------




----------------------------------------- Iteration    1(  23)  ---------------------------------------


    POTLOK:  cpu time   18.5832: real time   18.5678
    SETDIJ:  cpu time    0.0290: real time    0.0287
     EDDAV:  cpu time  239.3776: real time  239.1810
       DOS:  cpu time    0.0000: real time    0.0005
    --------------------------------------------
      LOOP:  cpu time  257.9908: real time  257.7809

 eigenvalue-minimisations  :   360
 total energy-change (2. order) :-0.3458245E-04  (-0.1033606E-06)
 number of electron      58.0000051 magnetization 
 augmentation part        2.5845485 magnetization 

 Free energy of the ion-electron system (eV)
  ---------------------------------------------------
  alpha Z        PSCENC =         0.51957394
  Ewald energy   TEWEN  =      6093.82797790
  -Hartree energ DENC   =     -8098.25590557
  -exchange      EXHF   =         0.00000000
  -V(xc)+E(xc)   XCENC  =       214.13173665
  PAW double counting   =      4788.88422157    -4800.11059060
  entropy T*S    EENTRO =         0.00000000
  eigenvalues    EBANDS =      -754.48744944
  atomic energy  EATOM  =      2425.98333211
  Solvation  Ediel_sol  =         0.00000000
  ---------------------------------------------------
  free energy    TOTEN  =      -129.50710344 eV

  energy without entropy =     -129.50710344  energy(sigma->0) =     -129.50710344


--------------------------------------------------------------------------------------------------------




 average (electrostatic) potential at core
  the test charge radii are     0.5201  0.6991  0.7089  0.7215
  (the norm of the test charge is              1.0000)
       1 -42.2600       2 -42.5367       3 -42.5072       4 -44.7297       5 -42.2828
       6 -41.8430       7 -41.8151       8 -41.9452       9 -43.4771      10 -41.7591
      11 -41.7532      12 -42.0421      13 -59.0372      14 -61.4215      15 -59.9074
      16 -58.6024      17 -60.7553      18 -59.1431      19 -74.6927      20 -73.9596
      21 -79.9479      22 -79.3351
 
 
 
 E-fermi :  -4.5132     XC(G=0):  -0.1537     alpha+bet : -0.0465


 k-point     1 :       0.2500    0.2500    0.2500
  band No.  band energies     occupation 
      1     -26.2396      2.00000
      2     -25.5999      2.00000
      3     -23.3685      2.00000
      4     -22.6662      2.00000
      5     -19.5187      2.00000
      6     -18.2188      2.00000
      7     -17.4808      2.00000
      8     -15.7501      2.00000
      9     -14.9126      2.00000
     10     -14.0096      2.00000
     11     -13.1114      2.00000
     12     -12.2776      2.00000
     13     -12.0200      2.00000
     14     -11.3031      2.00000
     15     -11.1203      2.00000
     16     -10.6867      2.00000
     17     -10.2124      2.00000
     18     -10.0757      2.00000
     19      -9.9637      2.00000
     20      -9.5114      2.00000
     21      -9.3772      2.00000
     22      -9.1300      2.00000
     23      -9.0102      2.00000
     24      -8.8207      2.00000
     25      -8.5427      2.00000
     26      -6.7996      2.00000
     27      -6.2006      2.00000
     28      -5.8725      2.00000
     29      -5.4430      2.00000
     30      -1.0654      0.00000
     31      -0.8843      0.00000
     32      -0.4763      0.00000
     33      -0.3007      0.00000
     34      -0.2020      0.00000
     35      -0.0772      0.00000
     36       0.0158      0.00000
     37       0.0982      0.00000
     38       0.1068      0.00000
     39       0.1097      0.00000
     40       0.1579      0.00000
     41       0.1778      0.00000

 k-point     2 :      -0.2500    0.2500    0.2500
  band No.  band energies     occupation 
      1     -26.2396      2.00000
      2     -25.5999      2.00000
      3     -23.3685      2.00000
      4     -22.6662      2.00000
      5     -19.5187      2.00000
      6     -18.2188      2.00000
      7     -17.4808      2.00000
      8     -15.7501      2.00000
      9     -14.9127      2.00000
     10     -14.0096      2.00000
     11     -13.1114      2.00000
     12     -12.2776      2.00000
     13     -12.0200      2.00000
     14     -11.3031      2.00000
     15     -11.1203      2.00000
     16     -10.6867      2.00000
     17     -10.2124      2.00000
     18     -10.0757      2.00000
     19      -9.9637      2.00000
     20      -9.5114      2.00000
     21      -9.3772      2.00000
     22      -9.1300      2.00000
     23      -9.0102      2.00000
     24      -8.8207      2.00000
     25      -8.5427      2.00000
     26      -6.7997      2.00000
     27      -6.2006      2.00000
     28      -5.8725      2.00000
     29      -5.4430      2.00000
     30      -1.0654      0.00000
     31      -0.8843      0.00000
     32      -0.4764      0.00000
     33      -0.3007      0.00000
     34      -0.2020      0.00000
     35      -0.0782      0.00000
     36       0.0226      0.00000
     37       0.0879      0.00000
     38       0.0987      0.00000
     39       0.1174      0.00000
     40       0.1608      0.00000
     41       0.1678      0.00000

 k-point     3 :       0.2500   -0.2500    0.2500
  band No.  band energies     occupation 
      1     -26.2396      2.00000
      2     -25.5999      2.00000
      3     -23.3685      2.00000
      4     -22.6662      2.00000
      5     -19.5187      2.00000
      6     -18.2188      2.00000
      7     -17.4808      2.00000
      8     -15.7501      2.00000
      9     -14.9127      2.00000
[...]

 Free energy of the ion-electron system (eV)
  ---------------------------------------------------
  alpha Z        PSCENC =         0.51957394
  Ewald energy   TEWEN  =      6082.34933594
  -Hartree energ DENC   =     -8085.80436400
  -exchange      EXHF   =         0.00000000
  -V(xc)+E(xc)   XCENC  =       214.10518602
  PAW double counting   =      4786.95414628    -4798.17285649
  entropy T*S    EENTRO =         0.00000000
  eigenvalues    EBANDS =      -755.47159709
  atomic energy  EATOM  =      2425.98333211
  Solvation  Ediel_sol  =         0.00000000
  ---------------------------------------------------
  free energy    TOTEN  =      -129.53724330 eV

  energy without entropy =     -129.53724330  energy(sigma->0) =     -129.53724330


--------------------------------------------------------------------------------------------------------




 average (electrostatic) potential at core
  the test charge radii are     0.5201  0.6991  0.7089  0.7215
  (the norm of the test charge is              1.0000)
       1 -42.2880       2 -42.5433       3 -42.5219       4 -44.7347       5 -42.2788
       6 -41.8833       7 -41.8545       8 -41.9814       9 -43.5458      10 -41.7914
      11 -41.7964      12 -42.0705      13 -59.0611      14 -61.4156      15 -59.9264
      16 -58.6212      17 -60.7850      18 -59.1772      19 -74.7185      20 -74.0037
      21 -79.9033      22 -79.3638
 
 
 
 E-fermi :  -4.4814     XC(G=0):  -0.1335     alpha+bet : -0.0465


 k-point     1 :       0.2500    0.2500    0.2500
  band No.  band energies     occupation 
      1     -26.1607      2.00000
      2     -25.5882      2.00000
      3     -23.4055      2.00000
      4     -22.7326      2.00000
      5     -19.5665      2.00000
      6     -18.2199      2.00000
      7     -17.5529      2.00000
      8     -15.7658      2.00000
      9     -14.9263      2.00000
     10     -14.0628      2.00000
     11     -13.1279      2.00000
     12     -12.2641      2.00000
     13     -12.0121      2.00000
     14     -11.3258      2.00000
     15     -11.1209      2.00000
     16     -10.7261      2.00000
     17     -10.2247      2.00000
     18     -10.1138      2.00000
     19      -9.9343      2.00000
     20      -9.5370      2.00000
     21      -9.3974      2.00000
     22      -9.1357      2.00000
     23      -9.0650      2.00000
     24      -8.8467      2.00000
     25      -8.5741      2.00000
     26      -6.7974      2.00000
     27      -6.1758      2.00000
     28      -5.8972      2.00000
     29      -5.4788      2.00000
     30      -1.0989      0.00000
     31      -0.8825      0.00000
     32      -0.4797      0.00000
     33      -0.3142      0.00000
     34      -0.2095      0.00000
     35      -0.0778      0.00000
     36       0.0385      0.00000
     37       0.1209      0.00000
     38       0.1282      0.00000
     39       0.1331      0.00000
     40       0.1754      0.00000
     41       0.1936      0.00000

 k-point     2 :      -0.2500    0.2500    0.2500
  band No.  band energies     occupation 
      1     -26.1607      2.00000
      2     -25.5882      2.00000
      3     -23.4055      2.00000
      4     -22.7326      2.00000
      5     -19.5665      2.00000
      6     -18.2199      2.00000
      7     -17.5529      2.00000
      8     -15.7658      2.00000
      9     -14.9263      2.00000
     10     -14.0628      2.00000
     11     -13.1279      2.00000
     12     -12.2641      2.00000
     13     -12.0121      2.00000
     14     -11.3258      2.00000
     15     -11.1209      2.00000
     16     -10.7261      2.00000
     17     -10.2247      2.00000
     18     -10.1138      2.00000
     19      -9.9343      2.00000
     20      -9.5370      2.00000
     21      -9.3974      2.00000
     22      -9.1357      2.00000
     23      -9.0649      2.00000
     24      -8.8467      2.00000
     25      -8.5741      2.00000
     26      -6.7975      2.00000
     27      -6.1758      2.00000
     28      -5.8972      2.00000
     29      -5.4788      2.00000
     30      -1.0989      0.00000
     31      -0.8825      0.00000
     32      -0.4797      0.00000
     33      -0.3142      0.00000
     34      -0.2095      0.00000
     35      -0.0784      0.00000
     36       0.0448      0.00000
     37       0.1092      0.00000
     38       0.1205      0.00000
     39       0.1405      0.00000
     40       0.1805      0.00000
     41       0.1897      0.00000

 k-point     3 :       0.2500   -0.2500    0.2500
  band No.  band energies     occupation 
      1     -26.1607      2.00000
      2     -25.5882      2.00000
      3     -23.4055      2.00000
      4     -22.7326      2.00000
      5     -19.5665      2.00000
      6     -18.2199      2.00000
      7     -17.5529      2.00000
      8     -15.7658      2.00000
      9     -14.9263      2.00000
     10     -14.0628      2.00000
     11     -13.1279      2.00000
     12     -12.2640      2.00000
     13     -12.0121      2.00000
     14     -11.3258      2.00000
     15     -11.1209      2.00000
     16     -10.7261      2.00000
     17     -10.2247      2.00000
     18     -10.1138      2.00000
     19      -9.9343      2.00000
     20      -9.5370      2.00000
     21      -9.3974      2.00000
     22      -9.1357      2.00000
     23      -9.0649      2.00000
     24      -8.8467      2.00000
     25      -8.5741      2.00000
     26      -6.7975      2.00000
     27      -6.1758      2.00000
     28      -5.8972      2.00000
     29      -5.4788      2.00000
     30      -1.0989      0.00000
     31      -0.8825      0.00000
     32      -0.4797      0.00000
     33      -0.3142      0.00000
     34      -0.2096      0.00000
     35      -0.0777      0.00000
     36       0.0430      0.00000
     37       0.1040      0.00000
     38       0.1292      0.00000
     39       0.1379      0.00000
     40       0.1781      0.00000
     41       0.1948      0.00000

 k-point     4 :      -0.2500   -0.2500    0.2500
  band No.  band energies     occupation 
      1     -26.1607      2.00000
      2     -25.5882      2.00000
      3     -23.4055      2.00000
      4     -22.7326      2.00000
      5     -19.5665      2.00000
      6     -18.2199      2.00000
      7     -17.5529      2.00000
      8     -15.7658      2.00000
      9     -14.9263      2.00000
     10     -14.0628      2.00000
     11     -13.1279      2.00000
     12     -12.2640      2.00000
     13     -12.0121      2.00000
     14     -11.3258      2.00000
     15     -11.1209      2.00000
     16     -10.7261      2.00000
     17     -10.2247      2.00000
     18     -10.1138      2.00000
     19      -9.9343      2.00000
     20      -9.5370      2.00000
     21      -9.3974      2.00000
     22      -9.1357      2.00000
     23      -9.0649      2.00000
     24      -8.8467      2.00000
     25      -8.5741      2.00000
     26      -6.7975      2.00000
     27      -6.1758      2.00000
     28      -5.8971      2.00000
     29      -5.4788      2.00000
     30      -1.0989      0.00000
     31      -0.8825      0.00000
     32      -0.4797      0.00000
     33      -0.3142      0.00000
     34      -0.2096      0.00000
     35      -0.0782      0.00000
     36       0.0446      0.00000
     37       0.1084      0.00000
     38       0.1288      0.00000
     39       0.1305      0.00000
     40       0.1798      0.00000
     41       0.1969      0.00000


--------------------------------------------------------------------------------------------------------


 soft charge-density along one line, spin component           1
         0         1         2         3         4         5         6         7         8         9
 total charge-density along one line
 
 pseudopotential strength for first ion, spin component:           1
 -2.352  -4.054   0.002   0.000  -0.001
 -4.054  -6.904   0.005   0.000  -0.002
  0.002   0.005  -0.332   0.000  -0.002
  0.000   0.000   0.000  -0.336   0.000
 -0.001  -0.002  -0.002   0.000  -0.336
 total augmentation occupancy for first ion, spin component:           1
  3.531  -0.636  -0.418   0.006   0.146
 -0.636   0.129   0.077  -0.001  -0.026
 -0.418   0.077   0.051  -0.001  -0.015
  0.006  -0.001  -0.001   0.009   0.000
  0.146  -0.026  -0.015   0.000   0.013


------------------------ aborting loop because EDIFF is reached ----------------------------------------


    CHARGE:  cpu time   16.2475: real time   16.2335
    FORLOC:  cpu time    5.6451: real time    5.6405
    FORNL :  cpu time   59.9189: real time   59.8690
    STRESS:  cpu time  182.9782: real time  182.8257
    FORCOR:  cpu time   22.6686: real time   22.6495
    FORHAR:  cpu time   10.0405: real time   10.0318
    MIXING:  cpu time    0.7499: real time    0.7498
    OFIELD:  cpu time    0.0000: real time    0.0000

  FORCE on cell =-STRESS in cart. coord.  units (eV):
  Direction    XX          YY          ZZ          XY          YZ          ZX
  --------------------------------------------------------------------------------------
  Alpha Z     0.51957     0.51957     0.51957
  Ewald    2651.93200  2542.21795   888.19811  -229.06147  -157.14568  -903.01476
  Hartree  3263.88538  2994.43233  1827.48676  -197.65707  -211.15097  -746.21570
  E(xc)    -230.35527  -229.34854  -231.43284    -0.14898     0.59528    -0.63806
  Local   -6529.90586 -6120.31709 -3341.17409   426.27403   395.39173  1640.28865
  n-local  -132.36417  -134.64672  -132.93873     0.23294    -2.32731     0.72182
  augment    14.76677    14.14003    14.46638    -0.20889    -1.01649     0.02402
  Kinetic   957.68887   929.60778   971.16776     0.60786   -24.23672     8.77024
  Fock        0.00000     0.00000     0.00000     0.00000     0.00000     0.00000
  -------------------------------------------------------------------------------------
  Total      -3.83271    -3.39470    -3.70708     0.03841     0.10984    -0.06379
  in kB      -0.22743    -0.20144    -0.21998     0.00228     0.00652    -0.00379
  external pressure =       -0.22 kB  Pullay stress =        0.00 kB


 VOLUME and BASIS-vectors are now :
 -----------------------------------------------------------------------------
  energy-cutoff  :      400.00
  volume of cell :    27000.00
      direct lattice vectors                 reciprocal lattice vectors
    30.000000000  0.000000000  0.000000000     0.033333333  0.000000000  0.000000000
     0.000000000 30.000000000  0.000000000     0.000000000  0.033333333  0.000000000
     0.000000000  0.000000000 30.000000000     0.000000000  0.000000000  0.033333333

  length of vectors
    30.000000000 30.000000000 30.000000000     0.033333333  0.033333333  0.033333333


 FORCES acting on ions
    electron-ion (+dipol)            ewald-force                    non-local-force                 convergence-correction
 -----------------------------------------------------------------------------------------------
   0.579E+02 -.642E+02 0.376E+01   -.598E+02 0.696E+02 -.385E+01   0.187E+01 -.535E+01 0.783E-01   0.108E-04 0.238E-04 -.222E-04
   0.539E+02 0.240E+02 0.596E+02   -.553E+02 -.264E+02 -.643E+02   0.138E+01 0.241E+01 0.473E+01   -.757E-06 0.189E-04 -.186E-04
   0.653E+02 0.279E+02 -.487E+02   -.679E+02 -.305E+02 0.527E+02   0.259E+01 0.262E+01 -.405E+01   -.833E-05 0.129E-04 -.188E-04
   0.655E+02 0.862E+02 0.364E+02   -.693E+02 -.919E+02 -.392E+02   0.377E+01 0.573E+01 0.278E+01   -.205E-04 0.241E-04 -.261E-04
   -.313E+02 -.211E+02 -.916E+02   0.324E+02 0.240E+02 0.963E+02   -.113E+01 -.296E+01 -.470E+01   0.222E-04 0.516E-04 0.584E-05
   -.704E+02 0.453E+02 -.323E+02   0.758E+02 -.461E+02 0.333E+02   -.543E+01 0.846E+00 -.103E+01   -.830E-05 0.204E-04 0.468E-05
   0.902E+01 0.777E+02 0.417E+02   -.998E+01 -.806E+02 -.462E+02   0.963E+00 0.292E+01 0.459E+01   -.797E-05 0.357E-04 -.125E-05
   0.257E+02 0.572E+02 -.638E+02   -.286E+02 -.592E+02 0.680E+02   0.293E+01 0.200E+01 -.421E+01   0.119E-04 0.228E-04 -.182E-04
   0.188E+02 -.764E+02 -.378E+02   -.234E+02 0.799E+02 0.421E+02   0.468E+01 -.350E+01 -.432E+01   0.400E-05 0.412E-04 -.141E-04
   -.827E+02 -.251E+01 0.295E+02   0.878E+02 0.148E+00 -.303E+02   -.511E+01 0.236E+01 0.740E+00   -.202E-04 0.464E-04 -.487E-05
   0.140E+02 -.219E+02 0.821E+02   -.165E+02 0.216E+02 -.869E+02   0.259E+01 0.327E+00 0.486E+01   -.252E-04 0.180E-04 -.173E-04
   -.253E+02 -.841E+02 0.214E+01   0.259E+02 0.895E+02 -.762E+00   -.630E+00 -.544E+01 -.137E+01   -.713E-05 0.801E-05 -.208E-05
   0.225E+03 -.180E+02 0.156E+02   -.226E+03 0.190E+02 -.158E+02   0.794E+00 -.102E+01 0.143E+00   -.150E-04 0.796E-04 -.112E-03
   0.182E+03 -.810E+01 -.916E+01   -.187E+03 0.869E+01 0.840E+01   0.496E+01 -.598E+00 0.753E+00   -.439E-04 0.133E-03 -.151E-03
   -.574E+02 0.708E+02 -.123E+03   0.630E+02 -.717E+02 0.124E+03   -.565E+01 0.892E+00 -.139E+01   0.346E-04 0.116E-03 -.663E-04
   -.424E+02 0.218E+03 -.881E+02   0.429E+02 -.219E+03 0.881E+02   -.504E+00 0.112E+01 0.562E-01   -.909E-04 0.654E-04 -.742E-04
   -.464E+02 0.165E+02 -.170E+02   0.437E+02 -.184E+02 0.201E+02   0.271E+01 0.191E+01 -.306E+01   -.210E-04 0.185E-03 -.145E-03
   -.119E+03 -.158E+03 0.142E+03   0.122E+03 0.160E+03 -.146E+03   -.288E+01 -.205E+01 0.401E+01   -.432E-04 0.154E-03 0.266E-06
   0.144E+03 0.167E+03 0.168E+02   -.142E+03 -.168E+03 -.163E+02   -.212E+01 0.667E+00 -.506E+00   -.109E-03 0.131E-03 -.182E-03
   -.789E+02 -.205E+03 -.423E+01   0.812E+02 0.208E+03 0.775E+01   -.229E+01 -.314E+01 -.352E+01   -.963E-04 0.188E-03 -.105E-03
   0.549E+01 -.368E+03 -.195E+03   0.161E+02 0.412E+03 0.212E+03   -.216E+02 -.435E+02 -.176E+02   0.104E-03 0.408E-03 -.485E-03
   -.267E+03 0.249E+03 0.271E+03   0.295E+03 -.281E+03 -.304E+03   -.276E+02 0.320E+02 0.324E+02   -.495E-03 0.266E-03 -.389E-03
 -----------------------------------------------------------------------------------------------
   0.457E+02 0.117E+02 -.932E+01   0.568E-13 -.114E-12 0.568E-13   -.457E+02 -.117E+02 0.933E+01   -.825E-03 0.205E-02 -.184E-02
 
 
 POSITION                                       TOTAL-FORCE (eV/Angst)
 -----------------------------------------------------------------------------------
     11.52756     16.57589     15.35657         0.003234     -0.001216     -0.007888
     11.63163     15.04620     14.42979         0.004233     -0.008798      0.004689
     11.38174     15.00683     16.19065         0.003479      0.005709      0.004835
     13.51561     13.59914     14.99850         0.003506      0.003584     -0.009980
     15.67907     14.74484     16.58211         0.002687     -0.000715     -0.000940
     16.79958     12.53569     16.10376        -0.006162     -0.006996      0.010504
     15.51300     12.11430     14.97578        -0.002089     -0.003689      0.005878
     15.13947     12.30260     16.72445        -0.010525      0.005342      0.002604
     15.70294     16.58751     15.06992         0.001935     -0.001403     -0.004550
     18.07248     16.33942     13.27939        -0.001041      0.003134     -0.001316
     16.55168     16.72788     12.44594         0.004345      0.011829     -0.006167
     17.18961     17.84326     13.69311        -0.000754      0.000684      0.004999
     11.89218     15.54328     15.37603         0.004208     -0.000287      0.001041
     13.38820     15.55642     15.61774        -0.001349     -0.008192      0.000469
     15.46063     14.16935     15.66696         0.001012     -0.000814     -0.000744
     15.73528     12.69026     15.88611        -0.003085     -0.001394      0.003881
     16.35565     14.73403     14.52927         0.002674     -0.009247     -0.009707
     17.07889     16.78839     13.41289        -0.000179      0.003817     -0.002157
     14.03800     14.38367     15.38036         0.002198      0.002182      0.002374
     16.36431     16.08796     14.46288        -0.007223      0.000568     -0.008265
     13.98575     16.56840     16.02722         0.005751      0.004301      0.009740
     17.00244     14.00028     13.77102        -0.006858      0.001601      0.000701
 -----------------------------------------------------------------------------------
    total drift:                                0.007837      0.001952      0.005102


--------------------------------------------------------------------------------------------------------



  FREE ENERGIE OF THE ION-ELECTRON SYSTEM (eV)
  ---------------------------------------------------
  free  energy   TOTEN  =      -129.53724330 eV

  energy  without entropy=     -129.53724330  energy(sigma->0) =     -129.53724330
 
 d Force = 0.5763103E-04[ 0.558E-04, 0.594E-04]  d Energy = 0.5822734E-04-0.596E-06
 d Force = 0.3996414E-01[ 0.403E-01, 0.397E-01]  d Ewald  = 0.3996413E-01 0.109E-07


--------------------------------------------------------------------------------------------------------


    POTLOK:  cpu time   20.3189: real time   20.3017


--------------------------------------------------------------------------------------------------------


 NEB: the previous image is higher in energy: T
 NEB: the next image is higher in energy    : T
 NEB: image is at an extrema
 NEB: diff energy (min, max):     0.004932    0.005902

 NEB: Tangent
 ----------------------------------------------
      0.01363      0.04017     -0.06727
      0.01958      0.07768     -0.13409
     -0.03522      0.00337     -0.14105
     -0.02192      0.04475     -0.18348
     -0.08199     -0.16825      0.03506
     -0.13886     -0.18163     -0.15014
     -0.12233     -0.00191     -0.23551
     -0.17557     -0.15188     -0.23441
     -0.03094     -0.02614      0.11698
      0.11832      0.09658      0.29309
      0.18456      0.16525      0.20577
      0.09222      0.07138      0.33261
     -0.00223      0.03294     -0.10286
     -0.01059     -0.00265     -0.04933
     -0.04268     -0.06557     -0.04024
     -0.12294     -0.10167     -0.17198
      0.06853      0.01651      0.08561
      0.11103      0.09203      0.24906
     -0.01776      0.00897     -0.11767
      0.02684      0.01907      0.14050
     -0.01340     -0.04209      0.05165
      0.18458      0.07023      0.13541

 NEB: forces: par spring, perp REAL, dneb     0.026157    0.041289    0.000000
 NEB: distance to prev, next image, angle between     1.146448    1.151679  165.545316
 NEB: projections on to tangent (spring, REAL)     0.026157   -0.001168

 stress matrix after NEB project (eV)
     -3.83271      0.03841     -0.06379
      0.03841     -3.39470      0.10984
     -0.06379      0.10984     -3.70708
  FORCES: max atom, RMS     0.018856    0.010421
  FORCE total and by dimension    0.048877    0.016344
  Stress total and by dimension    6.323865    3.832711
 OPT: skip step - force has converged


--------------------------------------------------------------------------------------------------------


  
 reached required accuracy - stopping structural energy minimisation
     LOOP+:  cpu time 1818.1206: real time 1816.6357
    4ORBIT:  cpu time    0.0000: real time    0.0000

 total amount of memory used by VASP on root node  4333708. kBytes
========================================================================

   base      :      30000. kBytes
   nonlr-proj:       2403. kBytes
   fftplans  :     924480. kBytes
   grid      :    2089440. kBytes
   one-center:         67. kBytes
   wavefun   :    1287318. kBytes
 
  
  
 General timing and accounting informations for this job:
 ========================================================
  
                  Total CPU time used (sec):   123741.117
                            User time (sec):   122973.078
                          System time (sec):      768.039
                         Elapsed time (sec):   123693.250
  
                   Maximum memory used (kb):     5901796.
                   Average memory used (kb):           0.
  
                          Minor page faults:    182111451
                          Major page faults:            5
                 Voluntary context switches:         8071
