unknown system                          
           1
    30.000000    0.000000    0.000000
     0.000000   30.000000    0.000000
     0.000000    0.000000   30.000000
   H    C    N    O 
  12   6   2   2
Direct configuration=     1
   0.38429247  0.55302792  0.51314383
   0.38574785  0.50242466  0.48156562
   0.38010910  0.50025593  0.54045276
   0.45028491  0.45240878  0.50076933
   0.52155957  0.49141530  0.55369692
   0.56223167  0.41987449  0.53647258
   0.51843874  0.40400141  0.50017713
   0.50774150  0.40962364  0.55869288
   0.52409932  0.55412715  0.50262104
   0.60151545  0.54362739  0.44102909
   0.55041378  0.55541293  0.41392861
   0.57294159  0.59406779  0.45374557
   0.39603513  0.51843795  0.51286164
   0.44603719  0.51841225  0.51934313
   0.51505921  0.47242640  0.52301897
   0.52623957  0.42342381  0.53025424
   0.54447185  0.49160434  0.48515330
   0.56853803  0.55866153  0.44584279
   0.46752281  0.47887040  0.51311726
   0.54582079  0.53673592  0.48259459
   0.46618706  0.55270775  0.53137827
   0.56490244  0.46665175  0.45939099
Direct configuration=     2
   0.38429291  0.55300585  0.51313846
   0.38576851  0.50239812  0.48152332
   0.38008096  0.50026373  0.54044890
   0.45027201  0.45240713  0.50076053
   0.52158907  0.49148143  0.55374217
   0.56212182  0.41985389  0.53644283
   0.51847290  0.40398147  0.50015711
   0.50771771  0.40963707  0.55870342
   0.52409685  0.55407213  0.50258840
   0.60155758  0.54359274  0.44104783
   0.55039716  0.55543064  0.41402155
   0.57290191  0.59409869  0.45377021
   0.39602327  0.51841592  0.51284963
   0.44602064  0.51835074  0.51936758
   0.51507236  0.47245194  0.52303610
   0.52615648  0.42344536  0.53023996
   0.54449161  0.49161904  0.48509462
   0.56857813  0.55866566  0.44588565
   0.46753528  0.47889048  0.51312485
   0.54581037  0.53672412  0.48254555
   0.46625575  0.55276118  0.53144645
   0.56497698  0.46665179  0.45931642
Direct configuration=     3
   0.38429559  0.55297661  0.51312867
   0.38579864  0.50236449  0.48146922
   0.38003834  0.50027238  0.54044048
   0.45027041  0.45242287  0.50075590
   0.52162647  0.49156244  0.55378819
   0.56197479  0.41982363  0.53640221
   0.51851139  0.40395783  0.50012562
   0.50767527  0.40965342  0.55871527
   0.52408249  0.55400127  0.50255248
   0.60161116  0.54355145  0.44107998
   0.55037785  0.55545754  0.41414738
   0.57285041  0.59413681  0.45381132
   0.39601025  0.51837924  0.51282749
   0.44608659  0.51844232  0.51945542
   0.51509519  0.47249980  0.52305837
   0.52604513  0.42346752  0.53021530
   0.54454874  0.49159326  0.48498762
   0.56864184  0.55868037  0.44593973
   0.46753717  0.47888149  0.51312082
   0.54580015  0.53670063  0.48248556
   0.46626017  0.55268580  0.53149210
   0.56505256  0.46668735  0.45925409
Direct configuration=     4
   0.38429602  0.55293909  0.51310979
   0.38584564  0.50232657  0.48140627
   0.37998086  0.50027982  0.54042229
   0.45027693  0.45245478  0.50075056
   0.52167055  0.49164833  0.55381970
   0.56179860  0.41977843  0.53635206
   0.51854062  0.40393574  0.50007578
   0.50760200  0.40966996  0.55872118
   0.52405673  0.55391235  0.50251431
   0.60167449  0.54351236  0.44113365
   0.55036235  0.55549860  0.41430069
   0.57279399  0.59418010  0.45387925
   0.39601351  0.51834007  0.51279880
   0.44615323  0.51854914  0.51955182
   0.51511891  0.47255804  0.52306537
   0.52591386  0.42348787  0.53018164
   0.54461596  0.49154834  0.48488396
   0.56872915  0.55871361  0.44600268
   0.46754217  0.47888719  0.51311833
   0.54579324  0.53666110  0.48242790
   0.46625831  0.55258339  0.53155786
   0.56515399  0.46673271  0.45918206
Direct configuration=     5
   0.38429484  0.55293727  0.51310724
   0.38585030  0.50232605  0.48140492
   0.37997846  0.50027964  0.54041914
   0.45027739  0.45245707  0.50074932
   0.52167204  0.49164831  0.55381505
   0.56179435  0.41977468  0.53635056
   0.51853689  0.40393685  0.50007149
   0.50759450  0.40966997  0.55871851
   0.52405538  0.55390790  0.50251328
   0.60167687  0.54351396  0.44113868
   0.55036409  0.55550220  0.41430489
   0.57279419  0.59418181  0.45388607
   0.39601756  0.51834160  0.51279865
   0.44613565  0.51851948  0.51954182
   0.51511746  0.47255635  0.52306006
   0.52591043  0.42348721  0.53018039
   0.54461302  0.49155133  0.48489230
   0.56873212  0.55871621  0.44600563
   0.46754551  0.47889767  0.51312075
   0.54579421  0.53665867  0.48243004
   0.46627189  0.55260455  0.53157199
   0.56516398  0.46672873  0.45917544
Direct configuration=     6
   0.38429270  0.55293402  0.51310178
   0.38585970  0.50232561  0.48140131
   0.37997351  0.50027926  0.54041177
   0.45027882  0.45246272  0.50074576
   0.52167425  0.49164687  0.55380592
   0.56178472  0.41976578  0.53634614
   0.51852844  0.40393926  0.50006095
   0.50757808  0.40966875  0.55871112
   0.52405194  0.55389882  0.50251239
   0.60168247  0.54351786  0.44115083
   0.55036863  0.55551053  0.41431500
   0.57279517  0.59418579  0.45390231
   0.39602495  0.51834429  0.51279729
   0.44610649  0.51847082  0.51952512
   0.51511462  0.47255298  0.52304981
   0.52590227  0.42348497  0.53017615
   0.54460983  0.49155551  0.48490715
   0.56873876  0.55872182  0.44601364
   0.46755129  0.47891626  0.51312351
   0.54579655  0.53665398  0.48243542
   0.46629382  0.55263825  0.53159752
   0.56518421  0.46672316  0.45916597
Direct configuration=     7
   0.38429001  0.55292970  0.51309295
   0.38587390  0.50232589  0.48139456
   0.37996574  0.50027870  0.54039891
   0.45028226  0.45247337  0.50073895
   0.52167639  0.49164239  0.55379228
   0.56176833  0.41975020  0.53633725
   0.51851415  0.40394317  0.50004208
   0.50755100  0.40966504  0.55869669
   0.52404529  0.55388498  0.50251304
   0.60169230  0.54352488  0.44117250
   0.55037724  0.55552496  0.41433295
   0.57279751  0.59419273  0.45393092
   0.39603413  0.51834710  0.51279332
   0.44607710  0.51842320  0.51950841
   0.51511084  0.47254835  0.52303561
   0.52588763  0.42347993  0.53016678
   0.54461105  0.49155740  0.48492418
   0.56874984  0.55873083  0.44602928
   0.46755774  0.47893801  0.51312350
   0.54580071  0.53664734  0.48244515
   0.46631450  0.55266876  0.53162937
   0.56521374  0.46672008  0.45915944
Direct configuration=     8
   0.38428734  0.55292485  0.51308092
   0.38589220  0.50232714  0.48138446
   0.37995533  0.50027801  0.54038044
   0.45028843  0.45248962  0.50072860
   0.52167784  0.49163383  0.55377474
   0.56174495  0.41972768  0.53632329
   0.51849414  0.40394852  0.50001430
   0.50751330  0.40965819  0.55867391
   0.52403467  0.55386721  0.50251607
   0.60170650  0.54353533  0.44120433
   0.55039048  0.55554585  0.41435912
   0.57280153  0.59420275  0.45397257
   0.39604296  0.51834880  0.51278588
   0.44605917  0.51839703  0.51949904
   0.51510685  0.47254305  0.52301923
   0.52586597  0.42347148  0.53015093
   0.54462065  0.49155407  0.48493824
   0.56876509  0.55874292  0.44605383
   0.46756304  0.47895696  0.51311794
   0.54580665  0.53663954  0.48245935
   0.46632436  0.55268066  0.53166149
   0.56525009  0.46672311  0.45916134
Direct configuration=     9
   0.38428505  0.55291966  0.51306593
   0.38591407  0.50232899  0.48137130
   0.37994245  0.50027721  0.54035695
   0.45029739  0.45251097  0.50071461
   0.52167854  0.49162091  0.55375374
   0.56171484  0.41969863  0.53630435
   0.51846917  0.40395529  0.49997765
   0.50746549  0.40964831  0.55864196
   0.52401961  0.55384627  0.50252135
   0.60172473  0.54354921  0.44124610
   0.55040849  0.55557321  0.41439301
   0.57280723  0.59421567  0.45402679
   0.39605009  0.51834859  0.51277502
   0.44605792  0.51840092  0.51950084
   0.51510325  0.47253719  0.52300169
   0.52583756  0.42345972  0.53012800
   0.54464003  0.49154491  0.48494661
   0.56878379  0.55875774  0.44608768
   0.46756669  0.47897011  0.51310568
   0.54581391  0.53663132  0.48247747
   0.46631934  0.55266772  0.53169145
   0.56529205  0.46673361  0.45917433
Direct configuration=    10
   0.38428321  0.55291413  0.51304792
   0.38593964  0.50233079  0.48135521
   0.37992713  0.50027620  0.54032892
   0.45030856  0.45253639  0.50069654
   0.52167897  0.49160390  0.55372945
   0.56167790  0.41966318  0.53628065
   0.51843959  0.40396363  0.49993206
   0.50740753  0.40963576  0.55860006
   0.52399990  0.55382222  0.50252835
   0.60174680  0.54356670  0.44129782
   0.55043153  0.55560725  0.41443429
   0.57281454  0.59423133  0.45409361
   0.39605511  0.51834635  0.51276105
   0.44607213  0.51843198  0.51951385
   0.51510024  0.47253038  0.52298300
   0.52580263  0.42344487  0.53009771
   0.54466849  0.49153123  0.48494929
   0.56880517  0.55877524  0.44613118
   0.46756930  0.47897771  0.51308672
   0.54582206  0.53662319  0.48249906
   0.46630078  0.55263265  0.53172068
   0.56534054  0.46675062  0.45919818
Direct configuration=    11
   0.38428141  0.55290757  0.51302391
   0.38597307  0.50233221  0.48133321
   0.37990711  0.50027463  0.54029249
   0.45032186  0.45256747  0.50067047
   0.52168003  0.49158094  0.55369928
   0.56162826  0.41961583  0.53624915
   0.51840084  0.40397458  0.49987088
   0.50733071  0.40961903  0.55854137
   0.52397283  0.55379143  0.50253770
   0.60177607  0.54359080  0.44136728
   0.55046364  0.55565345  0.41448864
   0.57282480  0.59425184  0.45418318
   0.39605856  0.51834236  0.51274228
   0.44609780  0.51848258  0.51953702
   0.51509730  0.47252049  0.52296006
   0.52575649  0.42342485  0.53005562
   0.54470767  0.49151451  0.48494855
   0.56883160  0.55879796  0.44619139
   0.46757254  0.47898349  0.51305903
   0.54583196  0.53661474  0.48252714
   0.46627193  0.55258098  0.53175764
   0.56540521  0.46677341  0.45923350
Direct configuration=    12
   0.38427894  0.55289979  0.51299177
   0.38601712  0.50233226  0.48130272
   0.37988109  0.50027193  0.54024596
   0.45033451  0.45260194  0.50063222
   0.52168312  0.49155164  0.55366324
   0.56156218  0.41955289  0.53620861
   0.51835001  0.40398842  0.49979007
   0.50722985  0.40959747  0.55846126
   0.52393741  0.55375170  0.50254926
   0.60181446  0.54362374  0.44145922
   0.55050794  0.55571549  0.41455882
   0.57283903  0.59427804  0.45430167
   0.39606186  0.51833823  0.51271861
   0.44611875  0.51852286  0.51956198
   0.51509379  0.47250462  0.52292987
   0.52569735  0.42339873  0.52999937
   0.54475366  0.49150087  0.48495056
   0.56886425  0.55882813  0.44627253
   0.46757978  0.47899572  0.51302341
   0.54584353  0.53660646  0.48256330
   0.46624698  0.55253720  0.53181537
   0.56549587  0.46679640  0.45927545
Direct configuration=    13
   0.38427497  0.55289085  0.51294987
   0.38607393  0.50232968  0.48126161
   0.37984807  0.50026738  0.54018894
   0.45034351  0.45263705  0.50057862
   0.52168998  0.49151646  0.55362227
   0.56147749  0.41947175  0.53615922
   0.51828511  0.40400481  0.49968745
   0.50710181  0.40957113  0.55835712
   0.52389339  0.55370168  0.50256276
   0.60186280  0.54366734  0.44157639
   0.55056695  0.55579591  0.41464606
   0.57285805  0.59431025  0.45445281
   0.39606743  0.51833581  0.51269043
   0.44611648  0.51851939  0.51957895
   0.51508963  0.47248105  0.52288986
   0.52562460  0.42336597  0.52992830
   0.54480043  0.49149664  0.48496217
   0.56890373  0.55886762  0.44637600
   0.46759392  0.47902246  0.51298143
   0.54585624  0.53659863  0.48260823
   0.46624200  0.55252898  0.53190690
   0.56562067  0.46681297  0.45931687
Direct configuration=    14
   0.38426888  0.55288086  0.51289714
   0.38614549  0.50232213  0.48120917
   0.37980691  0.50026007  0.54012272
   0.45034760  0.45267122  0.50051013
   0.52170404  0.49147868  0.55357646
   0.56137344  0.41937201  0.53610396
   0.51820492  0.40402274  0.49956451
   0.50694502  0.40954230  0.55823035
   0.52383974  0.55364077  0.50257744
   0.60191992  0.54372260  0.44171721
   0.55064087  0.55589488  0.41474894
   0.57288153  0.59434773  0.45463593
   0.39607680  0.51833513  0.51265867
   0.44608851  0.51846731  0.51958938
   0.51508659  0.47245156  0.52283873
   0.52553904  0.42332721  0.52984438
   0.54484788  0.49149908  0.48498031
   0.56895046  0.55891695  0.44649997
   0.46761475  0.47906466  0.51293313
   0.54586948  0.53659085  0.48266041
   0.46625953  0.55256202  0.53203697
   0.56577934  0.46682228  0.45935470
Direct configuration=    15
   0.38426110  0.55286975  0.51283145
   0.38623617  0.50230495  0.48114615
   0.37975450  0.50024846  0.54004941
   0.45035089  0.45270841  0.50043253
   0.52173266  0.49144479  0.55352285
   0.56124958  0.41925308  0.53605039
   0.51810709  0.40404012  0.49942619
   0.50675567  0.40951680  0.55808508
   0.52377096  0.55356897  0.50259350
   0.60198311  0.54379148  0.44187770
   0.55072958  0.55601264  0.41486382
   0.57290849  0.59438963  0.45484954
   0.39608852  0.51833041  0.51262307
   0.44607736  0.51844384  0.51962752
   0.51509165  0.47242545  0.52277840
   0.52543953  0.42328314  0.52975009
   0.54491033  0.49148740  0.48497979
   0.56900557  0.55897627  0.44663832
   0.46763382  0.47910274  0.51287113
   0.54588236  0.53657998  0.48271524
   0.46626288  0.55257741  0.53219054
   0.56595837  0.46683647  0.45939740
Direct configuration=    16
   0.38425276  0.55285641  0.51275762
   0.38634295  0.50227700  0.48108271
   0.37969407  0.50023382  0.53997654
   0.45035784  0.45275075  0.50036075
   0.52177950  0.49142405  0.55345992
   0.56111935  0.41912640  0.53601161
   0.51799984  0.40405460  0.49929307
   0.50654903  0.40950348  0.55794163
   0.52369088  0.55349123  0.50260747
   0.60204540  0.54386776  0.44203708
   0.55082265  0.55613737  0.41497510
   0.57293507  0.59443244  0.45506999
   0.39610002  0.51831735  0.51258772
   0.44611390  0.51850724  0.51971360
   0.51510728  0.47241012  0.52271600
   0.52533176  0.42323947  0.52965569
   0.54498990  0.49145152  0.48494630
   0.56906314  0.55903896  0.44677107
   0.46764575  0.47912272  0.51279943
   0.54589334  0.53656143  0.48276208
   0.46622461  0.55252692  0.53234254
   0.56613060  0.46686033  0.45944164
Direct configuration=    17
   0.38425244  0.55285555  0.51275698
   0.38634525  0.50227518  0.48108403
   0.37969356  0.50023362  0.53997756
   0.45035765  0.45275051  0.50036276
   0.52178265  0.49142715  0.55345834
   0.56111986  0.41912664  0.53601532
   0.51799958  0.40405395  0.49929626
   0.50654850  0.40950643  0.55794426
   0.52369074  0.55349030  0.50260581
   0.60204464  0.54386789  0.44203422
   0.55082190  0.55613694  0.41497240
   0.57293452  0.59443213  0.45506790
   0.39610057  0.51831685  0.51258904
   0.44611304  0.51850578  0.51971519
   0.51510802  0.47241100  0.52271564
   0.52533215  0.42324075  0.52965769
   0.54498882  0.49145108  0.48494470
   0.56906228  0.55903893  0.44676816
   0.46764636  0.47912412  0.51280086
   0.54589251  0.53656010  0.48275953
   0.46622521  0.55252785  0.53234545
   0.56612939  0.46685862  0.45943732
Direct configuration=    18
   0.38425181  0.55285387  0.51275565
   0.38634989  0.50227159  0.48108656
   0.37969251  0.50023322  0.53997948
   0.45035735  0.45275018  0.50036666
   0.52178887  0.49143315  0.55345516
   0.56112071  0.41912694  0.53602258
   0.51799895  0.40405271  0.49930239
   0.50654724  0.40951222  0.55794922
   0.52369041  0.55348838  0.50260256
   0.60204322  0.54386826  0.44202879
   0.55082056  0.55613626  0.41496716
   0.57293346  0.59443155  0.45506404
   0.39610166  0.51831584  0.51259156
   0.44611154  0.51850330  0.51971853
   0.51510950  0.47241272  0.52271487
   0.52533276  0.42324319  0.52966145
   0.54498694  0.49144999  0.48494135
   0.56906066  0.55903897  0.44676268
   0.46764752  0.47912672  0.51280348
   0.54589088  0.53655753  0.48275456
   0.46622616  0.55252933  0.53235127
   0.56612704  0.46685548  0.45942911
Direct configuration=    19
   0.38425089  0.55285140  0.51275349
   0.38635696  0.50226628  0.48109014
   0.37969087  0.50023260  0.53998211
   0.45035705  0.45275005  0.50037225
   0.52179808  0.49144179  0.55345033
   0.56112159  0.41912702  0.53603312
   0.51799777  0.40405091  0.49931106
   0.50654491  0.40952067  0.55795605
   0.52368979  0.55348539  0.50259785
   0.60204127  0.54386904  0.44202123
   0.55081886  0.55613565  0.41495967
   0.57293201  0.59443083  0.45505897
   0.39610320  0.51831430  0.51259510
   0.44610985  0.51850061  0.51972388
   0.51511174  0.47241523  0.52271368
   0.52533338  0.42324657  0.52966672
   0.54498475  0.49144789  0.48493595
   0.56905836  0.55903912  0.44675509
   0.46764913  0.47913014  0.51280695
   0.54588846  0.53655389  0.48274733
   0.46622710  0.55253076  0.53235996
   0.56612362  0.46685135  0.45941773
Direct configuration=    20
   0.38424972  0.55284817  0.51275036
   0.38636658  0.50225934  0.48109452
   0.37968855  0.50023177  0.53998514
   0.45035690  0.45275048  0.50037924
   0.52181010  0.49145262  0.55344380
   0.56112201  0.41912644  0.53604658
   0.51799573  0.40404861  0.49932174
   0.50654104  0.40953152  0.55796409
   0.52368876  0.55348118  0.50259189
   0.60203905  0.54387050  0.44201219
   0.55081718  0.55613551  0.41495037
   0.57293031  0.59443016  0.45505347
   0.39610508  0.51831218  0.51259943
   0.44610851  0.51849872  0.51973155
   0.51511474  0.47241845  0.52271207
   0.52533375  0.42325060  0.52967314
   0.54498285  0.49144434  0.48492811
   0.56905559  0.55903947  0.44674605
   0.46765104  0.47913389  0.51281079
   0.54588532  0.53654944  0.48273805
   0.46622754  0.55253136  0.53237149
   0.56611929  0.46684676  0.45940406
Direct configuration=    21
   0.38424832  0.55284425  0.51274602
   0.38637890  0.50225093  0.48109933
   0.37968545  0.50023071  0.53998815
   0.45035705  0.45275188  0.50038713
   0.52182469  0.49146503  0.55343552
   0.56112129  0.41912459  0.53606242
   0.51799244  0.40404589  0.49933358
   0.50653494  0.40954437  0.55797243
   0.52368716  0.55347558  0.50258494
   0.60203688  0.54387298  0.44200261
   0.55081608  0.55613649  0.41493992
   0.57292857  0.59442979  0.45504867
   0.39610719  0.51830949  0.51260421
   0.44610800  0.51849846  0.51974174
   0.51511852  0.47242226  0.52270995
   0.52533346  0.42325484  0.52968022
   0.54498183  0.49143912  0.48491768
   0.56905263  0.55904020  0.44673654
   0.46765315  0.47913754  0.51281446
   0.54588152  0.53654443  0.48272706
   0.46622707  0.55253050  0.53238595
   0.56611452  0.46684222  0.45938910
Direct configuration=    22
   0.38424671  0.55283974  0.51274019
   0.38639404  0.50224127  0.48110402
   0.37968146  0.50022942  0.53999056
   0.45035753  0.45275462  0.50039513
   0.52184141  0.49147814  0.55342551
   0.56111860  0.41912065  0.53607979
   0.51798740  0.40404290  0.49934538
   0.50652574  0.40955858  0.55797977
   0.52368479  0.55346837  0.50257741
   0.60203524  0.54387692  0.44199382
   0.55081629  0.55613941  0.41492927
   0.57292708  0.59443004  0.45504609
   0.39610942  0.51830630  0.51260901
   0.44610849  0.51850004  0.51975433
   0.51512304  0.47242635  0.52270710
   0.52533201  0.42325877  0.52968718
   0.54498208  0.49143244  0.48490503
   0.56904981  0.55904161  0.44672778
   0.46765548  0.47914096  0.51281733
   0.54587720  0.53653910  0.48271489
   0.46622552  0.55252794  0.53240365
   0.56611032  0.46683805  0.45937390
Direct configuration=    23
   0.38424473  0.55283425  0.51273177
   0.38641395  0.50222958  0.48110828
   0.37967595  0.50022773  0.53999177
   0.45035838  0.45275941  0.50040282
   0.52186155  0.49149212  0.55341267
   0.56111239  0.41911289  0.53609944
   0.51797924  0.40403949  0.49935666
   0.50651099  0.40957479  0.55798498
   0.52368107  0.55345842  0.50256902
   0.60203465  0.54388349  0.44198688
   0.55081901  0.55614590  0.41491866
   0.57292613  0.59443143  0.45504780
   0.39611198  0.51830241  0.51261373
   0.44610990  0.51850313  0.51977032
   0.51512862  0.47243054  0.52270279
   0.52532839  0.42326209  0.52969361
   0.54498389  0.49142419  0.48488965
   0.56904744  0.55904444  0.44672066
   0.46765846  0.47914475  0.51281898
   0.54587203  0.53653304  0.48270099
   0.46622285  0.55252361  0.53242731
   0.56610806  0.46683398  0.45935797
Direct configuration=    24
   0.38424233  0.55282786  0.51271997
   0.38643931  0.50221605  0.48111107
   0.37966857  0.50022560  0.53999067
   0.45035941  0.45276668  0.50040854
   0.52188467  0.49150552  0.55339685
   0.56110100  0.41909945  0.53612012
   0.51796679  0.40403588  0.49936522
   0.50648855  0.40959200  0.55798567
   0.52367552  0.55344513  0.50256041
   0.60203607  0.54389374  0.44198436
   0.55082587  0.55615783  0.41490983
   0.57292627  0.59443458  0.45505693
   0.39611498  0.51829799  0.51261765
   0.44611174  0.51850640  0.51978927
   0.51513506  0.47243396  0.52269628
   0.52532142  0.42326393  0.52969799
   0.54498734  0.49141538  0.48487280
   0.56904636  0.55904959  0.44671742
   0.46766254  0.47914970  0.51281860
   0.54586610  0.53652630  0.48268622
   0.46621946  0.55251820  0.53245851
   0.56611033  0.46682993  0.45934231
Direct configuration=    25
   0.38423948  0.55282066  0.51270389
   0.38647085  0.50220092  0.48111109
   0.37965889  0.50022293  0.53998592
   0.45036041  0.45277686  0.50041016
   0.52191015  0.49151652  0.55337793
   0.56108247  0.41907806  0.53614030
   0.51794869  0.40403235  0.49936831
   0.50645577  0.40960892  0.55797891
   0.52366757  0.55342791  0.50255237
   0.60204065  0.54390891  0.44198949
   0.55083886  0.55617750  0.41490492
   0.57292818  0.59444025  0.45507733
   0.39611861  0.51829327  0.51261987
   0.44611329  0.51850817  0.51981047
   0.51514207  0.47243557  0.52268665
   0.52530949  0.42326324  0.52969835
   0.54499261  0.49140715  0.48485597
   0.56904764  0.55905830  0.44672069
   0.46766830  0.47915690  0.51281531
   0.54585945  0.53651886  0.48267174
   0.46621589  0.55251257  0.53249918
   0.56612036  0.46682584  0.45932820
Direct configuration=    26
   0.38423613  0.55281279  0.51268231
   0.38650957  0.50218447  0.48110666
   0.37964636  0.50021966  0.53997578
   0.45036117  0.45279060  0.50040506
   0.52193725  0.49152286  0.55335578
   0.56105441  0.41904573  0.53615811
   0.51792313  0.40402914  0.49936259
   0.50640919  0.40962394  0.55796128
   0.52365645  0.55340606  0.50254600
   0.60204990  0.54393061  0.44200631
   0.55086057  0.55620790  0.41490661
   0.57293270  0.59444941  0.45511386
   0.39612320  0.51828843  0.51261917
   0.44611422  0.51850726  0.51983372
   0.51514934  0.47243425  0.52267283
   0.52529059  0.42325874  0.52969213
   0.54500033  0.49140016  0.48484053
   0.56905279  0.55907219  0.44673356
   0.46767627  0.47916743  0.51280787
   0.54585206  0.53651075  0.48265904
   0.46621237  0.55250708  0.53255145
   0.56614167  0.46682209  0.45931751
Direct configuration=    27
   0.38423222  0.55280427  0.51265391
   0.38655671  0.50216670  0.48109625
   0.37963034  0.50021571  0.53995867
   0.45036173  0.45280881  0.50039114
   0.52196564  0.49152272  0.55333000
   0.56101460  0.41899953  0.53617248
   0.51788824  0.40402626  0.49934546
   0.50634520  0.40963594  0.55793027
   0.52364145  0.55337895  0.50254224
   0.60206524  0.54396038  0.44203824
   0.55089340  0.55625199  0.41491696
   0.57294047  0.59446295  0.45517092
   0.39612919  0.51828341  0.51261447
   0.44611506  0.51850462  0.51985976
   0.51515696  0.47242923  0.52265372
   0.52526262  0.42324932  0.52967726
   0.54501202  0.49139378  0.48482630
   0.56906330  0.55909283  0.44675832
   0.46768667  0.47918167  0.51279515
   0.54584370  0.53650197  0.48264920
   0.46620835  0.55250079  0.53261729
   0.56617655  0.46681955  0.45931212
Direct configuration=    28
   0.38422778  0.55279497  0.51261724
   0.38661378  0.50214737  0.48107846
   0.37961008  0.50021104  0.53993304
   0.45036267  0.45283296  0.50036669
   0.52199528  0.49151449  0.55329997
   0.56096085  0.41893636  0.53618285
   0.51784206  0.40402343  0.49931471
   0.50625978  0.40964413  0.55788398
   0.52362178  0.55334611  0.50254203
   0.60208815  0.54399975  0.44208847
   0.55093975  0.55631302  0.41493761
   0.57295197  0.59448179  0.45525280
   0.39613730  0.51827777  0.51260454
   0.44611787  0.51850386  0.51989081
   0.51516508  0.47242037  0.52262839
   0.52522321  0.42323398  0.52965192
   0.54502969  0.49138568  0.48481177
   0.56908090  0.55912174  0.44679681
   0.46769915  0.47919879  0.51277579
   0.54583403  0.53649266  0.48264298
   0.46620225  0.55249089  0.53269822
   0.56622628  0.46681986  0.45931411
Direct configuration=    29
   0.38422296  0.55278426  0.51257082
   0.38668271  0.50212558  0.48105250
   0.37958493  0.50020575  0.53989777
   0.45036496  0.45286474  0.50033100
   0.52202693  0.49149754  0.55326459
   0.56089144  0.41885357  0.53619000
   0.51778289  0.40401995  0.49926941
   0.50614905  0.40964887  0.55782214
   0.52359670  0.55330738  0.50254580
   0.60211997  0.54404986  0.44215874
   0.55100134  0.55639404  0.41496860
   0.57296722  0.59450680  0.45536243
   0.39614834  0.51827092  0.51258882
   0.44612449  0.51850877  0.51992921
   0.51517396  0.47240822  0.52259641
   0.52517045  0.42321198  0.52961579
   0.54505479  0.49137336  0.48479475
   0.56910685  0.55916014  0.44684986
   0.46771301  0.47921753  0.51274911
   0.54582260  0.53648254  0.48263975
   0.46619287  0.55247489  0.53279640
   0.56629131  0.46682381  0.45932354
Direct configuration=    30
   0.38421806  0.55277027  0.51251312
   0.38676658  0.50209894  0.48101927
   0.37955453  0.50020020  0.53985306
   0.45036959  0.45290496  0.50028501
   0.52206339  0.49147399  0.55322197
   0.56080545  0.41874981  0.53619775
   0.51770984  0.40401446  0.49921182
   0.50600984  0.40965332  0.55774759
   0.52356619  0.55326282  0.50255220
   0.60216158  0.54411107  0.44224735
   0.55107849  0.55649758  0.41500657
   0.57298522  0.59453871  0.45549949
   0.39616359  0.51826200  0.51256808
   0.44613330  0.51851602  0.51997596
   0.51518370  0.47239324  0.52255718
   0.52510264  0.42318347  0.52957166
   0.54508474  0.49135745  0.48477469
   0.56914054  0.55920822  0.44691545
   0.46772853  0.47923938  0.51271715
   0.54580871  0.53647015  0.48263587
   0.46618303  0.55245564  0.53291750
   0.56637249  0.46682813  0.45933408
Direct configuration=    31
   0.38421370  0.55274844  0.51244328
   0.38687019  0.50206130  0.48098430
   0.37951939  0.50019496  0.53980297
   0.45037745  0.45295165  0.50023392
   0.52211150  0.49145207  0.55316870
   0.56070372  0.41862785  0.53621644
   0.51762515  0.40400474  0.49915242
   0.50584201  0.40966694  0.55767041
   0.52353223  0.55321251  0.50255484
   0.60221131  0.54418132  0.44234419
   0.55116747  0.55662362  0.41504047
   0.57300227  0.59457660  0.45565492
   0.39618462  0.51824999  0.51254676
   0.44614017  0.51851530  0.52003239
   0.51519476  0.47237658  0.52251086
   0.52501862  0.42315049  0.52952858
   0.54511513  0.49134048  0.48474625
   0.56917780  0.55926560  0.44698449
   0.46774820  0.47927021  0.51268811
   0.54578933  0.53645245  0.48262199
   0.46617967  0.55244058  0.53307044
   0.56646561  0.46682539  0.45933194
Direct configuration=    32
   0.38421086  0.55271598  0.51236479
   0.38699391  0.50200617  0.48095936
   0.37948221  0.50019078  0.53975794
   0.45039208  0.45300340  0.50019094
   0.52217847  0.49144528  0.55310233
   0.56059064  0.41850110  0.53625945
   0.51753775  0.40398973  0.49911104
   0.50565596  0.40970262  0.55760907
   0.52349960  0.55315796  0.50254311
   0.60225986  0.54425500  0.44242855
   0.55125771  0.55676347  0.41505403
   0.57301186  0.59461652  0.45580592
   0.39621036  0.51823137  0.51253124
   0.44615642  0.51852682  0.52011068
   0.51521096  0.47236105  0.52245832
   0.52493039  0.42311916  0.52950112
   0.54514719  0.49131049  0.48469223
   0.56921067  0.55932308  0.44703858
   0.46777155  0.47930447  0.51267000
   0.54575971  0.53643073  0.48258536
   0.46617495  0.55241487  0.53324708
   0.56654735  0.46681840  0.45931271
Direct configuration=    33
   0.38420878  0.55267412  0.51228111
   0.38713518  0.50192979  0.48095152
   0.37944621  0.50018761  0.53972660
   0.45041388  0.45305870  0.50016420
   0.52226701  0.49145995  0.55302033
   0.56047313  0.41838039  0.53633457
   0.51745525  0.40396898  0.49910197
   0.50546282  0.40976677  0.55757504
   0.52347206  0.55310089  0.50251023
   0.60229815  0.54432776  0.44248569
   0.55134127  0.55690819  0.41503756
   0.57300994  0.59465185  0.45593377
   0.39624221  0.51820553  0.51252766
   0.44617329  0.51853490  0.52020587
   0.51523601  0.47235158  0.52240535
   0.52484610  0.42309570  0.52949505
   0.54516574  0.49127852  0.48462220
   0.56923492  0.55937909  0.44706665
   0.46779999  0.47933889  0.51266734
   0.54571990  0.53640006  0.48251596
   0.46617547  0.55239233  0.53344676
   0.56661306  0.46679656  0.45926187
Direct configuration=    34
   0.38420709  0.55262561  0.51219212
   0.38729339  0.50182973  0.48096290
   0.37941376  0.50018544  0.53971312
   0.45044058  0.45311499  0.50015247
   0.52237777  0.49149664  0.55292292
   0.56035565  0.41826744  0.53644669
   0.51737859  0.40394085  0.49913068
   0.50526598  0.40986219  0.55756951
   0.52345281  0.55304192  0.50245293
   0.60232219  0.54439981  0.44251104
   0.55141861  0.55705724  0.41498999
   0.57299546  0.59468065  0.45603393
   0.39628271  0.51817309  0.51253763
   0.44619375  0.51853711  0.52031959
   0.51527071  0.47234850  0.52235689
   0.52476360  0.42308354  0.52951240
   0.54517758  0.49123341  0.48452605
   0.56924693  0.55943188  0.44706118
   0.46783624  0.47937643  0.51268224
   0.54566748  0.53636201  0.48240972
   0.46617951  0.55237148  0.53366653
   0.56664953  0.46676831  0.45918831
Direct configuration=    35
   0.38420849  0.55257257  0.51209215
   0.38747204  0.50170566  0.48098993
   0.37938836  0.50018554  0.53971362
   0.45047226  0.45317724  0.50014427
   0.52251026  0.49154873  0.55281823
   0.56023212  0.41815028  0.53659674
   0.51729742  0.40389991  0.49918986
   0.50505586  0.40998457  0.55758089
   0.52344284  0.55298040  0.50237504
   0.60233723  0.54447739  0.44251353