   6   6   0   0
  0.4500000E+04  0.3000000E-08  0.3000000E-08  0.3000000E-08  0.0000000E+00
  1.000000000000000E-004
  CAR 
 unknown system                          
      2.02858736    -25.37918844  301     -6.65018478      1.00000000
    -25.379  0.0000E+00  0.0000E+00
    -25.288  0.0000E+00  0.0000E+00
    -25.196  0.0000E+00  0.0000E+00
    -25.105  0.0000E+00  0.0000E+00
    -25.014  0.0000E+00  0.0000E+00
    -24.922  0.0000E+00  0.0000E+00
    -24.831  0.0000E+00  0.0000E+00
    -24.740  0.0000E+00  0.0000E+00
    -24.648  0.0000E+00  0.0000E+00
    -24.557  0.4051E-17  0.3701E-18
    -24.466  0.5671E-15  0.5218E-16
    -24.374  0.7158E-13  0.6592E-14
    -24.283  0.5978E-11  0.5528E-12
    -24.192  0.3312E-09  0.3081E-10
    -24.100  0.1218E-07  0.1144E-08
    -24.009  0.2978E-06  0.2835E-07
    -23.917  0.4842E-05  0.4707E-06
    -23.826  0.5241E-04  0.5259E-05
    -23.735  0.3780E-03  0.3979E-04
    -23.643  0.1818E-02  0.2059E-03
    -23.552  0.5836E-02  0.7390E-03
    -23.461  0.1251E-01  0.1882E-02
    -23.369  0.1792E-01  0.3519E-02
    -23.278  0.1716E-01  0.5087E-02
    -23.187  0.1097E-01  0.6089E-02
    -23.095  0.4690E-02  0.6518E-02
    -23.004  0.1338E-02  0.6640E-02
    -22.912  0.2549E-03  0.6663E-02
    -22.821  0.3237E-04  0.6666E-02
    -22.730  0.2738E-05  0.6667E-02
    -22.638  0.1542E-06  0.6667E-02
    -22.547  0.5774E-08  0.6667E-02
    -22.456  0.1436E-09  0.6667E-02
    -22.364  0.2372E-11  0.6667E-02
    -22.273  0.2597E-13  0.6667E-02
    -22.182  0.1944E-15  0.6667E-02
    -22.090  0.0000E+00  0.6667E-02
    -21.999  0.0000E+00  0.6667E-02
    -21.908  0.0000E+00  0.6667E-02
    -21.816  0.0000E+00  0.6667E-02
    -21.725  0.0000E+00  0.6667E-02
    -21.633  0.0000E+00  0.6667E-02
    -21.542  0.0000E+00  0.6667E-02
    -21.451  0.0000E+00  0.6667E-02
    -21.359  0.0000E+00  0.6667E-02
    -21.268  0.0000E+00  0.6667E-02
    -21.177  0.0000E+00  0.6667E-02
    -21.085  0.0000E+00  0.6667E-02
    -20.994  0.0000E+00  0.6667E-02
    -20.903  0.0000E+00  0.6667E-02
    -20.811  0.0000E+00  0.6667E-02
    -20.720  0.0000E+00  0.6667E-02
    -20.629  0.0000E+00  0.6667E-02
    -20.537  0.0000E+00  0.6667E-02
    -20.446  0.0000E+00  0.6667E-02
    -20.354  0.0000E+00  0.6667E-02
    -20.263  0.0000E+00  0.6667E-02
    -20.172  0.0000E+00  0.6667E-02
    -20.080  0.0000E+00  0.6667E-02
    -19.989  0.0000E+00  0.6667E-02
    -19.898  0.0000E+00  0.6667E-02
    -19.806  0.0000E+00  0.6667E-02
    -19.715  0.0000E+00  0.6667E-02
    -19.624  0.0000E+00  0.6667E-02
    -19.532  0.0000E+00  0.6667E-02
    -19.441  0.8102E-17  0.6667E-02
    -19.349  0.1661E-14  0.6667E-02
    -19.258  0.1914E-12  0.6667E-02
    -19.167  0.1464E-10  0.6667E-02
    -19.075  0.7429E-09  0.6667E-02
    -18.984  0.2503E-07  0.6667E-02
    -18.893  0.5606E-06  0.6667E-02
    -18.801  0.8352E-05  0.6667E-02
    -18.710  0.8285E-04  0.6675E-02
    -18.619  0.5477E-03  0.6725E-02
    -18.527  0.2416E-02  0.6946E-02
    -18.436  0.7111E-02  0.7595E-02
    -18.345  0.1398E-01  0.8873E-02
    -18.253  0.1837E-01  0.1055E-01
    -18.162  0.1613E-01  0.1202E-01
    -18.070  0.9461E-02  0.1289E-01
    -17.979  0.3708E-02  0.1323E-01
    -17.888  0.9704E-03  0.1332E-01
    -17.796  0.1694E-03  0.1333E-01
    -17.705  0.1972E-04  0.1333E-01
    -17.614  0.1529E-05  0.1333E-01
    -17.522  0.7889E-07  0.1333E-01
    -17.431  0.2706E-08  0.1333E-01
    -17.340  0.6166E-10  0.1333E-01
    -17.248  0.9324E-12  0.1333E-01
    -17.157  0.9349E-14  0.1333E-01
    -17.065  0.6481E-16  0.1333E-01
    -16.974  0.0000E+00  0.1333E-01
    -16.883  0.0000E+00  0.1333E-01
    -16.791  0.0000E+00  0.1333E-01
    -16.700  0.0000E+00  0.1333E-01
    -16.609  0.0000E+00  0.1333E-01
    -16.517  0.0000E+00  0.1333E-01
    -16.426  0.0000E+00  0.1333E-01
    -16.335  0.0000E+00  0.1333E-01
    -16.243  0.0000E+00  0.1333E-01
    -16.152  0.0000E+00  0.1333E-01
    -16.061  0.0000E+00  0.1333E-01
    -15.969  0.0000E+00  0.1333E-01
    -15.878  0.0000E+00  0.1333E-01
    -15.786  0.0000E+00  0.1333E-01
    -15.695  0.0000E+00  0.1333E-01
    -15.604  0.0000E+00  0.1333E-01
    -15.512  0.0000E+00  0.1333E-01
    -15.421  0.0000E+00  0.1333E-01
    -15.330  0.0000E+00  0.1333E-01
    -15.238  0.0000E+00  0.1333E-01
    -15.147  0.0000E+00  0.1333E-01
    -15.056  0.0000E+00  0.1333E-01
    -14.964  0.0000E+00  0.1333E-01
    -14.873  0.0000E+00  0.1333E-01
    -14.782  0.0000E+00  0.1333E-01
    -14.690  0.0000E+00  0.1333E-01
    -14.599  0.0000E+00  0.1333E-01
    -14.507  0.0000E+00  0.1333E-01
    -14.416  0.0000E+00  0.1333E-01
    -14.325  0.0000E+00  0.1333E-01
    -14.233  0.0000E+00  0.1333E-01
    -14.142  0.0000E+00  0.1333E-01
    -14.051  0.0000E+00  0.1333E-01
    -13.959  0.0000E+00  0.1333E-01
    -13.868  0.0000E+00  0.1333E-01
    -13.777  0.0000E+00  0.1333E-01
    -13.685  0.0000E+00  0.1333E-01
    -13.594  0.0000E+00  0.1333E-01
    -13.502  0.0000E+00  0.1333E-01
    -13.411  0.0000E+00  0.1333E-01
    -13.320  0.0000E+00  0.1333E-01
    -13.228  0.1499E-15  0.1333E-01
    -13.137  0.2119E-13  0.1333E-01
    -13.046  0.1969E-11  0.1333E-01
    -12.954  0.1214E-09  0.1333E-01
    -12.863  0.4965E-08  0.1333E-01
    -12.772  0.1350E-06  0.1333E-01
    -12.680  0.2439E-05  0.1333E-01
    -12.589  0.2934E-04  0.1334E-01
    -12.498  0.2352E-03  0.1336E-01
    -12.406  0.1257E-02  0.1347E-01
    -12.315  0.4480E-02  0.1388E-01
    -12.223  0.1067E-01  0.1486E-01
    -12.132  0.1697E-01  0.1641E-01
    -12.041  0.1804E-01  0.1805E-01
    -11.949  0.1282E-01  0.1923E-01
    -11.858  0.6189E-02  0.1979E-01
    -11.767  0.2604E-02  0.2003E-01
    -11.675  0.3240E-02  0.2033E-01
    -11.584  0.7980E-02  0.2105E-01
    -11.493  0.1481E-01  0.2241E-01
    -11.401  0.1854E-01  0.2410E-01
    -11.310  0.1585E-01  0.2555E-01
    -11.219  0.1064E-01  0.2652E-01
    -11.127  0.9550E-02  0.2739E-01
    -11.036  0.1393E-01  0.2867E-01
    -10.944  0.1828E-01  0.3034E-01
    -10.853  0.1677E-01  0.3187E-01
    -10.762  0.1034E-01  0.3281E-01
    -10.670  0.4263E-02  0.3320E-01
    -10.579  0.1173E-02  0.3331E-01
    -10.488  0.2155E-03  0.3333E-01
    -10.396  0.2640E-04  0.3333E-01
    -10.305  0.2154E-05  0.3333E-01
    -10.214  0.1170E-06  0.3333E-01
    -10.122  0.4977E-08  0.3333E-01
    -10.031  0.2550E-07  0.3333E-01
     -9.939  0.5679E-06  0.3333E-01
     -9.848  0.8445E-05  0.3333E-01
     -9.757  0.8362E-04  0.3334E-01
     -9.665  0.5518E-03  0.3339E-01
     -9.574  0.2429E-02  0.3361E-01
     -9.483  0.7138E-02  0.3427E-01
     -9.391  0.1401E-01  0.3555E-01
     -9.300  0.1837E-01  0.3722E-01
     -9.209  0.1610E-01  0.3870E-01
     -9.117  0.9431E-02  0.3956E-01
     -9.026  0.3690E-02  0.3989E-01
     -8.935  0.9662E-03  0.3998E-01
     -8.843  0.1968E-03  0.4000E-01
     -8.752  0.2515E-03  0.4002E-01
     -8.660  0.1245E-02  0.4014E-01
     -8.569  0.4446E-02  0.4054E-01
     -8.478  0.1062E-01  0.4151E-01
     -8.386  0.1694E-01  0.4306E-01
     -8.295  0.1806E-01  0.4471E-01
     -8.204  0.1286E-01  0.4589E-01
     -8.112  0.6140E-02  0.4645E-01
     -8.021  0.2102E-02  0.4664E-01
     -7.930  0.1320E-02  0.4676E-01
     -7.838  0.3586E-02  0.4709E-01
     -7.747  0.9166E-02  0.4792E-01
     -7.655  0.1589E-01  0.4938E-01
     -7.564  0.1842E-01  0.5106E-01
     -7.473  0.1427E-01  0.5236E-01
     -7.381  0.7385E-02  0.5304E-01
     -7.290  0.2553E-02  0.5327E-01
     -7.199  0.5892E-03  0.5332E-01
     -7.107  0.9070E-04  0.5333E-01
     -7.016  0.9307E-05  0.5333E-01
     -6.925  0.6358E-06  0.5333E-01
     -6.833  0.2890E-07  0.5333E-01
     -6.742  0.8731E-09  0.5333E-01
     -6.651  0.1752E-10  0.5333E-01
     -6.559  0.2332E-12  0.5333E-01
     -6.468  0.2058E-14  0.5333E-01
     -6.376  0.1620E-16  0.5333E-01
     -6.285  0.0000E+00  0.5333E-01
     -6.194  0.0000E+00  0.5333E-01
     -6.102  0.0000E+00  0.5333E-01
     -6.011  0.0000E+00  0.5333E-01
     -5.920  0.0000E+00  0.5333E-01
     -5.828  0.0000E+00  0.5333E-01
     -5.737  0.0000E+00  0.5333E-01
     -5.646  0.0000E+00  0.5333E-01
     -5.554  0.0000E+00  0.5333E-01
     -5.463  0.0000E+00  0.5333E-01
     -5.372  0.0000E+00  0.5333E-01
     -5.280  0.0000E+00  0.5333E-01
     -5.189  0.0000E+00  0.5333E-01
     -5.097  0.0000E+00  0.5333E-01
     -5.006  0.0000E+00  0.5333E-01
     -4.915  0.0000E+00  0.5333E-01
     -4.823  0.0000E+00  0.5333E-01
     -4.732  0.0000E+00  0.5333E-01
     -4.641  0.0000E+00  0.5333E-01
     -4.549  0.0000E+00  0.5333E-01
     -4.458  0.5266E-16  0.5333E-01
     -4.367  0.8166E-14  0.5333E-01
     -4.275  0.8236E-12  0.5333E-01
     -4.184  0.5510E-10  0.5333E-01
     -4.092  0.2446E-08  0.5333E-01
     -4.001  0.7214E-07  0.5333E-01
     -3.910  0.1414E-05  0.5333E-01
     -3.818  0.1845E-04  0.5334E-01
     -3.727  0.1603E-03  0.5335E-01
     -3.636  0.9289E-03  0.5343E-01
     -3.544  0.3590E-02  0.5376E-01
     -3.453  0.9266E-02  0.5461E-01
     -3.362  0.1597E-01  0.5607E-01
     -3.270  0.1840E-01  0.5775E-01
     -3.179  0.1417E-01  0.5904E-01
     -3.088  0.7288E-02  0.5971E-01
     -2.996  0.2504E-02  0.5994E-01
     -2.905  0.5743E-03  0.5999E-01
     -2.813  0.8787E-04  0.6000E-01
     -2.722  0.8960E-05  0.6000E-01
     -2.631  0.6084E-06  0.6000E-01
     -2.539  0.2748E-07  0.6000E-01
     -2.448  0.8250E-09  0.6000E-01
     -2.357  0.1645E-10  0.6000E-01
     -2.265  0.2176E-12  0.6000E-01
     -2.174  0.1904E-14  0.6000E-01
     -2.083  0.1620E-16  0.6000E-01
     -1.991  0.0000E+00  0.6000E-01
     -1.900  0.0000E+00  0.6000E-01
     -1.809  0.0000E+00  0.6000E-01
     -1.717  0.4051E-17  0.6000E-01
     -1.626  0.5347E-15  0.6000E-01
     -1.534  0.6767E-13  0.6000E-01
     -1.443  0.5681E-11  0.6000E-01
     -1.352  0.3164E-09  0.6000E-01
     -1.260  0.1170E-07  0.6000E-01
     -1.169  0.2877E-06  0.6000E-01
     -1.078  0.4710E-05  0.6000E-01
     -0.986  0.5146E-04  0.6001E-01
     -0.895  0.3764E-03  0.6004E-01
     -0.804  0.1855E-02  0.6021E-01
     -0.712  0.6230E-02  0.6078E-01
     -0.621  0.1455E-01  0.6211E-01
     -0.529  0.2439E-01  0.6434E-01
     -0.438  0.3055E-01  0.6713E-01
     -0.347  0.2953E-01  0.6982E-01
     -0.255  0.2276E-01  0.7190E-01
     -0.164  0.1631E-01  0.7339E-01
     -0.073  0.1552E-01  0.7481E-01
      0.019  0.1840E-01  0.7649E-01
      0.110  0.1807E-01  0.7814E-01
      0.201  0.1240E-01  0.7928E-01
      0.293  0.5731E-02  0.7980E-01
      0.384  0.1771E-02  0.7996E-01
      0.475  0.3654E-03  0.7999E-01
      0.567  0.5028E-04  0.8000E-01
      0.658  0.4610E-05  0.8000E-01
      0.750  0.2814E-06  0.8000E-01
      0.841  0.1142E-07  0.8000E-01
      0.932  0.3082E-09  0.8000E-01
      1.024  0.5520E-11  0.8000E-01
      1.115  0.6559E-13  0.8000E-01
      1.206  0.5144E-15  0.8000E-01
      1.298  0.0000E+00  0.8000E-01
      1.389  0.0000E+00  0.8000E-01
      1.480  0.0000E+00  0.8000E-01
      1.572  0.0000E+00  0.8000E-01
      1.663  0.0000E+00  0.8000E-01
      1.755  0.0000E+00  0.8000E-01
      1.846  0.0000E+00  0.8000E-01
      1.937  0.0000E+00  0.8000E-01
      2.029  0.0000E+00  0.8000E-01
