    6    6  300    1
  0.4500000E+04  0.3000000E-08  0.3000000E-08  0.3000000E-08  0.0000000E+00
  1.000000000000000E-004
  CAR 
 unknown system                          
     16      4     12
 
  0.2500000E+00  0.2500000E+00  0.2500000E+00  0.2500000E+00
    1      -23.379188   1.000000
    2      -18.282668   1.000000
    3      -12.118253   1.000000
    4      -11.442302   1.000000
    5      -10.962482   1.000000
    6       -9.329868   1.000000
    7       -8.371864   1.000000
    8       -7.622028   1.000000
    9       -3.329524   0.000000
   10       -0.538269   0.000000
   11       -0.367148   0.000000
   12        0.028587   0.000000
 
 -0.2500000E+00  0.2500000E+00  0.2500000E+00  0.2500000E+00
    1      -23.379188   1.000000
    2      -18.282665   1.000000
    3      -12.118252   1.000000
    4      -11.442309   1.000000
    5      -10.962485   1.000000
    6       -9.329865   1.000000
    7       -8.371864   1.000000
    8       -7.622013   1.000000
    9       -3.329545   0.000000
   10       -0.538260   0.000000
   11       -0.367150   0.000000
   12        0.025848   0.000000
 
  0.2500000E+00 -0.2500000E+00  0.2500000E+00  0.2500000E+00
    1      -23.379188   1.000000
    2      -18.282666   1.000000
    3      -12.118253   1.000000
    4      -11.442309   1.000000
    5      -10.962484   1.000000
    6       -9.329862   1.000000
    7       -8.371880   1.000000
    8       -7.622024   1.000000
    9       -3.329533   0.000000
   10       -0.538268   0.000000
   11       -0.367149   0.000000
   12        0.026473   0.000000
 
 -0.2500000E+00 -0.2500000E+00  0.2500000E+00  0.2500000E+00
    1      -23.379188   1.000000
    2      -18.282666   1.000000
    3      -12.118253   1.000000
    4      -11.442309   1.000000
    5      -10.962485   1.000000
    6       -9.329861   1.000000
    7       -8.371884   1.000000
    8       -7.622020   1.000000
    9       -3.329533   0.000000
   10       -0.538266   0.000000
   11       -0.367149   0.000000
   12        0.026434   0.000000
