 vasp.5.4.1 24Jun15 (build Jan 13 2020 12:58:22) complex                        
  
 executed on           IFC91_ompi date 2020.02.05  18:18:08
 running on   15 total cores
 each image running on    1 cores
 distrk:  each k-point on    1 cores,    1 groups
 distr:  one band on NCORES_PER_BAND=   1 cores,    1 groups


--------------------------------------------------------------------------------------------------------


 INCAR:
 POTCAR:    PAW_PBE H 15Jun2001                   
 POTCAR:    PAW_PBE C 08Apr2002                   
 POTCAR:    PAW_PBE N 08Apr2002                   
 POTCAR:    PAW_PBE H 15Jun2001                   
   VRHFIN =H: ultrasoft test                                                    
   LEXCH  = PE                                                                  
   EATOM  =    12.4884 eV,    0.9179 Ry                                         
                                                                                
   TITEL  = PAW_PBE H 15Jun2001                                                 
   LULTRA =        F    use ultrasoft PP ?                                      
   IUNSCR =        0    unscreen: 0-lin 1-nonlin 2-no                           
   RPACOR =    0.000    partial core radius                                     
   POMASS =    1.000; ZVAL   =    1.000    mass and valenz                      
   RCORE  =    1.100    outmost cutoff radius                                   
   RWIGS  =    0.700; RWIGS  =    0.370    wigner-seitz radius (au A)           
   ENMAX  =  250.000; ENMIN  =  200.000 eV                                      
   RCLOC  =    0.701    cutoff for local pot                                    
   LCOR   =        T    correct aug charges                                     
   LPAW   =        T    paw PP                                                  
   EAUG   =  400.000                                                            
   RMAX   =    1.123    core radius for proj-oper                               
   RAUG   =    1.200    factor for augmentation sphere                          
   RDEP   =    1.112    radius for radial grids                                 
   RDEPT  =    0.926    core radius for aug-charge                              
                                                                                
   Atomic configuration                                                         
    2 entries                                                                   
     n  l   j            E        occ.                                          
     1  0  0.50        -6.4927   1.0000                                         
     2  1  0.50        -3.4015   0.0000                                         
   Description                                                                  
     l       E           TYP  RCUT    TYP  RCUT                                 
     0     -6.4927494     23  1.100                                             
     0      6.8029130     23  1.100                                             
     1     -4.0817478     23  1.100                                             
  local pseudopotential read in
  atomic valenz-charges read in
  non local Contribution for L=           0  read in
    real space projection operators read in
  non local Contribution for L=           0  read in
    real space projection operators read in
  non local Contribution for L=           1  read in
    real space projection operators read in
    PAW grid and wavefunctions read in
 
   number of l-projection  operators is LMAX  =           3
   number of lm-projection operators is LMMAX =           5
 
 POTCAR:    PAW_PBE C 08Apr2002                   
   VRHFIN =C: s2p2                                                              
   LEXCH  = PE                                                                  
   EATOM  =   147.1560 eV,   10.8157 Ry                                         
                                                                                
   TITEL  = PAW_PBE C 08Apr2002                                                 
   LULTRA =        F    use ultrasoft PP ?                                      
   IUNSCR =        1    unscreen: 0-lin 1-nonlin 2-no                           
   RPACOR =    1.200    partial core radius                                     
   POMASS =   12.011; ZVAL   =    4.000    mass and valenz                      
   RCORE  =    1.500    outmost cutoff radius                                   
   RWIGS  =    1.630; RWIGS  =    0.863    wigner-seitz radius (au A)           
   ENMAX  =  400.000; ENMIN  =  300.000 eV                                      
   ICORE  =        2    local potential                                         
   LCOR   =        T    correct aug charges                                     
   LPAW   =        T    paw PP                                                  
   EAUG   =  644.873                                                            
   DEXC   =    0.000                                                            
   RMAX   =    1.529    core radius for proj-oper                               
   RAUG   =    1.300    factor for augmentation sphere                          
   RDEP   =    1.501    radius for radial grids                                 
   RDEPT  =    1.300    core radius for aug-charge                              
                                                                                
   Atomic configuration                                                         
    4 entries                                                                   
     n  l   j            E        occ.                                          
     1  0  0.50      -273.3789   2.0000                                         
     2  0  0.50       -13.7508   2.0000                                         
     2  1  0.50        -5.2854   2.0000                                         
     3  2  1.50        -5.4423   0.0000                                         
   Description                                                                  
     l       E           TYP  RCUT    TYP  RCUT                                 
     0    -13.7508458     23  1.200                                             
     0     -8.2022199     23  1.200                                             
     1     -5.2854383     23  1.500                                             
     1     34.0145650     23  1.500                                             
     2     -5.4423304      7  1.500                                             
  local pseudopotential read in
  partial core-charges read in
  partial kinetic energy density read in
  atomic valenz-charges read in
  non local Contribution for L=           0  read in
    real space projection operators read in
  non local Contribution for L=           0  read in
    real space projection operators read in
  non local Contribution for L=           1  read in
    real space projection operators read in
  non local Contribution for L=           1  read in
    real space projection operators read in
    PAW grid and wavefunctions read in
 
   number of l-projection  operators is LMAX  =           4
   number of lm-projection operators is LMMAX =           8
 
 POTCAR:    PAW_PBE N 08Apr2002                   
   VRHFIN =N: s2p3                                                              
   LEXCH  = PE                                                                  
   EATOM  =   264.5486 eV,   19.4438 Ry                                         
                                                                                
   TITEL  = PAW_PBE N 08Apr2002                                                 
   LULTRA =        F    use ultrasoft PP ?                                      
   IUNSCR =        1    unscreen: 0-lin 1-nonlin 2-no                           
   RPACOR =    1.200    partial core radius                                     
   POMASS =   14.001; ZVAL   =    5.000    mass and valenz                      
   RCORE  =    1.500    outmost cutoff radius                                   
   RWIGS  =    1.400; RWIGS  =    0.741    wigner-seitz radius (au A)           
   ENMAX  =  400.000; ENMIN  =  300.000 eV                                      
   ICORE  =        2    local potential                                         
   LCOR   =        T    correct aug charges                                     
   LPAW   =        T    paw PP                                                  
   EAUG   =  627.112                                                            
   DEXC   =    0.000                                                            
   RMAX   =    1.529    core radius for proj-oper                               
   RAUG   =    1.300    factor for augmentation sphere                          
   RDEP   =    1.514    radius for radial grids                                 
   RDEPT  =    1.338    core radius for aug-charge                              
                                                                                
   Atomic configuration                                                         
    4 entries                                                                   
     n  l   j            E        occ.                                          
     1  0  0.50      -384.7179   2.0000                                         
     2  0  0.50       -18.5828   2.0000                                         
     2  1  0.50        -7.0898   3.0000                                         
     3  2  1.50        -6.8029   0.0000                                         
   Description                                                                  
     l       E           TYP  RCUT    TYP  RCUT                                 
     0    -18.5828119     23  1.200                                             
     0    -13.5018863     23  1.200                                             
     1     -7.0897853     23  1.500                                             
     1      9.5240782     23  1.500                                             
     2     -6.8029130      7  1.500                                             
  local pseudopotential read in
  partial core-charges read in
  partial kinetic energy density read in
  atomic valenz-charges read in
  non local Contribution for L=           0  read in
    real space projection operators read in
  non local Contribution for L=           0  read in
    real space projection operators read in
  non local Contribution for L=           1  read in
    real space projection operators read in
  non local Contribution for L=           1  read in
    real space projection operators read in
    PAW grid and wavefunctions read in
 
   number of l-projection  operators is LMAX  =           4
   number of lm-projection operators is LMMAX =           8
 

 ----------------------------------------------------------------------------- 
|                                                                             |
|  ADVICE TO THIS USER RUNNING 'VASP/VAMP'   (HEAR YOUR MASTER'S VOICE ...):  |
|                                                                             |
|      You have a (more or less) 'small supercell' and for smaller cells      |
|      it is recommended  to use the reciprocal-space projection scheme!      |
|      The real space optimization is not  efficient for small cells and it   |
|      is also less accurate ...                                              |
|      Therefore set LREAL=.FALSE. in the  INCAR file                         |
|                                                                             |
 ----------------------------------------------------------------------------- 

 Optimization of the real space projectors (new method)

 maximal supplied QI-value         = 34.20
 optimisation between [QCUT,QGAM] = [  9.92, 20.18] = [ 27.55,114.04] Ry 
 Optimized for a Real-space Cutoff    1.26 Angstroem

   l    n(q)    QCUT    max X(q) W(low)/X(q) W(high)/X(q)  e(spline) 
   0      8     9.919    19.460    0.50E-03    0.23E-03    0.29E-06
   0      8     9.919    12.209    0.48E-03    0.23E-03    0.28E-06
   1      7     9.919     4.655    0.17E-03    0.75E-03    0.30E-06
 Optimization of the real space projectors (new method)

 maximal supplied QI-value         = 25.13
 optimisation between [QCUT,QGAM] = [ 10.05, 20.36] = [ 28.30,116.06] Ry 
 Optimized for a Real-space Cutoff    1.30 Angstroem

   l    n(q)    QCUT    max X(q) W(low)/X(q) W(high)/X(q)  e(spline) 
   0      8    10.053   115.676    0.49E-03    0.72E-03    0.18E-06
   0      8    10.053    87.132    0.49E-03    0.71E-03    0.18E-06
   1      7    10.053     4.429    0.32E-03    0.31E-03    0.18E-06
   1      7    10.053     2.733    0.23E-03    0.19E-03    0.20E-06
 Optimization of the real space projectors (new method)

 maximal supplied QI-value         = 25.13
 optimisation between [QCUT,QGAM] = [ 10.05, 20.36] = [ 28.30,116.06] Ry 
 Optimized for a Real-space Cutoff    1.65 Angstroem

   l    n(q)    QCUT    max X(q) W(low)/X(q) W(high)/X(q)  e(spline) 
   0     10    10.053    79.467    0.76E-04    0.72E-04    0.56E-06
   0     10    10.053    66.151    0.76E-04    0.72E-04    0.55E-06
   1     10    10.053     8.350    0.25E-03    0.92E-03    0.41E-05
   1     10    10.053     5.531    0.27E-03    0.10E-02    0.45E-05
  PAW_PBE H 15Jun2001                   :
 energy of atom  1       EATOM=  -12.4884
 kinetic energy error for atom=    0.0098 (will be added to EATOM!!)
  PAW_PBE C 08Apr2002                   :
 energy of atom  2       EATOM= -147.1560
 kinetic energy error for atom=    0.0288 (will be added to EATOM!!)
  PAW_PBE N 08Apr2002                   :
 energy of atom  3       EATOM= -264.5486
 kinetic energy error for atom=    0.0736 (will be added to EATOM!!)
 
 
 POSCAR: H3 C2 N1                                
  positions in direct lattice
  velocities in cartesian coordinates
 exchange correlation table for  LEXCH =        8
   RHO(1)=    0.500       N(1)  =     2000
   RHO(2)=  100.500       N(2)  =     4000

 VTST: version 3.2, (02/03/18)

 CHAIN: initializing optimizer
 
 OPT: Using FIRE optimizer
 OPT: FIRE, Init
 OPT: FIRE, MAXMOVE       0.20000
 OPT: FIRE, TIMESTEP      0.10000
 OPT: FIRE, FTIMEMAX      1.00000
 OPT: FIRE, FTIMEINC      1.10000
 OPT: FIRE, FTIMEDEC      0.50000
 OPT: FIRE, FALPHADEC     0.99000
 OPT: FIRE, FALPHA        0.10000
 OPT: FIRE, FNMIN         5
 
 CHAIN: Read ICHAIN            0
 CHAIN: Running the NEB
 NEB:          SPRING     -5.000000
 NEB:          LCLIMB      T
 NEB:     LTANGENTOLD      F
 NEB:           LDNEB      F
 NEB:        LDNEBORG      F
 NEB:        LNEBCELL      F
 NEB:          EFIRST      0.000000
 NEB:           ELAST      0.000000
 
 POSCAR: H3 C2 N1                                
  positions in direct lattice
  No initial velocities read in
 
 POSCAR: H3 C2 N1                                
  positions in direct lattice
  No initial velocities read in
 


--------------------------------------------------------------------------------------------------------


 ion  position               nearest neighbor table
   1  0.473  0.464  0.506-   4 1.09
   2  0.473  0.510  0.466-   4 1.09
   3  0.478  0.521  0.524-   4 1.11
   4  0.486  0.497  0.497-   1 1.09   2 1.09   3 1.11   5 1.55
   5  0.536  0.492  0.491-   6 1.18   4 1.55
   6  0.554  0.515  0.517-   5 1.18
 
  LATTYP: Found a simple cubic cell.
 ALAT       =    30.0000000000
  
  Lattice vectors:
  
 A1 = (  30.0000000000,   0.0000000000,   0.0000000000)
 A2 = (   0.0000000000,  30.0000000000,   0.0000000000)
 A3 = (   0.0000000000,   0.0000000000,  30.0000000000)


Analysis of symmetry for initial positions (statically):
=====================================================================
 Subroutine PRICEL returns:
 Original cell was already a primitive cell.
 

 Routine SETGRP: Setting up the symmetry group for a 
 simple cubic supercell.


 Subroutine GETGRP returns: Found  1 space group operations
 (whereof  1 operations were pure point group operations)
 out of a pool of 48 trial point group operations.


The static configuration has the point symmetry C_1 .


Analysis of symmetry for dynamics (positions and initial velocities):
=====================================================================
 Subroutine PRICEL returns:
 Original cell was already a primitive cell.
 

 Routine SETGRP: Setting up the symmetry group for a 
 simple cubic supercell.


 Subroutine GETGRP returns: Found  1 space group operations
 (whereof  1 operations were pure point group operations)
 out of a pool of 48 trial point group operations.


The dynamic configuration has the point symmetry C_1 .
 
 
 KPOINTS: Mo2C                                    

Automatic generation of k-mesh.
Space group operators:
 irot       det(A)        alpha          n_x          n_y          n_z        tau_x        tau_y        tau_z
    1     1.000000     0.000000     1.000000     0.000000     0.000000     0.000000     0.000000     0.000000
 
 Subroutine IBZKPT returns following result:
 ===========================================
 
 Found      4 irreducible k-points:
 
 Following reciprocal coordinates:
            Coordinates               Weight
  0.250000  0.250000  0.250000      2.000000
 -0.250000  0.250000  0.250000      2.000000
  0.250000 -0.250000  0.250000      2.000000
 -0.250000 -0.250000  0.250000      2.000000
 
 Following cartesian coordinates:
            Coordinates               Weight
  0.008333  0.008333  0.008333      2.000000
 -0.008333  0.008333  0.008333      2.000000
  0.008333 -0.008333  0.008333      2.000000
 -0.008333 -0.008333  0.008333      2.000000
 


--------------------------------------------------------------------------------------------------------




 Dimension of arrays:
   k-points           NKPTS =      4   k-points in BZ     NKDIM =      4   number of bands    NBANDS=     12
   number of dos      NEDOS =    301   number of ions     NIONS =      6
   non local maximal  LDIM  =      4   non local SUM 2l+1 LMDIM =      8
   total plane-waves  NPLWV = ******
   max r-space proj   IRMAX =   2395   max aug-charges    IRDMAX=   1738
   dimension x,y,z NGX =   150 NGY =  150 NGZ =  150
   dimension x,y,z NGXF=   300 NGYF=  300 NGZF=  300
   support grid    NGXF=   300 NGYF=  300 NGZF=  300
   ions per type =               3   2   1
 NGX,Y,Z   is equivalent  to a cutoff of   8.31,  8.31,  8.31 a.u.
 NGXF,Y,Z  is equivalent  to a cutoff of  16.62, 16.62, 16.62 a.u.


 I would recommend the setting:
   dimension x,y,z NGX =   147 NGY =  147 NGZ =  147
 SYSTEM =  unknown system                          
 POSCAR =  H3 C2 N1                                

 Startparameter for this run:
   NWRITE =      2    write-flag & timer
   PREC   = normal    normal or accurate (medium, high low for compatibility)
   ISTART =      0    job   : 0-new  1-cont  2-samecut
   ICHARG =      2    charge: 1-file 2-atom 10-const
   ISPIN  =      1    spin polarized calculation?
   LNONCOLLINEAR =      F non collinear calculations
   LSORBIT =      F    spin-orbit coupling
   INIWAV =      1    electr: 0-lowe 1-rand  2-diag
   LASPH  =      F    aspherical Exc in radial PAW
   METAGGA=      F    non-selfconsistent MetaGGA calc.

 Electronic Relaxation 1
   ENCUT  =  400.0 eV  29.40 Ry    5.42 a.u.  48.92 48.92 48.92*2*pi/ulx,y,z
   ENINI  =  400.0     initial cutoff
   ENAUG  =  644.9 eV  augmentation charge cutoff
   NELM   =    500;   NELMIN=  6; NELMDL= -5     # of ELM steps 
   EDIFF  = 0.1E-03   stopping-criterion for ELM
   LREAL  =      T    real-space projection
   NLSPLINE    = F    spline interpolate recip. space projectors
   LCOMPAT=      F    compatible to vasp.4.4
   GGA_COMPAT  = T    GGA compatible to vasp.4.4-vasp.4.6
   LMAXPAW     = -100 max onsite density
   LMAXMIX     =    2 max onsite mixed and CHGCAR
   VOSKOWN=      0    Vosko Wilk Nusair interpolation
   ROPT   =   -0.00050  -0.00050  -0.00050
 Ionic relaxation
   EDIFFG = -.1E+00   stopping-criterion for IOM
   NSW    =    300    number of steps for IOM
   NBLOCK =      1;   KBLOCK =    300    inner block; outer block 
   IBRION =      3    ionic relax: 0-MD 1-quasi-New 2-CG
   NFREE  =      0    steps in history (QN), initial steepest desc. (CG)
   ISIF   =      2    stress and relaxation
   IWAVPR =     11    prediction:  0-non 1-charg 2-wave 3-comb
   ISYM   =      2    0-nonsym 1-usesym 2-fastsym
   LCORR  =      T    Harris-Foulkes like correction to forces

   POTIM  = 0.0000    time-step for ionic-motion
   TEIN   =    0.0    initial temperature
   TEBEG  =    0.0;   TEEND  =   0.0 temperature during run
   SMASS  =   2.00    Nose mass-parameter (am)
   estimated Nose-frequenzy (Omega)   =  0.12E+10 period in steps =  0.00 mass=   0.137E-25a.u.
   SCALEE = 1.0000    scale energy and forces
   NPACO  =    256;   APACO  = 16.0  distance and # of slots for P.C.
   PSTRESS=    0.0 pullay stress

  Mass of Ions in am
   POMASS =   1.00 12.01 14.00
  Ionic Valenz
   ZVAL   =   1.00  4.00  5.00
  Atomic Wigner-Seitz radii
   RWIGS  =  -1.00 -1.00 -1.00
  virtual crystal weights 
   VCA    =   1.00  1.00  1.00
   NELECT =      16.0000    total number of electrons
   NUPDOWN=      -1.0000    fix difference up-down

 DOS related values:
   EMIN   =  10.00;   EMAX   =-10.00  energy-range for DOS
   EFERMI =   0.00
   ISMEAR =     0;   SIGMA  =   0.20  broadening in eV -4-tet -1-fermi 0-gaus

 Electronic relaxation 2 (details)
   IALGO  =     38    algorithm
   LDIAG  =      T    sub-space diagonalisation (order eigenvalues)
   LSUBROT=      F    optimize rotation matrix (better conditioning)
   TURBO    =      0    0=normal 1=particle mesh
   IRESTART =      0    0=no restart 2=restart with 2 vectors
   NREBOOT  =      0    no. of reboots
   NMIN     =      0    reboot dimension
   EREF     =   0.00    reference energy to select bands
   IMIX   =      4    mixing-type and parameters
     AMIX     =   0.40;   BMIX     =  1.00
     AMIX_MAG =   1.60;   BMIX_MAG =  1.00
     AMIN     =   0.10
     WC   =   100.;   INIMIX=   1;  MIXPRE=   1;  MAXMIX= -45

 Intra band minimization:
   WEIMIN = 0.0010     energy-eigenvalue tresh-hold
   EBREAK =  0.21E-05  absolut break condition
   DEPER  =   0.30     relativ break condition  

   TIME   =   0.40     timestep for ELM

  volume/ion in A,a.u.               =    4500.00     30367.50
  Fermi-wavevector in a.u.,A,eV,Ry     =   0.137508  0.259852  0.257264  0.018908
  Thomas-Fermi vector in A             =   0.790710
 
 Write flags
   LWAVE  =      F    write WAVECAR
   LCHARG =      F    write CHGCAR
   LVTOT  =      F    write LOCPOT, total local potential
   LVHAR  =      F    write LOCPOT, Hartree potential only
   LELF   =      F    write electronic localiz. function (ELF)
   LORBIT =      0    0 simple, 1 ext, 2 COOP (PROOUT)


 Dipole corrections
   LMONO  =      F    monopole corrections only (constant potential shift)
   LDIPOL =      F    correct potential (dipole corrections)
   IDIPOL =      0    1-x, 2-y, 3-z, 4-all directions 
   EPSILON=  1.0000000 bulk dielectric constant

 Exchange correlation treatment:
   GGA     =    PE    GGA type
   LEXCH   =     8    internal setting for exchange type
   VOSKOWN=      0    Vosko Wilk Nusair interpolation
   LHFCALC =     F    Hartree Fock is set to
   LHFONE  =     F    Hartree Fock one center treatment
   AEXX    =    0.0000 exact exchange contribution

 Linear response parameters
   LEPSILON=     F    determine dielectric tensor
   LRPA    =     F    only Hartree local field effects (RPA)
   LNABLA  =     F    use nabla operator in PAW spheres
   LVEL    =     F    velocity operator in full k-point grid
   LINTERFAST=   F  fast interpolation
   KINTER  =     0    interpolate to denser k-point grid
   CSHIFT  =0.1000    complex shift for real part using Kramers Kronig
   OMEGAMAX=  -1.0    maximum frequency
   DEG_THRESHOLD= 0.2000000E-02 threshold for treating states as degnerate
   RTIME   =    0.100 relaxation time in fs

 Orbital magnetization related:
   ORBITALMAG=     F  switch on orbital magnetization
   LCHIMAG   =     F  perturbation theory with respect to B field
   DQ        =  0.001000  dq finite difference perturbation B field



--------------------------------------------------------------------------------------------------------


 quickmin algorithm: (dynamic with friction)
 charge density and potential will be updated during run
 non-spin polarized calculation
 Variant of blocked Davidson
 Davidson routine will perform the subspace rotation
 perform sub-space diagonalisation
    after iterative eigenvector-optimisation
 modified Broyden-mixing scheme, WC =      100.0
 initial mixing is a Kerker type mixing with AMIX =  0.4000 and BMIX =      1.0000
 Hartree-type preconditioning will be used
 using additional bands            4
 real space projection scheme for non local part
 use partial core corrections
 calculate Harris-corrections to forces 
   (improved forces if not selfconsistent)
 use gradient corrections 
 use of overlap-Matrix (Vanderbilt PP)
 Gauss-broadening in eV      SIGMA  =   0.20


--------------------------------------------------------------------------------------------------------


  energy-cutoff  :      400.00
  volume of cell :    27000.00
      direct lattice vectors                 reciprocal lattice vectors
    30.000000000  0.000000000  0.000000000     0.033333333  0.000000000  0.000000000
     0.000000000 30.000000000  0.000000000     0.000000000  0.033333333  0.000000000
     0.000000000  0.000000000 30.000000000     0.000000000  0.000000000  0.033333333

  length of vectors
    30.000000000 30.000000000 30.000000000     0.033333333  0.033333333  0.033333333


 
 k-points in units of 2pi/SCALE and weight: Mo2C                                    
   0.00833333  0.00833333  0.00833333       0.250
  -0.00833333  0.00833333  0.00833333       0.250
   0.00833333 -0.00833333  0.00833333       0.250
  -0.00833333 -0.00833333  0.00833333       0.250
 
 k-points in reciprocal lattice and weights: Mo2C                                    
   0.25000000  0.25000000  0.25000000       0.250
  -0.25000000  0.25000000  0.25000000       0.250
   0.25000000 -0.25000000  0.25000000       0.250
  -0.25000000 -0.25000000  0.25000000       0.250
 
 position of ions in fractional coordinates (direct lattice) 
   0.47335344  0.46442364  0.50616606
   0.47314231  0.51022622  0.46558057
   0.47754126  0.52119528  0.52407594
   0.48551865  0.49728719  0.49705574
   0.53647475  0.49171117  0.49050614
   0.55399206  0.51514532  0.51659555
 
 position of ions in cartesian coordinates  (Angst):
  14.20060318 13.93270908 15.18498187
  14.19426916 15.30678650 13.96741722
  14.32623789 15.63585854 15.72227817
  14.56555938 14.91861562 14.91167213
  16.09424239 14.75133495 14.71518412
  16.61976180 15.45435945 15.49786644
 


--------------------------------------------------------------------------------------------------------


 k-point  1 :   0.2500 0.2500 0.2500  plane waves:  490454
 k-point  2 :  -0.2500 0.2500 0.2500  plane waves:  490454
 k-point  3 :   0.2500-0.2500 0.2500  plane waves:  490454
 k-point  4 :  -0.2500-0.2500 0.2500  plane waves:  490454

 maximum and minimum number of plane-waves per node :    490454   490454

 maximum number of plane-waves:    490454
 maximum index in each direction: 
   IXMAX=   49   IYMAX=   49   IZMAX=   48
   IXMIN=  -49   IYMIN=  -49   IZMIN=  -49

 WARNING: aliasing errors must be expected set NGX to 198 to avoid them
 WARNING: aliasing errors must be expected set NGY to 198 to avoid them
 WARNING: aliasing errors must be expected set NGZ to 196 to avoid them
 aliasing errors are usually negligible using standard VASP settings
 and one can safely disregard these warnings

 serial   3D FFT for wavefunctions
 parallel 3D FFT for charge:
    minimum data exchange during FFTs selected (reduces bandwidth)


 total amount of memory used by VASP on root node  3203888. kBytes
========================================================================

   base      :      30000. kBytes
   nonlr-proj:        692. kBytes
   fftplans  :     924480. kBytes
   grid      :    1872000. kBytes
   one-center:         18. kBytes
   wavefun   :     376698. kBytes
 
     INWAV:  cpu time    0.0000: real time    0.0006
 Broyden mixing: mesh for mixing (old mesh)
   NGX = 97   NGY = 97   NGZ = 97
  (NGX  =300   NGY  =300   NGZ  =300)
  gives a total of 912673 points

 initial charge density was supplied:
 charge density of overlapping atoms calculated
 number of electron      16.0000000 magnetization 
 keeping initial charge density in first step


--------------------------------------------------------------------------------------------------------


 Maximum index for non-local projection operator         2276
 Maximum index for augmentation-charges         1496 (set IRDMAX)


--------------------------------------------------------------------------------------------------------


 First call to EWALD:  gamma=   0.059
 Maximum number of real-space cells 3x 3x 3
 Maximum number of reciprocal cells 3x 3x 3

 FEWALD executed in parallel
    FEWALD:  cpu time    0.0040: real time    0.0036


----------------------------------------- Iteration    1(   1)  ---------------------------------------


    POTLOK:  cpu time   30.4374: real time   30.5057
    SETDIJ:  cpu time    0.0060: real time    0.0065
     EDDAV:  cpu time  140.5976: real time  140.9296
       DOS:  cpu time    0.0000: real time    0.0003
    --------------------------------------------
      LOOP:  cpu time  171.0460: real time  171.4485

 eigenvalue-minimisations  :   160
 total energy-change (2. order) : 0.1122054E+03  (-0.2128339E+03)
 number of electron      16.0000000 magnetization 
 augmentation part       16.0000000 magnetization 

 Free energy of the ion-electron system (eV)
  ---------------------------------------------------
  alpha Z        PSCENC =         0.04144063
  Ewald energy   TEWEN  =       693.94826036
  -Hartree energ DENC   =     -1110.67409708
  -exchange      EXHF   =         0.00000000
  -V(xc)+E(xc)   XCENC  =        51.28180786
  PAW double counting   =       428.37890668     -430.73533574
  entropy T*S    EENTRO =        -0.22224245
  eigenvalues    EBANDS =      -115.97865446
  atomic energy  EATOM  =       596.16534815
  Solvation  Ediel_sol  =         0.00000000
  ---------------------------------------------------
  free energy    TOTEN  =       112.20543394 eV

  energy without entropy =      112.42767640  energy(sigma->0) =      112.31655517


--------------------------------------------------------------------------------------------------------




----------------------------------------- Iteration    1(   2)  ---------------------------------------


     EDDAV:  cpu time  163.6241: real time  164.0090
       DOS:  cpu time    0.0000: real time    0.0002
    --------------------------------------------
      LOOP:  cpu time  163.6251: real time  164.0138

 eigenvalue-minimisations  :   192
 total energy-change (2. order) :-0.1124324E+03  (-0.1092499E+03)
 number of electron      16.0000000 magnetization 
 augmentation part       16.0000000 magnetization 

 Free energy of the ion-electron system (eV)
  ---------------------------------------------------
  alpha Z        PSCENC =         0.04144063
  Ewald energy   TEWEN  =       693.94826036
  -Hartree energ DENC   =     -1110.67409708
  -exchange      EXHF   =         0.00000000
  -V(xc)+E(xc)   XCENC  =        51.28180786
  PAW double counting   =       428.37890668     -430.73533574
  entropy T*S    EENTRO =         0.00000000
  eigenvalues    EBANDS =      -228.63325770
  atomic energy  EATOM  =       596.16534815
  Solvation  Ediel_sol  =         0.00000000
  ---------------------------------------------------
  free energy    TOTEN  =        -0.22692685 eV

  energy without entropy =       -0.22692685  energy(sigma->0) =       -0.22692685


--------------------------------------------------------------------------------------------------------




----------------------------------------- Iteration    1(   3)  ---------------------------------------


     EDDAV:  cpu time  121.2586: real time  121.5456
       DOS:  cpu time    0.0000: real time    0.0002
    --------------------------------------------
      LOOP:  cpu time  121.2596: real time  121.5496

 eigenvalue-minimisations  :   128
 total energy-change (2. order) :-0.3510571E+02  (-0.3455083E+02)
 number of electron      16.0000000 magnetization 
 augmentation part       16.0000000 magnetization 

 Free energy of the ion-electron system (eV)
  ---------------------------------------------------
  alpha Z        PSCENC =         0.04144063
  Ewald energy   TEWEN  =       693.94826036
  -Hartree energ DENC   =     -1110.67409708
  -exchange      EXHF   =         0.00000000
  -V(xc)+E(xc)   XCENC  =        51.28180786
  PAW double counting   =       428.37890668     -430.73533574
  entropy T*S    EENTRO =         0.00000000
  eigenvalues    EBANDS =      -263.73896831
  atomic energy  EATOM  =       596.16534815
  Solvation  Ediel_sol  =         0.00000000
  ---------------------------------------------------
  free energy    TOTEN  =       -35.33263745 eV

  energy without entropy =      -35.33263745  energy(sigma->0) =      -35.33263745


--------------------------------------------------------------------------------------------------------




----------------------------------------- Iteration    1(   4)  ---------------------------------------


     EDDAV:  cpu time   93.8667: real time   94.1061
       DOS:  cpu time    0.0000: real time    0.0002
    --------------------------------------------
      LOOP:  cpu time   93.8677: real time   94.1107

 eigenvalue-minimisations  :   100
 total energy-change (2. order) :-0.3084981E+01  (-0.2970232E+01)
 number of electron      16.0000000 magnetization 
 augmentation part       16.0000000 magnetization 

 Free energy of the ion-electron system (eV)
  ---------------------------------------------------
  alpha Z        PSCENC =         0.04144063
  Ewald energy   TEWEN  =       693.94826036
  -Hartree energ DENC   =     -1110.67409708
  -exchange      EXHF   =         0.00000000
  -V(xc)+E(xc)   XCENC  =        51.28180786
  PAW double counting   =       428.37890668     -430.73533574
  entropy T*S    EENTRO =         0.00000000
  eigenvalues    EBANDS =      -266.82394941
  atomic energy  EATOM  =       596.16534815
  Solvation  Ediel_sol  =         0.00000000
  ---------------------------------------------------
  free energy    TOTEN  =       -38.41761855 eV

  energy without entropy =      -38.41761855  energy(sigma->0) =      -38.41761855


--------------------------------------------------------------------------------------------------------




----------------------------------------- Iteration    1(   5)  ---------------------------------------


     EDDAV:  cpu time  140.6236: real time  140.9565
       DOS:  cpu time    0.0000: real time    0.0002
    CHARGE:  cpu time    9.2376: real time    9.2604
    MIXING:  cpu time    0.7959: real time    0.7978
    --------------------------------------------
      LOOP:  cpu time  150.6591: real time  151.0191

 eigenvalue-minimisations  :   160
 total energy-change (2. order) :-0.9620331E-01  (-0.9612630E-01)
 number of electron      16.0000010 magnetization 
 augmentation part        0.4962359 magnetization 

 Broyden mixing:
  rms(total) = 0.10723E+01    rms(broyden)= 0.10715E+01
  rms(prec ) = 0.11124E+01
  weight for this iteration     100.00

 Free energy of the ion-electron system (eV)
  ---------------------------------------------------
  alpha Z        PSCENC =         0.04144063
  Ewald energy   TEWEN  =       693.94826036
  -Hartree energ DENC   =     -1110.67409708
  -exchange      EXHF   =         0.00000000
  -V(xc)+E(xc)   XCENC  =        51.28180786
  PAW double counting   =       428.37890668     -430.73533574
  entropy T*S    EENTRO =         0.00000000
  eigenvalues    EBANDS =      -266.92015272
  atomic energy  EATOM  =       596.16534815
  Solvation  Ediel_sol  =         0.00000000
  ---------------------------------------------------
  free energy    TOTEN  =       -38.51382187 eV

  energy without entropy =      -38.51382187  energy(sigma->0) =      -38.51382187


--------------------------------------------------------------------------------------------------------




----------------------------------------- Iteration    1(   6)  ---------------------------------------


    POTLOK:  cpu time   29.5385: real time   29.6075
    SETDIJ:  cpu time    0.0070: real time    0.0069
     EDDAV:  cpu time  112.0970: real time  112.3538
       DOS:  cpu time    0.0000: real time    0.0002
    CHARGE:  cpu time    9.1636: real time    9.1853
    MIXING:  cpu time    0.9249: real time    0.9268
    --------------------------------------------
      LOOP:  cpu time  151.7329: real time  152.0855

 eigenvalue-minimisations  :   128
 total energy-change (2. order) : 0.2904982E+01  (-0.5576259E+00)
 number of electron      16.0000010 magnetization 
 augmentation part        0.4285628 magnetization 

 Broyden mixing:
  rms(total) = 0.60676E+00    rms(broyden)= 0.60651E+00
  rms(prec ) = 0.62303E+00
  weight for this iteration     100.00

 eigenvalues of (default mixing * dielectric matrix)
  average eigenvalue GAMMA=   1.2908
  1.2908

 Free energy of the ion-electron system (eV)
  ---------------------------------------------------
  alpha Z        PSCENC =         0.04144063
  Ewald energy   TEWEN  =       693.94826036
  -Hartree energ DENC   =     -1141.25118685
  -exchange      EXHF   =         0.00000000
  -V(xc)+E(xc)   XCENC  =        52.93717949
  PAW double counting   =       707.15948332     -709.81635974
  entropy T*S    EENTRO =         0.00000000
  eigenvalues    EBANDS =      -234.79300502
  atomic energy  EATOM  =       596.16534815
  Solvation  Ediel_sol  =         0.00000000
  ---------------------------------------------------
  free energy    TOTEN  =       -35.60883965 eV

  energy without entropy =      -35.60883965  energy(sigma->0) =      -35.60883965


--------------------------------------------------------------------------------------------------------




----------------------------------------- Iteration    1(   7)  ---------------------------------------


    POTLOK:  cpu time   30.8113: real time   30.8824
    SETDIJ:  cpu time    0.0070: real time    0.0066
     EDDAV:  cpu time  115.9344: real time  116.2078
       DOS:  cpu time    0.0000: real time    0.0002
    CHARGE:  cpu time    9.0336: real time    9.0548
    MIXING:  cpu time    0.9429: real time    0.9449
    --------------------------------------------
      LOOP:  cpu time  156.7302: real time  157.1012

 eigenvalue-minimisations  :   120
 total energy-change (2. order) : 0.5820600E+00  (-0.1830156E+00)
 number of electron      16.0000010 magnetization 
 augmentation part        0.4397739 magnetization 

 Broyden mixing:
  rms(total) = 0.31811E+00    rms(broyden)= 0.31804E+00
  rms(prec ) = 0.32815E+00
  weight for this iteration     100.00

 eigenvalues of (default mixing * dielectric matrix)
  average eigenvalue GAMMA=   1.3311
  0.7550  1.9073

 Free energy of the ion-electron system (eV)
  ---------------------------------------------------
  alpha Z        PSCENC =         0.04144063
  Ewald energy   TEWEN  =       693.94826036
  -Hartree energ DENC   =     -1156.77759247
  -exchange      EXHF   =         0.00000000
  -V(xc)+E(xc)   XCENC  =        53.82820455
  PAW double counting   =       985.44734054     -988.21409542
  entropy T*S    EENTRO =         0.00000000
  eigenvalues    EBANDS =      -219.46568600
  atomic energy  EATOM  =       596.16534815
  Solvation  Ediel_sol  =         0.00000000
  ---------------------------------------------------
  free energy    TOTEN  =       -35.02677965 eV

  energy without entropy =      -35.02677965  energy(sigma->0) =      -35.02677965


--------------------------------------------------------------------------------------------------------




----------------------------------------- Iteration    1(   8)  ---------------------------------------


    POTLOK:  cpu time   30.8193: real time   30.8904
    SETDIJ:  cpu time    0.0060: real time    0.0065
     EDDAV:  cpu time  122.7583: real time  123.0490
       DOS:  cpu time    0.0000: real time    0.0002
    CHARGE:  cpu time    9.1756: real time    9.1979
    MIXING:  cpu time    1.0508: real time    1.0538
    --------------------------------------------
      LOOP:  cpu time  163.8131: real time  164.2026

 eigenvalue-minimisations  :   128
 total energy-change (2. order) : 0.1785263E+00  (-0.4102063E-01)
 number of electron      16.0000010 magnetization 
 augmentation part        0.4154287 magnetization 

 Broyden mixing:
  rms(total) = 0.12668E+00    rms(broyden)= 0.12661E+00
  rms(prec ) = 0.13053E+00
  weight for this iteration     100.00

 eigenvalues of (default mixing * dielectric matrix)
  average eigenvalue GAMMA=   1.4320
  2.2290  1.4137  0.6533

 Free energy of the ion-electron system (eV)
  ---------------------------------------------------
  alpha Z        PSCENC =         0.04144063
  Ewald energy   TEWEN  =       693.94826036
  -Hartree energ DENC   =     -1166.59067032
  -exchange      EXHF   =         0.00000000
  -V(xc)+E(xc)   XCENC  =        54.45690067
  PAW double counting   =      1187.04600990    -1189.86363453
  entropy T*S    EENTRO =         0.00000000
  eigenvalues    EBANDS =      -210.05190819
  atomic energy  EATOM  =       596.16534815
  Solvation  Ediel_sol  =         0.00000000
  ---------------------------------------------------
  free energy    TOTEN  =       -34.84825333 eV

  energy without entropy =      -34.84825333  energy(sigma->0) =      -34.84825333


--------------------------------------------------------------------------------------------------------




----------------------------------------- Iteration    1(   9)  ---------------------------------------


    POTLOK:  cpu time   28.7606: real time   28.8262
    SETDIJ:  cpu time    0.0060: real time    0.0064
     EDDAV:  cpu time   99.7368: real time   99.9729
       DOS:  cpu time    0.0000: real time    0.0002
    CHARGE:  cpu time    9.3566: real time    9.3806
    MIXING:  cpu time    1.2948: real time    1.2980
    --------------------------------------------
      LOOP:  cpu time  139.1568: real time  139.4886

 eigenvalue-minimisations  :   104
 total energy-change (2. order) : 0.2652313E-01  (-0.6446573E-02)
 number of electron      16.0000010 magnetization 
 augmentation part        0.4176572 magnetization 

 Broyden mixing:
  rms(total) = 0.37090E-01    rms(broyden)= 0.37074E-01
  rms(prec ) = 0.40849E-01
  weight for this iteration     100.00

 eigenvalues of (default mixing * dielectric matrix)
  average eigenvalue GAMMA=   1.3594
  2.2775  1.5226  0.9594  0.6782

 Free energy of the ion-electron system (eV)
  ---------------------------------------------------
  alpha Z        PSCENC =         0.04144063
  Ewald energy   TEWEN  =       693.94826036
  -Hartree energ DENC   =     -1169.08369603
  -exchange      EXHF   =         0.00000000
  -V(xc)+E(xc)   XCENC  =        54.62548743
  PAW double counting   =      1278.88617938    -1281.67687382
  entropy T*S    EENTRO =         0.00000000
  eigenvalues    EBANDS =      -207.72787630
  atomic energy  EATOM  =       596.16534815
  Solvation  Ediel_sol  =         0.00000000
  ---------------------------------------------------
  free energy    TOTEN  =       -34.82173020 eV

  energy without entropy =      -34.82173020  energy(sigma->0) =      -34.82173020


--------------------------------------------------------------------------------------------------------




----------------------------------------- Iteration    1(  10)  ---------------------------------------


    POTLOK:  cpu time   31.3092: real time   31.3840
    SETDIJ:  cpu time    0.0070: real time    0.0070
     EDDAV:  cpu time  105.2130: real time  105.4636
       DOS:  cpu time    0.0000: real time    0.0002
    CHARGE:  cpu time    9.2356: real time    9.2585
    MIXING:  cpu time    1.2798: real time    1.2817
    --------------------------------------------
      LOOP:  cpu time  147.0486: real time  147.4005

 eigenvalue-minimisations  :   108
 total energy-change (2. order) : 0.3250331E-02  (-0.5774235E-03)
 number of electron      16.0000010 magnetization 
 augmentation part        0.4190004 magnetization 

 Broyden mixing:
  rms(total) = 0.16333E-01    rms(broyden)= 0.16325E-01
  rms(prec ) = 0.20852E-01
  weight for this iteration     100.00

 eigenvalues of (default mixing * dielectric matrix)
  average eigenvalue GAMMA=   1.4399
  2.1518  2.1518  1.2859  0.6755  0.9345

 Free energy of the ion-electron system (eV)
  ---------------------------------------------------
  alpha Z        PSCENC =         0.04144063
  Ewald energy   TEWEN  =       693.94826036
  -Hartree energ DENC   =     -1169.94435913
  -exchange      EXHF   =         0.00000000
  -V(xc)+E(xc)   XCENC  =        54.64856706
  PAW double counting   =      1288.98169932    -1291.76538532
  entropy T*S    EENTRO =         0.00000000
  eigenvalues    EBANDS =      -206.89405095
  atomic energy  EATOM  =       596.16534815
  Solvation  Ediel_sol  =         0.00000000
  ---------------------------------------------------
  free energy    TOTEN  =       -34.81847987 eV

  energy without entropy =      -34.81847987  energy(sigma->0) =      -34.81847987


--------------------------------------------------------------------------------------------------------




----------------------------------------- Iteration    1(  11)  ---------------------------------------


    POTLOK:  cpu time   31.2582: real time   31.3331
    SETDIJ:  cpu time    0.0070: real time    0.0071
     EDDAV:  cpu time   95.4195: real time   95.6445
       DOS:  cpu time    0.0000: real time    0.0002
    CHARGE:  cpu time    9.1206: real time    9.1418
    MIXING:  cpu time    1.4248: real time    1.4276
    --------------------------------------------
      LOOP:  cpu time  137.2311: real time  137.5587

 eigenvalue-minimisations  :   100
 total energy-change (2. order) : 0.1858927E-04  (-0.2022692E-03)
 number of electron      16.0000010 magnetization 
 augmentation part        0.4186571 magnetization 

 Broyden mixing:
  rms(total) = 0.85330E-02    rms(broyden)= 0.85310E-02
  rms(prec ) = 0.12699E-01
  weight for this iteration     100.00

 eigenvalues of (default mixing * dielectric matrix)
  average eigenvalue GAMMA=   1.4442
  2.2853  2.2853  0.6763  0.9938  1.2121  1.2121

 Free energy of the ion-electron system (eV)
  ---------------------------------------------------
  alpha Z        PSCENC =         0.04144063
  Ewald energy   TEWEN  =       693.94826036
  -Hartree energ DENC   =     -1171.06913021
  -exchange      EXHF   =         0.00000000
  -V(xc)+E(xc)   XCENC  =        54.67427919
  PAW double counting   =      1290.95943827    -1293.73879710
  entropy T*S    EENTRO =         0.00000000
  eigenvalues    EBANDS =      -205.79930056
  atomic energy  EATOM  =       596.16534815
  Solvation  Ediel_sol  =         0.00000000
  ---------------------------------------------------
  free energy    TOTEN  =       -34.81846128 eV

  energy without entropy =      -34.81846128  energy(sigma->0) =      -34.81846128


--------------------------------------------------------------------------------------------------------




----------------------------------------- Iteration    1(  12)  ---------------------------------------


    POTLOK:  cpu time   32.1911: real time   32.2697
    SETDIJ:  cpu time    0.0070: real time    0.0067
     EDDAV:  cpu time  103.3203: real time  103.5627
       DOS:  cpu time    0.0000: real time    0.0002
    CHARGE:  cpu time    9.2486: real time    9.2701
    MIXING:  cpu time    1.5548: real time    1.5582
    --------------------------------------------
      LOOP:  cpu time  146.3228: real time  146.6887

 eigenvalue-minimisations  :   112
 total energy-change (2. order) :-0.2499016E-02  (-0.8961055E-04)
 number of electron      16.0000010 magnetization 
 augmentation part        0.4185616 magnetization 

 Broyden mixing:
  rms(total) = 0.49899E-02    rms(broyden)= 0.49889E-02
  rms(prec ) = 0.83025E-02
  weight for this iteration     100.00

 eigenvalues of (default mixing * dielectric matrix)
  average eigenvalue GAMMA=   1.6168
  3.3254  2.3439  0.6764  1.5651  0.8908  1.2578  1.2578

 Free energy of the ion-electron system (eV)
  ---------------------------------------------------
  alpha Z        PSCENC =         0.04144063
  Ewald energy   TEWEN  =       693.94826036
  -Hartree energ DENC   =     -1172.01985948
  -exchange      EXHF   =         0.00000000
  -V(xc)+E(xc)   XCENC  =        54.69522417
  PAW double counting   =      1288.89964393    -1291.67690996
  entropy T*S    EENTRO =         0.00000000
  eigenvalues    EBANDS =      -204.87410809
  atomic energy  EATOM  =       596.16534815
  Solvation  Ediel_sol  =         0.00000000
  ---------------------------------------------------
  free energy    TOTEN  =       -34.82096029 eV

  energy without entropy =      -34.82096029  energy(sigma->0) =      -34.82096029


--------------------------------------------------------------------------------------------------------




----------------------------------------- Iteration    1(  13)  ---------------------------------------


    POTLOK:  cpu time   31.2842: real time   31.3601
    SETDIJ:  cpu time    0.0060: real time    0.0069
     EDDAV:  cpu time  102.6414: real time  102.8795
       DOS:  cpu time    0.0010: real time    0.0002
    CHARGE:  cpu time    9.1806: real time    9.2032
    MIXING:  cpu time    1.7427: real time    1.7461
    --------------------------------------------
      LOOP:  cpu time  144.8580: real time  145.2008

 eigenvalue-minimisations  :   112
 total energy-change (2. order) :-0.4447455E-02  (-0.1962775E-03)
 number of electron      16.0000010 magnetization 
 augmentation part        0.4183508 magnetization 

 Broyden mixing:
  rms(total) = 0.31149E-02    rms(broyden)= 0.31129E-02
  rms(prec ) = 0.47427E-02
  weight for this iteration     100.00

 eigenvalues of (default mixing * dielectric matrix)
  average eigenvalue GAMMA=   1.7433
  4.1701  2.4577  0.6761  1.5417  1.5417  1.5995  0.9459  1.0138

 Free energy of the ion-electron system (eV)
  ---------------------------------------------------
  alpha Z        PSCENC =         0.04144063
  Ewald energy   TEWEN  =       693.94826036
  -Hartree energ DENC   =     -1173.25834704
  -exchange      EXHF   =         0.00000000
  -V(xc)+E(xc)   XCENC  =        54.72185072
  PAW double counting   =      1287.74321447    -1290.51930569
  entropy T*S    EENTRO =         0.00000000
  eigenvalues    EBANDS =      -203.66786935
  atomic energy  EATOM  =       596.16534815
  Solvation  Ediel_sol  =         0.00000000
  ---------------------------------------------------
  free energy    TOTEN  =       -34.82540775 eV

  energy without entropy =      -34.82540775  energy(sigma->0) =      -34.82540775


--------------------------------------------------------------------------------------------------------




----------------------------------------- Iteration    1(  14)  ---------------------------------------


    POTLOK:  cpu time   31.9181: real time   31.9929
    SETDIJ:  cpu time    0.0060: real time    0.0066
     EDDAV:  cpu time  139.7198: real time  140.0482
       DOS:  cpu time    0.0000: real time    0.0002
    CHARGE:  cpu time    9.1366: real time    9.1584
    MIXING:  cpu time    1.8007: real time    1.8043
    --------------------------------------------
      LOOP:  cpu time  182.5822: real time  183.0158

 eigenvalue-minimisations  :   160
 total energy-change (2. order) :-0.4320795E-02  (-0.7270297E-04)
 number of electron      16.0000010 magnetization 
 augmentation part        0.4180792 magnetization 

 Broyden mixing:
  rms(total) = 0.20982E-02    rms(broyden)= 0.20964E-02
  rms(prec ) = 0.29534E-02
  weight for this iteration     100.00

 eigenvalues of (default mixing * dielectric matrix)
  average eigenvalue GAMMA=   1.8158
  4.8744  2.6019  1.9554  1.9554  0.6760  1.2093  1.2093  0.9300  0.9300

 Free energy of the ion-electron system (eV)
  ---------------------------------------------------
  alpha Z        PSCENC =         0.04144063
  Ewald energy   TEWEN  =       693.94826036
  -Hartree energ DENC   =     -1173.69388259
  -exchange      EXHF   =         0.00000000
  -V(xc)+E(xc)   XCENC  =        54.72193484
  PAW double counting   =      1285.69496709    -1288.47127401
  entropy T*S    EENTRO =         0.00000000
  eigenvalues    EBANDS =      -203.23652301
  atomic energy  EATOM  =       596.16534815
  Solvation  Ediel_sol  =         0.00000000
  ---------------------------------------------------
  free energy    TOTEN  =       -34.82972854 eV

  energy without entropy =      -34.82972854  energy(sigma->0) =      -34.82972854


--------------------------------------------------------------------------------------------------------




----------------------------------------- Iteration    1(  15)  ---------------------------------------


    POTLOK:  cpu time   31.9261: real time   32.0033
    SETDIJ:  cpu time    0.0060: real time    0.0068
     EDDAV:  cpu time  117.7751: real time  118.0511
       DOS:  cpu time    0.0000: real time    0.0002
    CHARGE:  cpu time    9.0676: real time    9.0895
    MIXING:  cpu time    1.8927: real time    1.8970
    --------------------------------------------
      LOOP:  cpu time  160.6696: real time  161.0525

 eigenvalue-minimisations  :   128
 total energy-change (2. order) :-0.2394710E-02  (-0.1898630E-04)
 number of electron      16.0000010 magnetization 
 augmentation part        0.4181539 magnetization 

 Broyden mixing:
  rms(total) = 0.11953E-02    rms(broyden)= 0.11952E-02
  rms(prec ) = 0.17597E-02
  weight for this iteration     100.00

 eigenvalues of (default mixing * dielectric matrix)
  average eigenvalue GAMMA=   1.9075
  5.7154  2.9679  2.3905  1.5469  1.5469  0.6760  1.1794  1.1794  0.9363  0.9363

 Free energy of the ion-electron system (eV)
  ---------------------------------------------------
  alpha Z        PSCENC =         0.04144063
  Ewald energy   TEWEN  =       693.94826036
  -Hartree energ DENC   =     -1173.79249049
  -exchange      EXHF   =         0.00000000
  -V(xc)+E(xc)   XCENC  =        54.71778784
  PAW double counting   =      1285.47921032    -1288.25490275
  entropy T*S    EENTRO =         0.00000000
  eigenvalues    EBANDS =      -203.13677731
  atomic energy  EATOM  =       596.16534815
  Solvation  Ediel_sol  =         0.00000000
  ---------------------------------------------------
  free energy    TOTEN  =       -34.83212325 eV

  energy without entropy =      -34.83212325  energy(sigma->0) =      -34.83212325


--------------------------------------------------------------------------------------------------------




----------------------------------------- Iteration    1(  16)  ---------------------------------------


    POTLOK:  cpu time   31.4642: real time   31.5372
    SETDIJ:  cpu time    0.0060: real time    0.0065
     EDDAV:  cpu time   96.3224: real time   96.5461
       DOS:  cpu time    0.0000: real time    0.0002
    CHARGE:  cpu time    9.0786: real time    9.1004
    MIXING:  cpu time    2.0907: real time    2.0951
    --------------------------------------------
      LOOP:  cpu time  138.9639: real time  139.2911

 eigenvalue-minimisations  :   104
 total energy-change (2. order) :-0.1739027E-02  (-0.1623353E-04)
 number of electron      16.0000010 magnetization 
 augmentation part        0.4180890 magnetization 

 Broyden mixing:
  rms(total) = 0.91603E-03    rms(broyden)= 0.91571E-03
  rms(prec ) = 0.12083E-02
  weight for this iteration     100.00

 eigenvalues of (default mixing * dielectric matrix)
  average eigenvalue GAMMA=   2.0320
  6.8784  3.4008  2.2589  2.2589  1.5409  0.6760  1.2184  1.2184  0.9319  0.9319
  1.0374

 Free energy of the ion-electron system (eV)
  ---------------------------------------------------
  alpha Z        PSCENC =         0.04144063
  Ewald energy   TEWEN  =       693.94826036
  -Hartree energ DENC   =     -1173.90055160
  -exchange      EXHF   =         0.00000000
  -V(xc)+E(xc)   XCENC  =        54.71740261
  PAW double counting   =      1285.72636595    -1288.50249629
  entropy T*S    EENTRO =         0.00000000
  eigenvalues    EBANDS =      -203.02963209
  atomic energy  EATOM  =       596.16534815
  Solvation  Ediel_sol  =         0.00000000
  ---------------------------------------------------
  free energy    TOTEN  =       -34.83386228 eV

  energy without entropy =      -34.83386228  energy(sigma->0) =      -34.83386228


--------------------------------------------------------------------------------------------------------




----------------------------------------- Iteration    1(  17)  ---------------------------------------


    POTLOK:  cpu time   30.9253: real time   30.9980
    SETDIJ:  cpu time    0.0070: real time    0.0068
     EDDAV:  cpu time   91.9850: real time   92.1986
       DOS:  cpu time    0.0000: real time    0.0002
    CHARGE:  cpu time    9.2656: real time    9.2868
    MIXING:  cpu time    2.2407: real time    2.2463
    --------------------------------------------
      LOOP:  cpu time  134.4246: real time  134.7406

 eigenvalue-minimisations  :    96
 total energy-change (2. order) :-0.1175724E-02  (-0.6745424E-05)
 number of electron      16.0000010 magnetization 
 augmentation part        0.4181135 magnetization 

 Broyden mixing:
  rms(total) = 0.40234E-03    rms(broyden)= 0.40227E-03
  rms(prec ) = 0.56310E-03
  weight for this iteration     100.00

 eigenvalues of (default mixing * dielectric matrix)
  average eigenvalue GAMMA=   2.0571
  7.3683  3.8748  2.5084  2.3472  1.3245  1.3245  1.2477  1.2477  0.6760  0.9928
  0.9025  0.8706

 Free energy of the ion-electron system (eV)
  ---------------------------------------------------
  alpha Z        PSCENC =         0.04144063
  Ewald energy   TEWEN  =       693.94826036
  -Hartree energ DENC   =     -1173.90869518
  -exchange      EXHF   =         0.00000000
  -V(xc)+E(xc)   XCENC  =        54.71371280
  PAW double counting   =      1285.70831909    -1288.48419419
  entropy T*S    EENTRO =         0.00000000
  eigenvalues    EBANDS =      -203.01922966
  atomic energy  EATOM  =       596.16534815
  Solvation  Ediel_sol  =         0.00000000
  ---------------------------------------------------
  free energy    TOTEN  =       -34.83503801 eV

  energy without entropy =      -34.83503801  energy(sigma->0) =      -34.83503801


--------------------------------------------------------------------------------------------------------




----------------------------------------- Iteration    1(  18)  ---------------------------------------


    POTLOK:  cpu time   31.6772: real time   31.7525
    SETDIJ:  cpu time    0.0060: real time    0.0065
     EDDAV:  cpu time   88.1116: real time   88.3152
       DOS:  cpu time    0.0000: real time    0.0002
    CHARGE:  cpu time    9.0836: real time    9.1055
    MIXING:  cpu time    2.4086: real time    2.4137
    --------------------------------------------
      LOOP:  cpu time  131.2890: real time  131.5988

 eigenvalue-minimisations  :    92
 total energy-change (2. order) :-0.4146277E-03  (-0.3899384E-05)
 number of electron      16.0000010 magnetization 
 augmentation part        0.4181150 magnetization 

 Broyden mixing:
  rms(total) = 0.38996E-03    rms(broyden)= 0.38992E-03
  rms(prec ) = 0.46665E-03
  weight for this iteration     100.00

 eigenvalues of (default mixing * dielectric matrix)
  average eigenvalue GAMMA=   2.1980
  8.0885  4.5352  2.5102  2.4867  2.4867  1.4940  1.2165  1.2165  0.6760  1.0692
  0.9561  0.9561  0.8819

 Free energy of the ion-electron system (eV)
  ---------------------------------------------------
  alpha Z        PSCENC =         0.04144063
  Ewald energy   TEWEN  =       693.94826036
  -Hartree energ DENC   =     -1173.91220800
  -exchange      EXHF   =         0.00000000
  -V(xc)+E(xc)   XCENC  =        54.71314276
  PAW double counting   =      1285.97136105    -1288.74720471
  entropy T*S    EENTRO =         0.00000000
  eigenvalues    EBANDS =      -203.01559287
  atomic energy  EATOM  =       596.16534815
  Solvation  Ediel_sol  =         0.00000000
  ---------------------------------------------------
  free energy    TOTEN  =       -34.83545263 eV

  energy without entropy =      -34.83545263  energy(sigma->0) =      -34.83545263


--------------------------------------------------------------------------------------------------------




----------------------------------------- Iteration    1(  19)  ---------------------------------------


    POTLOK:  cpu time   30.4564: real time   30.5291
    SETDIJ:  cpu time    0.0070: real time    0.0069
     EDDAV:  cpu time   91.5641: real time   91.7761
       DOS:  cpu time    0.0000: real time    0.0002
    CHARGE:  cpu time    6.9919: real time    7.0079
    MIXING:  cpu time    2.1277: real time    2.1315
    --------------------------------------------
      LOOP:  cpu time  131.1491: real time  131.4561

 eigenvalue-minimisations  :    96
 total energy-change (2. order) :-0.3214371E-03  (-0.2240102E-05)
 number of electron      16.0000010 magnetization 
 augmentation part        0.4180980 magnetization 

 Broyden mixing:
  rms(total) = 0.16452E-03    rms(broyden)= 0.16445E-03
  rms(prec ) = 0.20235E-03
  weight for this iteration     100.00

 eigenvalues of (default mixing * dielectric matrix)
  average eigenvalue GAMMA=   2.1902
  8.4343  4.8154  3.1498  2.4001  2.1039  1.6012  0.6760  1.2069  1.2069  1.2572
  0.9229  0.9229  0.9830  0.9830

 Free energy of the ion-electron system (eV)
  ---------------------------------------------------
  alpha Z        PSCENC =         0.04144063
  Ewald energy   TEWEN  =       693.94826036
  -Hartree energ DENC   =     -1173.91931812
  -exchange      EXHF   =         0.00000000
  -V(xc)+E(xc)   XCENC  =        54.71306744
  PAW double counting   =      1285.85521962    -1288.63115659
  entropy T*S    EENTRO =         0.00000000
  eigenvalues    EBANDS =      -203.00863556
  atomic energy  EATOM  =       596.16534815
  Solvation  Ediel_sol  =         0.00000000
  ---------------------------------------------------
  free energy    TOTEN  =       -34.83577407 eV

  energy without entropy =      -34.83577407  energy(sigma->0) =      -34.83577407


--------------------------------------------------------------------------------------------------------




----------------------------------------- Iteration    1(  20)  ---------------------------------------


    POTLOK:  cpu time   26.0320: real time   26.0900
    SETDIJ:  cpu time    0.0070: real time    0.0065
     EDDAV:  cpu time   86.9188: real time   87.1192
       DOS:  cpu time    0.0000: real time    0.0002
    --------------------------------------------
      LOOP:  cpu time  112.9588: real time  113.2202

 eigenvalue-minimisations  :    88
 total energy-change (2. order) :-0.7114874E-04  (-0.7155767E-06)
 number of electron      16.0000010 magnetization 
 augmentation part        0.4180980 magnetization 

 Free energy of the ion-electron system (eV)
  ---------------------------------------------------
  alpha Z        PSCENC =         0.04144063
  Ewald energy   TEWEN  =       693.94826036
  -Hartree energ DENC   =     -1173.91927334
  -exchange      EXHF   =         0.00000000
  -V(xc)+E(xc)   XCENC  =        54.71280038
  PAW double counting   =      1285.83113938    -1288.60701307
  entropy T*S    EENTRO =         0.00000000
  eigenvalues    EBANDS =      -203.00854770
  atomic energy  EATOM  =       596.16534815
  Solvation  Ediel_sol  =         0.00000000
  ---------------------------------------------------
  free energy    TOTEN  =       -34.83584522 eV

  energy without entropy =      -34.83584522  energy(sigma->0) =      -34.83584522


--------------------------------------------------------------------------------------------------------




 average (electrostatic) potential at core
  the test charge radii are     0.5201  0.6991  0.7089
  (the norm of the test charge is              1.0000)
       1 -42.8574       2 -42.8592       3 -42.5385       4 -59.9695       5 -59.9253
       6 -74.0504
 
 
 
 E-fermi :  -6.6761     XC(G=0):  -0.0956     alpha+bet : -0.0137


 k-point     1 :       0.2500    0.2500    0.2500
  band No.  band energies     occupation 
      1     -23.3852      2.00000
      2     -18.2751      2.00000
      3     -12.1164      2.00000
      4     -11.4422      2.00000
      5     -10.9604      2.00000
      6      -9.3329      2.00000
      7      -8.3733      2.00000
      8      -7.6187      2.00000
      9      -3.3335      0.00000
     10      -0.5403      0.00000
     11      -0.3620      0.00000
     12      -0.0066      0.00000

 k-point     2 :      -0.2500    0.2500    0.2500
  band No.  band energies     occupation 
      1     -23.3852      2.00000
      2     -18.2751      2.00000
      3     -12.1164      2.00000
      4     -11.4422      2.00000
      5     -10.9604      2.00000
      6      -9.3329      2.00000
      7      -8.3733      2.00000
      8      -7.6187      2.00000
      9      -3.3335      0.00000
     10      -0.5403      0.00000
     11      -0.3619      0.00000
     12      -0.0098      0.00000

 k-point     3 :       0.2500   -0.2500    0.2500
  band No.  band energies     occupation 
      1     -23.3852      2.00000
      2     -18.2751      2.00000
      3     -12.1164      2.00000
      4     -11.4422      2.00000
      5     -10.9604      2.00000
      6      -9.3329      2.00000
      7      -8.3733      2.00000
      8      -7.6187      2.00000
      9      -3.3335      0.00000
     10      -0.5403      0.00000
     11      -0.3620      0.00000
     12      -0.0079      0.00000

 k-point     4 :      -0.2500   -0.2500    0.2500
  band No.  band energies     occupation 
      1     -23.3852      2.00000
      2     -18.2751      2.00000
      3     -12.1164      2.00000
      4     -11.4422      2.00000
      5     -10.9604      2.00000
      6      -9.3329      2.00000
      7      -8.3733      2.00000
      8      -7.6187      2.00000
      9      -3.3335      0.00000
     10      -0.5403      0.00000
     11      -0.3620      0.00000
     12      -0.0075      0.00000


--------------------------------------------------------------------------------------------------------


 soft charge-density along one line, spin component           1
         0         1         2         3         4         5         6         7         8         9
 total charge-density along one line
 
 pseudopotential strength for first ion, spin component:           1
 -2.359  -4.068  -0.002   0.000  -0.001
 -4.068  -6.930  -0.005   0.001  -0.002
 -0.002  -0.005  -0.330  -0.001   0.002
  0.000   0.001  -0.001  -0.334   0.000
 -0.001  -0.002   0.002   0.000  -0.334
 total augmentation occupancy for first ion, spin component:           1
  3.570  -0.643   0.414  -0.117   0.154
 -0.643   0.133  -0.076   0.020  -0.030
  0.414  -0.076   0.050  -0.011   0.015
 -0.117   0.020  -0.011   0.012  -0.004
  0.154  -0.030   0.015  -0.004   0.014


------------------------ aborting loop because EDIFF is reached ----------------------------------------


    CHARGE:  cpu time    8.9136: real time    8.9337
    FORLOC:  cpu time    2.8876: real time    2.8936
    FORNL :  cpu time   25.5701: real time   25.6318
    STRESS:  cpu time   74.1047: real time   74.2780
    FORCOR:  cpu time   28.9026: real time   28.9657
    FORHAR:  cpu time    9.5515: real time    9.5736
    MIXING:  cpu time    2.6096: real time    2.6149
    OFIELD:  cpu time    0.0000: real time    0.0001

  FORCE on cell =-STRESS in cart. coord.  units (eV):
  Direction    XX          YY          ZZ          XY          YZ          ZX
  --------------------------------------------------------------------------------------
  Alpha Z     0.04144     0.04144     0.04144
  Ewald     390.77272   140.31121   162.86435    86.78524   105.92151    94.82788
  Hartree   512.37922   326.35354   335.18215    43.65604    41.77905    47.40054
  E(xc)     -59.47594   -59.70559   -59.62970     0.23562     0.35479     0.25970
  Local   -1064.53402  -631.08709  -660.60489  -127.07141  -139.05316  -138.53241
  n-local   -21.27024   -26.13740   -26.70042    -2.45146    -2.68274    -2.74735
  augment     0.34151     0.50586     0.49562     0.16340    -0.02031     0.17597
  Kinetic   244.09887   248.53455   247.08247     0.67451    -6.54256     0.82106
  Fock        0.00000     0.00000     0.00000     0.00000     0.00000     0.00000
  -------------------------------------------------------------------------------------
  Total       2.35356    -1.18348    -1.26898     1.99194    -0.24342     2.20539
  in kB       0.13966    -0.07023    -0.07530     0.11820    -0.01444     0.13087
  external pressure =        0.00 kB  Pullay stress =        0.00 kB


 VOLUME and BASIS-vectors are now :
 -----------------------------------------------------------------------------
  energy-cutoff  :      400.00
  volume of cell :    27000.00
      direct lattice vectors                 reciprocal lattice vectors
    30.000000000  0.000000000  0.000000000     0.033333333  0.000000000  0.000000000
     0.000000000 30.000000000  0.000000000     0.000000000  0.033333333  0.000000000
     0.000000000  0.000000000 30.000000000     0.000000000  0.000000000  0.033333333

  length of vectors
    30.000000000 30.000000000 30.000000000     0.033333333  0.033333333  0.033333333


 FORCES acting on ions
    electron-ion (+dipol)            ewald-force                    non-local-force                 convergence-correction
 -----------------------------------------------------------------------------------------------
   0.331E+02 0.558E+02 -.144E+02   -.355E+02 -.613E+02 0.157E+02   0.190E+01 0.530E+01 -.154E+01   0.125E-04 0.342E-04 0.723E-05
   0.334E+02 -.208E+02 0.535E+02   -.359E+02 0.227E+02 -.588E+02   0.193E+01 -.216E+01 0.507E+01   0.153E-04 0.595E-05 0.354E-04
   0.311E+02 -.378E+02 -.429E+02   -.321E+02 0.411E+02 0.466E+02   0.127E+01 -.360E+01 -.406E+01   0.390E-04 0.108E-04 0.710E-05
   0.100E+03 0.780E+01 0.810E+01   -.107E+03 -.754E+01 -.777E+01   0.591E+01 -.652E+00 -.769E+00   0.509E-03 0.145E-03 0.115E-03
   -.342E+02 0.130E+03 0.146E+03   0.338E+02 -.138E+03 -.154E+03   -.908E+00 0.851E+01 0.953E+01   0.188E-03 0.273E-03 0.279E-03
   -.161E+03 -.121E+03 -.134E+03   0.176E+03 0.143E+03 0.159E+03   -.125E+02 -.223E+02 -.248E+02   -.763E-03 -.554E-03 -.625E-03
 -----------------------------------------------------------------------------------------------
   0.241E+01 0.149E+02 0.166E+02   0.000E+00 0.284E-13 -.284E-13   -.241E+01 -.149E+02 -.166E+02   0.551E-06 -.853E-04 -.181E-03
 
 
 POSITION                                       TOTAL-FORCE (eV/Angst)
 -----------------------------------------------------------------------------------
     14.20060     13.93271     15.18498        -0.544794     -0.223337     -0.254908
     14.19427     15.30679     13.96742        -0.539435     -0.232591     -0.246499
     14.32624     15.63586     15.72228         0.248464     -0.287682     -0.325634
     14.56556     14.91862     14.91167        -0.261615     -0.398942     -0.442598
     16.09424     14.75133     14.71518        -1.323637      1.079090      1.213211
     16.61976     15.45436     15.49787         2.421018      0.063463      0.056428
 -----------------------------------------------------------------------------------
    total drift:                                0.006331     -0.001812     -0.005443


--------------------------------------------------------------------------------------------------------



  FREE ENERGIE OF THE ION-ELECTRON SYSTEM (eV)
  ---------------------------------------------------
  free  energy   TOTEN  =       -34.83584522 eV

  energy  without entropy=      -34.83584522  energy(sigma->0) =      -34.83584522
 


--------------------------------------------------------------------------------------------------------


    POTLOK:  cpu time   27.3458: real time   27.4071


--------------------------------------------------------------------------------------------------------


 NEB: the previous image is higher in energy: T
 NEB: the next image is higher in energy    : F
 NEB: only prev energy greater

 NEB: Tangent
 ----------------------------------------------
     -0.15890     -0.06530     -0.07420
     -0.15752     -0.06796     -0.07186
      0.07260     -0.08393     -0.09501
     -0.07637     -0.11644     -0.12909
     -0.38596      0.31519      0.35419
      0.70614      0.01844      0.01598

 NEB: forces: par spring, perp REAL, dneb     0.003258    0.002678    0.000000
 NEB: distance to prev, next image, angle between     0.246557    0.247209  166.462635
 NEB: projections on to tangent (spring, REAL)     0.003258    3.427593

 stress matrix after NEB project (eV)
      2.35356      1.99194      2.20539
      1.99194     -1.18348     -0.24342
      2.20539     -0.24342     -1.26898
  FORCES: max atom, RMS     0.003430    0.001722
  FORCE total and by dimension    0.004217    0.002956
  Stress total and by dimension    5.131454    2.353559
 
 OPT: Flag T
 OPT: FIRE Step
 OPT: FIRE, TIMESTEP      0.10000
 OPT: FIRE, alpha         0.10000


--------------------------------------------------------------------------------------------------------


    WAVPRE:  cpu time    6.9339: real time    6.9574
 FEWALD executed in parallel
    FEWALD:  cpu time    0.0000: real time    0.0003
    ORTHCH:  cpu time    6.0471: real time    6.0597
     LOOP+:  cpu time 3184.6489: real time 3192.1788


----------------------------------------- Iteration    2(   1)  ---------------------------------------


    POTLOK:  cpu time   21.6987: real time   21.7451
    SETDIJ:  cpu time    0.0070: real time    0.0063
     EDDAV:  cpu time   68.4556: real time   68.5989
       DOS:  cpu time    0.0000: real time    0.0002
    CHARGE:  cpu time    6.2800: real time    6.2938
    MIXING:  cpu time    0.6129: real time    0.6133
    --------------------------------------------
      LOOP:  cpu time   97.0562: real time   97.2598

 eigenvalue-minimisations  :    92
 total energy-change (2. order) :-0.2442556E-03  (-0.8331636E-06)
 number of electron      16.0000010 magnetization 
 augmentation part        0.4180876 magnetization 

 Broyden mixing:
  rms(total) = 0.84978E-04    rms(broyden)= 0.84415E-04
  rms(prec ) = 0.96664E-04
  weight for this iteration     100.00

 Free energy of the ion-electron system (eV)
  ---------------------------------------------------
  alpha Z        PSCENC =         0.04144063
  Ewald energy   TEWEN  =       693.94056864
  -Hartree energ DENC   =     -1173.90715835
  -exchange      EXHF   =         0.00000000
  -V(xc)+E(xc)   XCENC  =        54.71224017
  PAW double counting   =      1285.83474222    -1288.61060752
  entropy T*S    EENTRO =         0.00000000
  eigenvalues    EBANDS =      -203.01259226
  atomic energy  EATOM  =       596.16534815
  Solvation  Ediel_sol  =         0.00000000
  ---------------------------------------------------
  free energy    TOTEN  =       -34.83601833 eV

  energy without entropy =      -34.83601833  energy(sigma->0) =      -34.83601833


--------------------------------------------------------------------------------------------------------




----------------------------------------- Iteration    2(   2)  ---------------------------------------


    POTLOK:  cpu time   20.5329: real time   20.5767
    SETDIJ:  cpu time    0.0070: real time    0.0064
     EDDAV:  cpu time   69.8864: real time   70.0336
       DOS:  cpu time    0.0000: real time    0.0002
    CHARGE:  cpu time    5.7651: real time    5.7784
    MIXING:  cpu time    0.6219: real time    0.6228
    --------------------------------------------
      LOOP:  cpu time   96.8143: real time   97.0220

 eigenvalue-minimisations  :    96
 total energy-change (2. order) :-0.1060395E-04  (-0.1128178E-06)
 number of electron      16.0000010 magnetization 
 augmentation part        0.4180879 magnetization 

 Broyden mixing:
  rms(total) = 0.55724E-04    rms(broyden)= 0.55673E-04
  rms(prec ) = 0.68344E-04
  weight for this iteration     100.00

 eigenvalues of (default mixing * dielectric matrix)
  average eigenvalue GAMMA=   1.2247
  1.2247

 Free energy of the ion-electron system (eV)
  ---------------------------------------------------
  alpha Z        PSCENC =         0.04144063
  Ewald energy   TEWEN  =       693.94056864
  -Hartree energ DENC   =     -1173.90735826
  -exchange      EXHF   =         0.00000000
  -V(xc)+E(xc)   XCENC  =        54.71221332
  PAW double counting   =      1285.81859180    -1288.59444980
  entropy T*S    EENTRO =         0.00000000
  eigenvalues    EBANDS =      -203.01238340
  atomic energy  EATOM  =       596.16534815
  Solvation  Ediel_sol  =         0.00000000
  ---------------------------------------------------
  free energy    TOTEN  =       -34.83602893 eV

  energy without entropy =      -34.83602893  energy(sigma->0) =      -34.83602893


--------------------------------------------------------------------------------------------------------




----------------------------------------- Iteration    2(   3)  ---------------------------------------


    POTLOK:  cpu time   22.5536: real time   22.6021
    SETDIJ:  cpu time    0.0060: real time    0.0066
     EDDAV:  cpu time   71.0062: real time   71.1906
       DOS:  cpu time    0.0000: real time    0.0002
    CHARGE:  cpu time    6.5820: real time    6.5960
    MIXING:  cpu time    0.7379: real time    0.7392
    --------------------------------------------
      LOOP:  cpu time  100.8877: real time  101.1383

 eigenvalue-minimisations  :    88
 total energy-change (2. order) :-0.1084157E-04  (-0.2982052E-07)
 number of electron      16.0000010 magnetization 
 augmentation part        0.4180848 magnetization 

 Broyden mixing:
  rms(total) = 0.36817E-04    rms(broyden)= 0.36803E-04
  rms(prec ) = 0.49182E-04
  weight for this iteration     100.00

 eigenvalues of (default mixing * dielectric matrix)
  average eigenvalue GAMMA=   1.3959
  0.8300  1.9619

 Free energy of the ion-electron system (eV)
  ---------------------------------------------------
  alpha Z        PSCENC =         0.04144063
  Ewald energy   TEWEN  =       693.94056864
  -Hartree energ DENC   =     -1173.90755673
  -exchange      EXHF   =         0.00000000
  -V(xc)+E(xc)   XCENC  =        54.71219397
  PAW double counting   =      1285.80140978    -1288.57726124
  entropy T*S    EENTRO =         0.00000000
  eigenvalues    EBANDS =      -203.01218296
  atomic energy  EATOM  =       596.16534815
  Solvation  Ediel_sol  =         0.00000000
  ---------------------------------------------------
  free energy    TOTEN  =       -34.83603977 eV

  energy without entropy =      -34.83603977  energy(sigma->0) =      -34.83603977


--------------------------------------------------------------------------------------------------------




----------------------------------------- Iteration    2(   4)  ---------------------------------------


    POTLOK:  cpu time   21.1988: real time   21.2424
    SETDIJ:  cpu time    0.0060: real time    0.0064
     EDDAV:  cpu time   62.5835: real time   62.7153
[...]
  Solvation  Ediel_sol  =         0.00000000
  ---------------------------------------------------
  free energy    TOTEN  =       -34.85010736 eV

  energy without entropy =      -34.85010736  energy(sigma->0) =      -34.85010736


--------------------------------------------------------------------------------------------------------




----------------------------------------- Iteration   74(   2)  ---------------------------------------


    POTLOK:  cpu time   24.0793: real time   24.1254
    SETDIJ:  cpu time    0.0060: real time    0.0065
     EDDAV:  cpu time   36.8924: real time   36.9647
       DOS:  cpu time    0.0000: real time    0.0002
    CHARGE:  cpu time    5.1542: real time    5.1648
    MIXING:  cpu time    0.7409: real time    0.7413
    --------------------------------------------
      LOOP:  cpu time   66.8738: real time   67.0360

 eigenvalue-minimisations  :    48
 total energy-change (2. order) :-0.2314764E-06  (-0.4326190E-06)
 number of electron      16.0000010 magnetization 
 augmentation part        0.4184634 magnetization 

 Broyden mixing:
  rms(total) = 0.15857E-03    rms(broyden)= 0.15835E-03
  rms(prec ) = 0.16072E-03
  weight for this iteration     100.00

 eigenvalues of (default mixing * dielectric matrix)
  average eigenvalue GAMMA=   1.3797
  1.3797

 Free energy of the ion-electron system (eV)
  ---------------------------------------------------
  alpha Z        PSCENC =         0.04144063
  Ewald energy   TEWEN  =       693.91282329
  -Hartree energ DENC   =     -1173.89297334
  -exchange      EXHF   =         0.00000000
  -V(xc)+E(xc)   XCENC  =        54.71750402
  PAW double counting   =      1287.13992369    -1289.91652676
  entropy T*S    EENTRO =         0.00000000
  eigenvalues    EBANDS =      -203.01764727
  atomic energy  EATOM  =       596.16534815
  Solvation  Ediel_sol  =         0.00000000
  ---------------------------------------------------
  free energy    TOTEN  =       -34.85010759 eV

  energy without entropy =      -34.85010759  energy(sigma->0) =      -34.85010759


--------------------------------------------------------------------------------------------------------




----------------------------------------- Iteration   74(   3)  ---------------------------------------


    POTLOK:  cpu time   22.6516: real time   22.6941
    SETDIJ:  cpu time    0.0060: real time    0.0065
     EDDAV:  cpu time   36.1335: real time   36.2041
       DOS:  cpu time    0.0000: real time    0.0002
    CHARGE:  cpu time    5.0032: real time    5.0145
    MIXING:  cpu time    0.6199: real time    0.6210
    --------------------------------------------
      LOOP:  cpu time   64.4152: real time   64.5448

 eigenvalue-minimisations  :    48
 total energy-change (2. order) :-0.1115434E-06  (-0.5000292E-07)
 number of electron      16.0000010 magnetization 
 augmentation part        0.4184679 magnetization 

 Broyden mixing:
  rms(total) = 0.76617E-04    rms(broyden)= 0.76555E-04
  rms(prec ) = 0.78137E-04
  weight for this iteration     100.00

 eigenvalues of (default mixing * dielectric matrix)
  average eigenvalue GAMMA=   1.4775
  0.8469  2.1080

 Free energy of the ion-electron system (eV)
  ---------------------------------------------------
  alpha Z        PSCENC =         0.04144063
  Ewald energy   TEWEN  =       693.91282329
  -Hartree energ DENC   =     -1173.89321635
  -exchange      EXHF   =         0.00000000
  -V(xc)+E(xc)   XCENC  =        54.71750776
  PAW double counting   =      1287.14993593    -1289.92654350
  entropy T*S    EENTRO =         0.00000000
  eigenvalues    EBANDS =      -203.01740361
  atomic energy  EATOM  =       596.16534815
  Solvation  Ediel_sol  =         0.00000000
  ---------------------------------------------------
  free energy    TOTEN  =       -34.85010771 eV

  energy without entropy =      -34.85010771  energy(sigma->0) =      -34.85010771


--------------------------------------------------------------------------------------------------------




----------------------------------------- Iteration   74(   4)  ---------------------------------------


    POTLOK:  cpu time   22.8715: real time   22.9150
    SETDIJ:  cpu time    0.0070: real time    0.0063
     EDDAV:  cpu time   35.2126: real time   35.2812
       DOS:  cpu time    0.0000: real time    0.0002
    CHARGE:  cpu time    5.0332: real time    5.0432
    MIXING:  cpu time    0.6729: real time    0.6744
    --------------------------------------------
      LOOP:  cpu time   63.7993: real time   64.0277

 eigenvalue-minimisations  :    48
 total energy-change (2. order) :-0.3508671E-07  (-0.1375477E-07)
 number of electron      16.0000010 magnetization 
 augmentation part        0.4184657 magnetization 

 Broyden mixing:
  rms(total) = 0.25533E-04    rms(broyden)= 0.25467E-04
  rms(prec ) = 0.25958E-04
  weight for this iteration     100.00

 eigenvalues of (default mixing * dielectric matrix)
  average eigenvalue GAMMA=   1.4492
  2.0926  1.4755  0.7794

 Free energy of the ion-electron system (eV)
  ---------------------------------------------------
  alpha Z        PSCENC =         0.04144063
  Ewald energy   TEWEN  =       693.91282329
  -Hartree energ DENC   =     -1173.89357664
  -exchange      EXHF   =         0.00000000
  -V(xc)+E(xc)   XCENC  =        54.71752700
  PAW double counting   =      1287.16391717    -1289.94053087
  entropy T*S    EENTRO =         0.00000000
  eigenvalues    EBANDS =      -203.01705648
  atomic energy  EATOM  =       596.16534815
  Solvation  Ediel_sol  =         0.00000000
  ---------------------------------------------------
  free energy    TOTEN  =       -34.85010774 eV

  energy without entropy =      -34.85010774  energy(sigma->0) =      -34.85010774


--------------------------------------------------------------------------------------------------------




----------------------------------------- Iteration   74(   5)  ---------------------------------------


    POTLOK:  cpu time   24.1673: real time   24.2157
    SETDIJ:  cpu time    0.0070: real time    0.0064
     EDDAV:  cpu time   35.0847: real time   35.1531
       DOS:  cpu time    0.0000: real time    0.0002
    CHARGE:  cpu time    5.0432: real time    5.0539
    MIXING:  cpu time    0.6949: real time    0.6950
    --------------------------------------------
      LOOP:  cpu time   64.9981: real time   65.1284

 eigenvalue-minimisations  :    48
 total energy-change (2. order) :-0.2907882E-08  (-0.5914425E-08)
 number of electron      16.0000010 magnetization 
 augmentation part        0.4184659 magnetization 

 Broyden mixing:
  rms(total) = 0.15630E-04    rms(broyden)= 0.15612E-04
  rms(prec ) = 0.15940E-04
  weight for this iteration     100.00

 eigenvalues of (default mixing * dielectric matrix)
  average eigenvalue GAMMA=   1.5901
  2.2938  2.2938  1.0181  0.7549

 Free energy of the ion-electron system (eV)
  ---------------------------------------------------
  alpha Z        PSCENC =         0.04144063
  Ewald energy   TEWEN  =       693.91282329
  -Hartree energ DENC   =     -1173.89344623
  -exchange      EXHF   =         0.00000000
  -V(xc)+E(xc)   XCENC  =        54.71752234
  PAW double counting   =      1287.17163497    -1289.94824726
  entropy T*S    EENTRO =         0.00000000
  eigenvalues    EBANDS =      -203.01718362
  atomic energy  EATOM  =       596.16534815
  Solvation  Ediel_sol  =         0.00000000
  ---------------------------------------------------
  free energy    TOTEN  =       -34.85010774 eV

  energy without entropy =      -34.85010774  energy(sigma->0) =      -34.85010774


--------------------------------------------------------------------------------------------------------




----------------------------------------- Iteration   74(   6)  ---------------------------------------


    POTLOK:  cpu time   24.5333: real time   24.5823
    SETDIJ:  cpu time    0.0070: real time    0.0064
     EDDAV:  cpu time   34.8077: real time   34.8760
       DOS:  cpu time    0.0000: real time    0.0002
    --------------------------------------------
      LOOP:  cpu time   59.3490: real time   59.4709

 eigenvalue-minimisations  :    48
 total energy-change (2. order) :-0.5513812E-09  (-0.3566667E-08)
 number of electron      16.0000010 magnetization 
 augmentation part        0.4184659 magnetization 

 Free energy of the ion-electron system (eV)
  ---------------------------------------------------
  alpha Z        PSCENC =         0.04144063
  Ewald energy   TEWEN  =       693.91282329
  -Hartree energ DENC   =     -1173.89331409
  -exchange      EXHF   =         0.00000000
  -V(xc)+E(xc)   XCENC  =        54.71751754
  PAW double counting   =      1287.17914196    -1289.95575281
  entropy T*S    EENTRO =         0.00000000
  eigenvalues    EBANDS =      -203.01731240
  atomic energy  EATOM  =       596.16534815
  Solvation  Ediel_sol  =         0.00000000
  ---------------------------------------------------
  free energy    TOTEN  =       -34.85010774 eV

  energy without entropy =      -34.85010774  energy(sigma->0) =      -34.85010774


--------------------------------------------------------------------------------------------------------




 average (electrostatic) potential at core
  the test charge radii are     0.5201  0.6991  0.7089
  (the norm of the test charge is              1.0000)
       1 -42.8570       2 -42.8583       3 -42.5380       4 -59.9643       5 -59.9285
       6 -74.0440
 
 
 
 E-fermi :  -6.6502     XC(G=0):  -0.0606     alpha+bet : -0.0137


 k-point     1 :       0.2500    0.2500    0.2500
  band No.  band energies     occupation 
      1     -23.3792      2.00000
      2     -18.2827      2.00000
      3     -12.1183      2.00000
      4     -11.4423      2.00000
      5     -10.9625      2.00000
      6      -9.3299      2.00000
      7      -8.3719      2.00000
      8      -7.6220      2.00000
      9      -3.3295      0.00000
     10      -0.5383      0.00000
     11      -0.3671      0.00000
     12       0.0286      0.00000

 k-point     2 :      -0.2500    0.2500    0.2500
  band No.  band energies     occupation 
      1     -23.3792      2.00000
      2     -18.2827      2.00000
      3     -12.1183      2.00000
      4     -11.4423      2.00000
      5     -10.9625      2.00000
      6      -9.3299      2.00000
      7      -8.3719      2.00000
      8      -7.6220      2.00000
      9      -3.3295      0.00000
     10      -0.5383      0.00000
     11      -0.3672      0.00000
     12       0.0258      0.00000

 k-point     3 :       0.2500   -0.2500    0.2500
  band No.  band energies     occupation 
      1     -23.3792      2.00000
      2     -18.2827      2.00000
      3     -12.1183      2.00000
      4     -11.4423      2.00000
      5     -10.9625      2.00000
      6      -9.3299      2.00000
      7      -8.3719      2.00000
      8      -7.6220      2.00000
      9      -3.3295      0.00000
     10      -0.5383      0.00000
     11      -0.3671      0.00000
     12       0.0265      0.00000

 k-point     4 :      -0.2500   -0.2500    0.2500
  band No.  band energies     occupation 
      1     -23.3792      2.00000
      2     -18.2827      2.00000
      3     -12.1183      2.00000
      4     -11.4423      2.00000
      5     -10.9625      2.00000
      6      -9.3299      2.00000
      7      -8.3719      2.00000
      8      -7.6220      2.00000
      9      -3.3295      0.00000
     10      -0.5383      0.00000
     11      -0.3671      0.00000
     12       0.0264      0.00000


--------------------------------------------------------------------------------------------------------


 soft charge-density along one line, spin component           1
         0         1         2         3         4         5         6         7         8         9
 total charge-density along one line
 
 pseudopotential strength for first ion, spin component:           1
 -2.359  -4.068  -0.002   0.000  -0.001
 -4.068  -6.930  -0.005   0.001  -0.002
 -0.002  -0.005  -0.330  -0.001   0.002
  0.000   0.001  -0.001  -0.334   0.000
 -0.001  -0.002   0.002   0.000  -0.334
 total augmentation occupancy for first ion, spin component:           1
  3.569  -0.643   0.414  -0.118   0.153
 -0.643   0.133  -0.076   0.020  -0.030
  0.414  -0.076   0.050  -0.011   0.015
 -0.118   0.020  -0.011   0.012  -0.004
  0.153  -0.030   0.015  -0.004   0.014


------------------------ aborting loop because EDIFF is reached ----------------------------------------


    CHARGE:  cpu time    5.2942: real time    5.3049
    FORLOC:  cpu time    2.3306: real time    2.3345
    FORNL :  cpu time   16.6995: real time   16.7334
    STRESS:  cpu time   51.1712: real time   51.2716
    FORCOR:  cpu time   21.2838: real time   21.3243
    FORHAR:  cpu time    7.0629: real time    7.0762
    MIXING:  cpu time    0.7219: real time    0.7230
    OFIELD:  cpu time    0.0000: real time    0.0000

  FORCE on cell =-STRESS in cart. coord.  units (eV):
  Direction    XX          YY          ZZ          XY          YZ          ZX
  --------------------------------------------------------------------------------------
  Alpha Z     0.04144     0.04144     0.04144
  Ewald     392.11749   139.96681   161.82856    87.75577   105.27058    94.74681
  Hartree   512.96061   326.22922   334.70353    44.10908    41.48247    47.15249
  E(xc)     -59.47658   -59.71198   -59.63802     0.23861     0.35250     0.26124
  Local   -1066.43571  -630.61560  -659.10323  -128.42289  -138.11928  -138.15823
  n-local   -21.35564   -26.14188   -26.68167    -2.46640    -2.65512    -2.77279
  augment     0.34617     0.50318     0.49156     0.16332    -0.02193     0.17623
  Kinetic   244.19540   248.54477   247.07516     0.61737    -6.55848     0.79184
  Fock        0.00000     0.00000     0.00000     0.00000     0.00000     0.00000
  -------------------------------------------------------------------------------------
  Total       2.39319    -1.18404    -1.28267     1.99486    -0.24925     2.19759
  in kB       0.14201    -0.07026    -0.07611     0.11837    -0.01479     0.13040
  external pressure =        0.00 kB  Pullay stress =        0.00 kB


 VOLUME and BASIS-vectors are now :
 -----------------------------------------------------------------------------
  energy-cutoff  :      400.00
  volume of cell :    27000.00
      direct lattice vectors                 reciprocal lattice vectors
    30.000000000  0.000000000  0.000000000     0.033333333  0.000000000  0.000000000
     0.000000000 30.000000000  0.000000000     0.000000000  0.033333333  0.000000000
     0.000000000  0.000000000 30.000000000     0.000000000  0.000000000  0.033333333

  length of vectors
    30.000000000 30.000000000 30.000000000     0.033333333  0.033333333  0.033333333


 FORCES acting on ions
    electron-ion (+dipol)            ewald-force                    non-local-force                 convergence-correction
 -----------------------------------------------------------------------------------------------
   0.330E+02 0.558E+02 -.146E+02   -.354E+02 -.613E+02 0.159E+02   0.189E+01 0.530E+01 -.155E+01   0.214E-05 -.959E-05 0.145E-05
   0.336E+02 -.207E+02 0.534E+02   -.361E+02 0.226E+02 -.588E+02   0.195E+01 -.215E+01 0.507E+01   -.322E-05 -.235E-05 -.714E-05
   0.310E+02 -.379E+02 -.429E+02   -.320E+02 0.412E+02 0.467E+02   0.126E+01 -.360E+01 -.406E+01   -.371E-05 -.124E-05 0.895E-05
   0.100E+03 0.791E+01 0.787E+01   -.107E+03 -.765E+01 -.752E+01   0.589E+01 -.654E+00 -.791E+00   0.465E-05 -.294E-04 0.565E-05
   -.334E+02 0.130E+03 0.146E+03   0.329E+02 -.138E+03 -.154E+03   -.850E+00 0.845E+01 0.946E+01   -.239E-04 -.850E-04 -.107E-04
   -.162E+03 -.120E+03 -.133E+03   0.177E+03 0.143E+03 0.158E+03   -.127E+02 -.223E+02 -.248E+02   -.120E-03 -.799E-04 0.204E-04
 -----------------------------------------------------------------------------------------------
   0.255E+01 0.149E+02 0.167E+02   0.000E+00 0.000E+00 0.000E+00   -.254E+01 -.149E+02 -.167E+02   -.144E-03 -.207E-03 0.186E-04
 
 
 POSITION                                       TOTAL-FORCE (eV/Angst)
 -----------------------------------------------------------------------------------
     14.20141     13.93225     15.18836        -0.546126     -0.224546     -0.254799
     14.19054     15.30447     13.96879        -0.542659     -0.234341     -0.245858
     14.32779     15.63626     15.72269         0.244365     -0.289281     -0.327106
     14.56505     14.91795     14.91242        -0.263729     -0.398260     -0.442029
     16.09215     14.75351     14.71384        -1.322451      1.086691      1.226841
     16.62373     15.45522     15.49330         2.430601      0.059738      0.042951
 -----------------------------------------------------------------------------------
    total drift:                                0.005281     -0.001199     -0.005951


--------------------------------------------------------------------------------------------------------



  FREE ENERGIE OF THE ION-ELECTRON SYSTEM (eV)
  ---------------------------------------------------
  free  energy   TOTEN  =       -34.85010774 eV

  energy  without entropy=      -34.85010774  energy(sigma->0) =      -34.85010774
 
 d Force = 0.3616841E-03[ 0.362E-03, 0.362E-03]  d Energy = 0.3616875E-03-0.342E-08
 d Force =-0.3143711E-03[-0.311E-03,-0.318E-03]  d Ewald  =-0.3143711E-03-0.421E-11


--------------------------------------------------------------------------------------------------------


    POTLOK:  cpu time   20.4809: real time   20.5203


--------------------------------------------------------------------------------------------------------


 NEB: the previous image is higher in energy: T
 NEB: the next image is higher in energy    : F
 NEB: only prev energy greater

 NEB: Tangent
 ----------------------------------------------
     -0.15906     -0.06523     -0.07569
     -0.15634     -0.06720     -0.07226
      0.07033     -0.08444     -0.09533
     -0.07653     -0.11566     -0.12907
     -0.38409      0.31560      0.35757
      0.70569      0.01692      0.01478

 NEB: forces: par spring, perp REAL, dneb     0.005891    0.013006    0.000000
 NEB: distance to prev, next image, angle between     0.248560    0.249738  166.277107
 NEB: projections on to tangent (spring, REAL)     0.005891    3.441710

 stress matrix after NEB project (eV)
      2.39319      1.99486      2.19759
      1.99486     -1.18404     -0.24925
      2.19759     -0.24925     -1.28267
  FORCES: max atom, RMS     0.009983    0.005829
  FORCE total and by dimension    0.014278    0.007830
  Stress total and by dimension    5.149424    2.393190
 OPT: skip step - force has converged


--------------------------------------------------------------------------------------------------------


  
 reached required accuracy - stopping structural energy minimisation
     LOOP+:  cpu time  579.4519: real time  580.7884
    4ORBIT:  cpu time    0.0000: real time    0.0000

 total amount of memory used by VASP on root node  3203888. kBytes
========================================================================

   base      :      30000. kBytes
   nonlr-proj:        692. kBytes
   fftplans  :     924480. kBytes
   grid      :    1872000. kBytes
   one-center:         18. kBytes
   wavefun   :     376698. kBytes
 
  
  
 General timing and accounting informations for this job:
 ========================================================
  
                  Total CPU time used (sec):    49453.918
                            User time (sec):    48779.253
                          System time (sec):      674.663
                         Elapsed time (sec):    49851.771
  
                   Maximum memory used (kb):     4760232.
                   Average memory used (kb):           0.
  
                          Minor page faults:      7614018
                          Major page faults:            9
                 Voluntary context switches:         9076
