 vasp.5.4.1 24Jun15 (build Jan 13 2020 12:58:22) complex                        
  
 POSCAR found type information on POSCAR  H  C  N 
 10/POSCAR found :  3 types and       6 ions
 scaLAPACK will be used

 ----------------------------------------------------------------------------- 
|                                                                             |
|  ADVICE TO THIS USER RUNNING 'VASP/VAMP'   (HEAR YOUR MASTER'S VOICE ...):  |
|                                                                             |
|      You have a (more or less) 'small supercell' and for smaller cells      |
|      it is recommended  to use the reciprocal-space projection scheme!      |
|      The real space optimization is not  efficient for small cells and it   |
|      is also less accurate ...                                              |
|      Therefore set LREAL=.FALSE. in the  INCAR file                         |
|                                                                             |
 ----------------------------------------------------------------------------- 

 LDA part: xc-table for Pade appr. of Perdew
 POSCAR found type information on POSCAR  H  C  N 
 00/POSCAR found :  3 types and       6 ions
 POSCAR found type information on POSCAR  H  C  N 
 16/POSCAR found :  3 types and       6 ions
 Jacobian:    40.4401846379183     
 POSCAR, INCAR and KPOINTS ok, starting setup
 WARNING: small aliasing (wrap around) errors must be expected
 FFT: planning ...
 WAVECAR not read
 entering main loop
       N       E                     dE             d eps       ncg     rms          rms(c)
DAV:   1     0.112205433944E+03    0.11221E+03   -0.21283E+03   160   0.366E+02
DAV:   2    -0.226926846465E+00   -0.11243E+03   -0.10925E+03   192   0.101E+02
DAV:   3    -0.353326374524E+02   -0.35106E+02   -0.34551E+02   128   0.957E+01
DAV:   4    -0.384176185535E+02   -0.30850E+01   -0.29702E+01   100   0.313E+01
DAV:   5    -0.385138218683E+02   -0.96203E-01   -0.96126E-01   160   0.536E+00    0.107E+01
DAV:   6    -0.356088396533E+02    0.29050E+01   -0.55763E+00   128   0.166E+01    0.607E+00
DAV:   7    -0.350267796518E+02    0.58206E+00   -0.18302E+00   120   0.988E+00    0.318E+00
DAV:   8    -0.348482533344E+02    0.17853E+00   -0.41021E-01   128   0.565E+00    0.127E+00
DAV:   9    -0.348217301995E+02    0.26523E-01   -0.64466E-02   104   0.210E+00    0.371E-01
DAV:  10    -0.348184798683E+02    0.32503E-02   -0.57742E-03   108   0.711E-01    0.163E-01
DAV:  11    -0.348184612791E+02    0.18589E-04   -0.20227E-03   100   0.347E-01    0.853E-02
DAV:  12    -0.348209602946E+02   -0.24990E-02   -0.89611E-04   112   0.262E-01    0.499E-02
DAV:  13    -0.348254077496E+02   -0.44475E-02   -0.19628E-03   112   0.277E-01    0.311E-02
DAV:  14    -0.348297285448E+02   -0.43208E-02   -0.72703E-04   160   0.150E-01    0.210E-02
DAV:  15    -0.348321232546E+02   -0.23947E-02   -0.18986E-04   128   0.811E-02    0.120E-02
DAV:  16    -0.348338622821E+02   -0.17390E-02   -0.16234E-04   104   0.652E-02    0.916E-03
DAV:  17    -0.348350380060E+02   -0.11757E-02   -0.67454E-05    96   0.479E-02    0.402E-03
DAV:  18    -0.348354526336E+02   -0.41463E-03   -0.38994E-05    92   0.293E-02    0.390E-03
DAV:  19    -0.348357740708E+02   -0.32144E-03   -0.22401E-05    96   0.240E-02    0.165E-03
DAV:  20    -0.348358452195E+02   -0.71149E-04   -0.71558E-06    88   0.147E-02
   1 F= -.34835845E+02 E0= -.34835845E+02  d E =-.348358E+02
damped:  g(F)=  0.000E+00 g(S)=  0.000E+00 dE (1.order)= 0.000E+00
 bond charge predicted
       N       E                     dE             d eps       ncg     rms          rms(c)
DAV:   1    -0.348360183263E+02   -0.24426E-03   -0.83316E-06    92   0.237E-02    0.850E-04
DAV:   2    -0.348360289303E+02   -0.10604E-04   -0.11282E-06    96   0.724E-03    0.557E-04
DAV:   3    -0.348360397718E+02   -0.10842E-04   -0.29821E-07    88   0.299E-03    0.368E-04
DAV:   4    -0.348360512845E+02   -0.11513E-04   -0.97403E-08    80   0.188E-03    0.213E-04
DAV:   5    -0.348360615599E+02   -0.10275E-04   -0.35458E-08    72   0.115E-03    0.127E-04
DAV:   6    -0.348360709188E+02   -0.93589E-05   -0.24636E-08    64   0.975E-04
   2 F= -.34836071E+02 E0= -.34836071E+02  d E =-.225699E-03
damped:  g(F)=  0.000E+00 g(S)=  0.000E+00 dE (1.order)= 0.000E+00
 bond charge predicted
       N       E                     dE             d eps       ncg     rms          rms(c)
DAV:   1    -0.348362967067E+02   -0.23515E-03   -0.11670E-05    92   0.324E-02    0.142E-03
DAV:   2    -0.348362971942E+02   -0.48744E-06   -0.47848E-07    96   0.733E-03    0.682E-04
DAV:   3    -0.348362975550E+02   -0.36082E-06   -0.62299E-08    64   0.240E-03    0.424E-04
DAV:   4    -0.348362980973E+02   -0.54228E-06   -0.16610E-08    48   0.112E-03    0.166E-04
DAV:   5    -0.348362985049E+02   -0.40766E-06   -0.76885E-09    64   0.580E-04    0.789E-05
DAV:   6    -0.348362988059E+02   -0.30099E-06   -0.53729E-09    48   0.315E-04
   3 F= -.34836299E+02 E0= -.34836299E+02  d E =-.227887E-03
damped:  g(F)=  0.000E+00 g(S)=  0.000E+00 dE (1.order)= 0.000E+00
 bond charge predicted
       N       E                     dE             d eps       ncg     rms          rms(c)
DAV:   1    -0.348366346243E+02   -0.33612E-03   -0.23898E-05    64   0.463E-02    0.202E-03
DAV:   2    -0.348366347359E+02   -0.11154E-06   -0.94515E-07    48   0.103E-02    0.948E-04
DAV:   3    -0.348366348401E+02   -0.10426E-06   -0.12869E-07    48   0.334E-03    0.559E-04
DAV:   4    -0.348366349730E+02   -0.13293E-06   -0.35511E-08    48   0.150E-03    0.205E-04
DAV:   5    -0.348366350700E+02   -0.96996E-07   -0.15114E-08    64   0.719E-04    0.957E-05
DAV:   6    -0.348366351420E+02   -0.71928E-07   -0.89940E-09    48   0.379E-04
   4 F= -.34836635E+02 E0= -.34836635E+02  d E =-.336336E-03
damped:  g(F)=  0.000E+00 g(S)=  0.000E+00 dE (1.order)= 0.000E+00
 bond charge predicted
       N       E                     dE             d eps       ncg     rms          rms(c)
DAV:   1    -0.348370729309E+02   -0.43786E-03   -0.42008E-05    52   0.613E-02    0.242E-03
DAV:   2    -0.348370729741E+02   -0.43230E-07   -0.16381E-06    48   0.131E-02    0.120E-03
DAV:   3    -0.348370730491E+02   -0.74996E-07   -0.22304E-07    48   0.427E-03    0.539E-04
DAV:   4    -0.348370730883E+02   -0.39159E-07   -0.57758E-08    48   0.197E-03    0.229E-04
DAV:   5    -0.348370731176E+02   -0.29309E-07   -0.21464E-08    48   0.923E-04    0.105E-04
DAV:   6    -0.348370731445E+02   -0.26954E-07   -0.12683E-08    64   0.512E-04
   5 F= -.34837073E+02 E0= -.34837073E+02  d E =-.438003E-03
damped:  g(F)=  0.000E+00 g(S)=  0.000E+00 dE (1.order)= 0.000E+00
 bond charge predicted
       N       E                     dE             d eps       ncg     rms          rms(c)
DAV:   1    -0.348376062125E+02   -0.53309E-03   -0.61083E-05    48   0.740E-02    0.318E-03
DAV:   2    -0.348376061979E+02    0.14558E-07   -0.24007E-06    72   0.164E-02    0.151E-03
DAV:   3    -0.348376062774E+02   -0.79429E-07   -0.31523E-07    48   0.525E-03    0.854E-04
DAV:   4    -0.348376063232E+02   -0.45864E-07   -0.85671E-08    48   0.236E-03    0.300E-04
DAV:   5    -0.348376063321E+02   -0.88925E-08   -0.36701E-08    48   0.112E-03    0.146E-04
DAV:   6    -0.348376063377E+02   -0.55445E-08   -0.22809E-08    48   0.608E-04
   6 F= -.34837606E+02 E0= -.34837606E+02  d E =-.533193E-03
damped:  g(F)=  0.000E+00 g(S)=  0.000E+00 dE (1.order)= 0.000E+00
 bond charge predicted
       N       E                     dE             d eps       ncg     rms          rms(c)
DAV:   1    -0.348382338537E+02   -0.62752E-03   -0.94406E-05    64   0.923E-02    0.384E-03
DAV:   2    -0.348382338417E+02    0.11943E-07   -0.38282E-06    64   0.207E-02    0.186E-03
DAV:   3    -0.348382339523E+02   -0.11054E-06   -0.49487E-07    48   0.658E-03    0.106E-03
DAV:   4    -0.348382340091E+02   -0.56863E-07   -0.13309E-07    48   0.298E-03    0.388E-04
DAV:   5    -0.348382340180E+02   -0.88896E-08   -0.53862E-08    48   0.144E-03    0.193E-04
DAV:   6    -0.348382340236E+02   -0.55906E-08   -0.29613E-08    48   0.789E-04
   7 F= -.34838234E+02 E0= -.34838234E+02  d E =-.627686E-03
damped:  g(F)=  0.000E+00 g(S)=  0.000E+00 dE (1.order)= 0.000E+00
 bond charge predicted
       N       E                     dE             d eps       ncg     rms          rms(c)
DAV:   1    -0.348390347250E+02   -0.80071E-03   -0.18449E-04    96   0.127E-01    0.467E-03
DAV:   2    -0.348390343504E+02    0.37460E-06   -0.19424E-06    64   0.125E-02    0.249E-03
DAV:   3    -0.348390344860E+02   -0.13557E-06   -0.34391E-07    48   0.555E-03    0.993E-04
DAV:   4    -0.348390345294E+02   -0.43464E-07   -0.97917E-08    48   0.272E-03    0.350E-04
DAV:   5    -0.348390345439E+02   -0.14461E-07   -0.38705E-08    48   0.121E-03    0.157E-04
DAV:   6    -0.348390345591E+02   -0.15239E-07   -0.25753E-08    48   0.677E-04
   8 F= -.34839035E+02 E0= -.34839035E+02  d E =-.800536E-03
damped:  g(F)=  0.000E+00 g(S)=  0.000E+00 dE (1.order)= 0.000E+00
 bond charge predicted
       N       E                     dE             d eps       ncg     rms          rms(c)
DAV:   1    -0.348400568501E+02   -0.10223E-02   -0.35392E-04    96   0.175E-01    0.671E-03
DAV:   2    -0.348400560585E+02    0.79158E-06   -0.40556E-06    64   0.194E-02    0.359E-03
DAV:   3    -0.348400562088E+02   -0.15032E-06   -0.63841E-07    64   0.788E-03    0.194E-03
DAV:   4    -0.348400563950E+02   -0.18620E-06   -0.22223E-07    48   0.419E-03    0.593E-04
DAV:   5    -0.348400564151E+02   -0.20049E-07   -0.61527E-08    48   0.179E-03    0.307E-04
DAV:   6    -0.348400564371E+02   -0.21982E-07   -0.28473E-08    48   0.864E-04
   9 F= -.34840056E+02 E0= -.34840056E+02  d E =-.102188E-02
damped:  g(F)=  0.000E+00 g(S)=  0.000E+00 dE (1.order)= 0.000E+00
 bond charge predicted
       N       E                     dE             d eps       ncg     rms          rms(c)
DAV:   1    -0.348413653575E+02   -0.13089E-02   -0.65693E-04    96   0.239E-01    0.814E-03
DAV:   2    -0.348413645306E+02    0.82684E-06   -0.70723E-06    56   0.234E-02    0.455E-03
DAV:   3    -0.348413649370E+02   -0.40641E-06   -0.13213E-06    48   0.110E-02    0.133E-03
DAV:   4    -0.348413650070E+02   -0.69999E-07   -0.29779E-07    48   0.509E-03    0.679E-04
DAV:   5    -0.348413650411E+02   -0.34045E-07   -0.78904E-08    48   0.219E-03    0.317E-04
DAV:   6    -0.348413650774E+02   -0.36305E-07   -0.41940E-08    48   0.135E-03
  10 F= -.34841365E+02 E0= -.34841365E+02  d E =-.130864E-02
damped:  g(F)=  0.000E+00 g(S)=  0.000E+00 dE (1.order)= 0.000E+00
 bond charge predicted
       N       E                     dE             d eps       ncg     rms          rms(c)
DAV:   1    -0.348429834018E+02   -0.16184E-02   -0.14897E-03    96   0.356E-01    0.151E-02
DAV:   2    -0.348429793286E+02    0.40733E-05   -0.20617E-05    64   0.463E-02    0.831E-03
DAV:   3    -0.348429792597E+02    0.68905E-07   -0.36107E-06    64   0.193E-02    0.487E-03
DAV:   4    -0.348429800430E+02   -0.78338E-06   -0.19635E-06    64   0.126E-02    0.151E-03
DAV:   5    -0.348429801131E+02   -0.70029E-07   -0.31793E-07    48   0.529E-03    0.815E-04
DAV:   6    -0.348429801869E+02   -0.73846E-07   -0.67074E-08    48   0.235E-03
  11 F= -.34842980E+02 E0= -.34842980E+02  d E =-.161511E-02
damped:  g(F)=  0.000E+00 g(S)=  0.000E+00 dE (1.order)= 0.000E+00
 bond charge predicted
       N       E                     dE             d eps       ncg     rms          rms(c)
DAV:   1    -0.348429882755E+02   -0.81624E-05   -0.37345E-04    96   0.174E-01    0.961E-03
DAV:   2    -0.348429866887E+02    0.15868E-05   -0.60418E-06    64   0.263E-02    0.495E-03
DAV:   3    -0.348429864237E+02    0.26502E-06   -0.15165E-06    64   0.129E-02    0.249E-03
DAV:   4    -0.348429866295E+02   -0.20585E-06   -0.91931E-07    64   0.842E-03    0.820E-04
DAV:   5    -0.348429867022E+02   -0.72648E-07   -0.14133E-07    48   0.353E-03    0.421E-04
DAV:   6    -0.348429867700E+02   -0.67857E-07   -0.42917E-08    48   0.183E-03
  12 F= -.34842987E+02 E0= -.34842987E+02  d E =-.658312E-05
damped:  g(F)=  0.000E+00 g(S)=  0.000E+00 dE (1.order)= 0.000E+00
 bond charge predicted
       N       E                     dE             d eps       ncg     rms          rms(c)
DAV:   1    -0.348429947178E+02   -0.80157E-05   -0.11014E-06    48   0.970E-03    0.403E-04
DAV:   2    -0.348429947460E+02   -0.28180E-07   -0.71238E-08    48   0.240E-03    0.237E-04
DAV:   3    -0.348429947686E+02   -0.22579E-07   -0.22208E-08    48   0.741E-04    0.151E-04
DAV:   4    -0.348429948112E+02   -0.42611E-07   -0.22028E-08    48   0.549E-04    0.494E-05
DAV:   5    -0.348429948238E+02   -0.12599E-07   -0.20099E-08    48   0.249E-04    0.366E-05
DAV:   6    -0.348429948484E+02   -0.24559E-07   -0.21103E-08    48   0.118E-04
  13 F= -.34842995E+02 E0= -.34842995E+02  d E =-.807834E-05
damped:  g(F)=  0.000E+00 g(S)=  0.000E+00 dE (1.order)= 0.000E+00
 bond charge predicted
       N       E                     dE             d eps       ncg     rms          rms(c)
DAV:   1    -0.348430108734E+02   -0.16050E-04   -0.39475E-06    48   0.183E-02    0.743E-04
DAV:   2    -0.348430108925E+02   -0.19182E-07   -0.21078E-07    48   0.442E-03    0.431E-04
DAV:   3    -0.348430109024E+02   -0.98669E-08   -0.40686E-08    48   0.135E-03    0.276E-04
DAV:   4    -0.348430109184E+02   -0.15937E-07   -0.33719E-08    48   0.976E-04    0.879E-05
DAV:   5    -0.348430109205E+02   -0.21054E-08   -0.26295E-08    48   0.433E-04    0.624E-05
DAV:   6    -0.348430109255E+02   -0.50097E-08   -0.25331E-08    48   0.194E-04
  14 F= -.34843011E+02 E0= -.34843011E+02  d E =-.160771E-04
damped:  g(F)=  0.000E+00 g(S)=  0.000E+00 dE (1.order)= 0.000E+00
 bond charge predicted
       N       E                     dE             d eps       ncg     rms          rms(c)
DAV:   1    -0.348430348511E+02   -0.23931E-04   -0.62959E-06    48   0.231E-02    0.841E-04
DAV:   2    -0.348430348706E+02   -0.19473E-07   -0.32433E-07    48   0.554E-03    0.501E-04
DAV:   3    -0.348430348768E+02   -0.62430E-08   -0.54968E-08    48   0.168E-03    0.329E-04
DAV:   4    -0.348430348854E+02   -0.85804E-08   -0.39465E-08    48   0.113E-03    0.107E-04
DAV:   5    -0.348430348844E+02    0.10664E-08   -0.29293E-08    48   0.508E-04    0.753E-05
DAV:   6    -0.348430348849E+02   -0.50909E-09   -0.27155E-08    48   0.228E-04
  15 F= -.34843035E+02 E0= -.34843035E+02  d E =-.239594E-04
damped:  g(F)=  0.000E+00 g(S)=  0.000E+00 dE (1.order)= 0.000E+00
 bond charge predicted
       N       E                     dE             d eps       ncg     rms          rms(c)
DAV:   1    -0.348430659286E+02   -0.31044E-04   -0.69853E-06    48   0.241E-02    0.708E-04
DAV:   2    -0.348430659519E+02   -0.23339E-07   -0.35228E-07    48   0.573E-03    0.434E-04
DAV:   3    -0.348430659597E+02   -0.77803E-08   -0.60723E-08    48   0.170E-03    0.284E-04
DAV:   4    -0.348430659660E+02   -0.62876E-08   -0.37049E-08    48   0.932E-04    0.978E-05
DAV:   5    -0.348430659651E+02    0.93564E-09   -0.29901E-08    48   0.435E-04    0.665E-05
DAV:   6    -0.348430659650E+02    0.58435E-10   -0.27869E-08    48   0.210E-04
  16 F= -.34843066E+02 E0= -.34843066E+02  d E =-.310801E-04
damped:  g(F)=  0.000E+00 g(S)=  0.000E+00 dE (1.order)= 0.000E+00
 bond charge predicted
       N       E                     dE             d eps       ncg     rms          rms(c)
DAV:   1    -0.348431026494E+02   -0.36684E-04   -0.79429E-06    48   0.256E-02    0.641E-04
DAV:   2    -0.348431026760E+02   -0.26633E-07   -0.38942E-07    48   0.603E-03    0.385E-04
DAV:   3    -0.348431026861E+02   -0.10022E-07   -0.66445E-08    48   0.173E-03    0.178E-04
DAV:   4    -0.348431026886E+02   -0.25054E-08   -0.36523E-08    48   0.788E-04    0.561E-05
DAV:   5    -0.348431026887E+02   -0.10618E-09   -0.30160E-08    48   0.377E-04    0.411E-05
DAV:   6    -0.348431026886E+02    0.70031E-10   -0.28285E-08    48   0.210E-04
  17 F= -.34843103E+02 E0= -.34843103E+02  d E =-.367236E-04
damped:  g(F)=  0.000E+00 g(S)=  0.000E+00 dE (1.order)= 0.000E+00
 bond charge predicted
       N       E                     dE             d eps       ncg     rms          rms(c)
DAV:   1    -0.348431438941E+02   -0.41205E-04   -0.10753E-05    48   0.301E-02    0.776E-04
DAV:   2    -0.348431439236E+02   -0.29574E-07   -0.51686E-07    48   0.706E-03    0.475E-04
DAV:   3    -0.348431439301E+02   -0.64790E-08   -0.83116E-08    48   0.209E-03    0.267E-04
DAV:   4    -0.348431439336E+02   -0.35011E-08   -0.41163E-08    48   0.100E-03    0.900E-05
DAV:   5    -0.348431439344E+02   -0.75602E-09   -0.31379E-08    48   0.475E-04    0.565E-05
DAV:   6    -0.348431439347E+02   -0.32446E-09   -0.28692E-08    48   0.261E-04
  18 F= -.34843144E+02 E0= -.34843144E+02  d E =-.412461E-04
damped:  g(F)=  0.000E+00 g(S)=  0.000E+00 dE (1.order)= 0.000E+00
 bond charge predicted
       N       E                     dE             d eps       ncg     rms          rms(c)
DAV:   1    -0.348431944092E+02   -0.50475E-04   -0.17996E-05    48   0.392E-02    0.107E-03
DAV:   2    -0.348431944534E+02   -0.44173E-07   -0.84732E-07    48   0.917E-03    0.661E-04
DAV:   3    -0.348431944604E+02   -0.70634E-08   -0.12079E-07    48   0.275E-03    0.405E-04
DAV:   4    -0.348431944664E+02   -0.60047E-08   -0.52974E-08    48   0.142E-03    0.129E-04
DAV:   5    -0.348431944679E+02   -0.14895E-08   -0.34498E-08    48   0.663E-04    0.864E-05
DAV:   6    -0.348431944686E+02   -0.69895E-09   -0.29462E-08    48   0.348E-04
  19 F= -.34843194E+02 E0= -.34843194E+02  d E =-.505339E-04
damped:  g(F)=  0.000E+00 g(S)=  0.000E+00 dE (1.order)= 0.000E+00
 bond charge predicted
       N       E                     dE             d eps       ncg     rms          rms(c)
DAV:   1    -0.348432561879E+02   -0.61720E-04   -0.25700E-05    48   0.465E-02    0.119E-03
DAV:   2    -0.348432562623E+02   -0.74434E-07   -0.11964E-06    48   0.109E-02    0.730E-04
DAV:   3    -0.348432562808E+02   -0.18482E-07   -0.15947E-07    48   0.321E-03    0.406E-04
DAV:   4    -0.348432562897E+02   -0.88660E-08   -0.59916E-08    48   0.153E-03    0.138E-04
DAV:   5    -0.348432562910E+02   -0.13233E-08   -0.36962E-08    48   0.728E-04    0.873E-05
DAV:   6    -0.348432562916E+02   -0.53774E-09   -0.30574E-08    48   0.401E-04
  20 F= -.34843256E+02 E0= -.34843256E+02  d E =-.618229E-04
damped:  g(F)=  0.000E+00 g(S)=  0.000E+00 dE (1.order)= 0.000E+00
 bond charge predicted
       N       E                     dE             d eps       ncg     rms          rms(c)
DAV:   1    -0.348433288948E+02   -0.72604E-04   -0.34689E-05    48   0.534E-02    0.134E-03
DAV:   2    -0.348433290101E+02   -0.11535E-06   -0.16086E-06    48   0.126E-02    0.804E-04
DAV:   3    -0.348433290510E+02   -0.40895E-07   -0.19829E-07    48   0.361E-03    0.378E-04
DAV:   4    -0.348433290619E+02   -0.10888E-07   -0.67720E-08    48   0.164E-03    0.121E-04
DAV:   5    -0.348433290620E+02   -0.65938E-10   -0.39955E-08    48   0.784E-04    0.877E-05
DAV:   6    -0.348433290614E+02    0.58321E-09   -0.31707E-08    48   0.436E-04
  21 F= -.34843329E+02 E0= -.34843329E+02  d E =-.727698E-04
damped:  g(F)=  0.000E+00 g(S)=  0.000E+00 dE (1.order)= 0.000E+00
 bond charge predicted
       N       E                     dE             d eps       ncg     rms          rms(c)
DAV:   1    -0.348434129171E+02   -0.83855E-04   -0.51606E-05    48   0.653E-02    0.179E-03
DAV:   2    -0.348434130801E+02   -0.16301E-06   -0.24030E-06    48   0.154E-02    0.108E-03
DAV:   3    -0.348434131287E+02   -0.48640E-07   -0.28097E-07    48   0.453E-03    0.654E-04
DAV:   4    -0.348434131573E+02   -0.28576E-07   -0.93020E-08    48   0.224E-03    0.218E-04
DAV:   5    -0.348434131569E+02    0.40995E-09   -0.47062E-08    48   0.106E-03    0.148E-04
DAV:   6    -0.348434131557E+02    0.11555E-08   -0.33452E-08    48   0.551E-04
  22 F= -.34843413E+02 E0= -.34843413E+02  d E =-.840943E-04
damped:  g(F)=  0.000E+00 g(S)=  0.000E+00 dE (1.order)= 0.000E+00
 bond charge predicted
       N       E                     dE             d eps       ncg     rms          rms(c)
DAV:   1    -0.348435110963E+02   -0.97939E-04   -0.65486E-05    48   0.736E-02    0.190E-03
DAV:   2    -0.348435113118E+02   -0.21548E-06   -0.30292E-06    48   0.174E-02    0.114E-03
DAV:   3    -0.348435113827E+02   -0.70927E-07   -0.34951E-07    48   0.502E-03    0.601E-04
DAV:   4    -0.348435114087E+02   -0.25990E-07   -0.10480E-07    48   0.234E-03    0.192E-04
DAV:   5    -0.348435114095E+02   -0.77011E-09   -0.51217E-08    48   0.112E-03    0.136E-04
DAV:   6    -0.348435114088E+02    0.71714E-09   -0.35221E-08    48   0.608E-04
  23 F= -.34843511E+02 E0= -.34843511E+02  d E =-.982530E-04
damped:  g(F)=  0.000E+00 g(S)=  0.000E+00 dE (1.order)= 0.000E+00
 bond charge predicted
       N       E                     dE             d eps       ncg     rms          rms(c)
DAV:   1    -0.348436193634E+02   -0.10795E-03   -0.72715E-05    48   0.782E-02    0.197E-03
DAV:   2    -0.348436195961E+02   -0.23267E-06   -0.33480E-06    48   0.184E-02    0.119E-03
DAV:   3    -0.348436196602E+02   -0.64077E-07   -0.39696E-07    48   0.535E-03    0.615E-04
DAV:   4    -0.348436196842E+02   -0.24073E-07   -0.11541E-07    48   0.247E-03    0.211E-04
DAV:   5    -0.348436196866E+02   -0.23576E-08   -0.54065E-08    48   0.119E-03    0.135E-04
DAV:   6    -0.348436196878E+02   -0.11714E-08   -0.36240E-08    48   0.652E-04
  24 F= -.34843620E+02 E0= -.34843620E+02  d E =-.108279E-03
damped:  g(F)=  0.000E+00 g(S)=  0.000E+00 dE (1.order)= 0.000E+00
 bond charge predicted
       N       E                     dE             d eps       ncg     rms          rms(c)
DAV:   1    -0.348437667322E+02   -0.14705E-03   -0.80058E-05    48   0.825E-02    0.215E-03
DAV:   2    -0.348437669706E+02   -0.23839E-06   -0.36587E-06    48   0.192E-02    0.131E-03
DAV:   3    -0.348437670378E+02   -0.67164E-07   -0.44081E-07    48   0.569E-03    0.662E-04
DAV:   4    -0.348437670632E+02   -0.25404E-07   -0.12791E-07    48   0.266E-03    0.230E-04
DAV:   5    -0.348437670664E+02   -0.32867E-08   -0.57023E-08    48   0.127E-03    0.143E-04
DAV:   6    -0.348437670685E+02   -0.20987E-08   -0.37209E-08    48   0.712E-04
  25 F= -.34843767E+02 E0= -.34843767E+02  d E =-.147381E-03
damped:  g(F)=  0.000E+00 g(S)=  0.000E+00 dE (1.order)= 0.000E+00
 bond charge predicted
       N       E                     dE             d eps       ncg     rms          rms(c)
DAV:   1    -0.348437699704E+02   -0.29040E-05   -0.41361E-07    48   0.573E-03    0.291E-04
DAV:   2    -0.348437699750E+02   -0.45341E-08   -0.46239E-08    48   0.138E-03    0.157E-04
DAV:   3    -0.348437699778E+02   -0.28829E-08   -0.29951E-08    48   0.440E-04    0.936E-05
DAV:   4    -0.348437699825E+02   -0.46357E-08   -0.29472E-08    48   0.337E-04    0.289E-05
DAV:   5    -0.348437699840E+02   -0.15157E-08   -0.28421E-08    48   0.152E-04    0.206E-05
DAV:   6    -0.348437699868E+02   -0.27931E-08   -0.28119E-08    48   0.694E-05
  26 F= -.34843770E+02 E0= -.34843770E+02  d E =-.291825E-05
damped:  g(F)=  0.000E+00 g(S)=  0.000E+00 dE (1.order)= 0.000E+00
 bond charge predicted
       N       E                     dE             d eps       ncg     rms          rms(c)
DAV:   1    -0.348437802336E+02   -0.10250E-04   -0.11961E-06    48   0.997E-03    0.514E-04
DAV:   2    -0.348437802394E+02   -0.57187E-08   -0.82528E-08    48   0.242E-03    0.277E-04
DAV:   3    -0.348437802424E+02   -0.30193E-08   -0.32936E-08    48   0.763E-04    0.164E-04
DAV:   4    -0.348437802465E+02   -0.41739E-08   -0.31528E-08    48   0.593E-04    0.507E-05
DAV:   5    -0.348437802465E+02    0.37744E-10   -0.28316E-08    48   0.256E-04    0.364E-05
DAV:   6    -0.348437802472E+02   -0.70440E-09   -0.27703E-08    48   0.110E-04
  27 F= -.34843780E+02 E0= -.34843780E+02  d E =-.102604E-04
damped:  g(F)=  0.000E+00 g(S)=  0.000E+00 dE (1.order)= 0.000E+00
 bond charge predicted
       N       E                     dE             d eps       ncg     rms          rms(c)
DAV:   1    -0.348437985335E+02   -0.18287E-04   -0.14607E-06    48   0.111E-02    0.547E-04
DAV:   2    -0.348437985383E+02   -0.48205E-08   -0.96653E-08    48   0.272E-03    0.299E-04
DAV:   3    -0.348437985405E+02   -0.22364E-08   -0.33806E-08    48   0.850E-04    0.183E-04
DAV:   4    -0.348437985431E+02   -0.26166E-08   -0.31727E-08    48   0.652E-04    0.565E-05
DAV:   5    -0.348437985426E+02    0.53137E-09   -0.28146E-08    48   0.284E-04    0.404E-05
DAV:   6    -0.348437985424E+02    0.16598E-09   -0.27407E-08    48   0.124E-04
  28 F= -.34843799E+02 E0= -.34843799E+02  d E =-.182952E-04
damped:  g(F)=  0.000E+00 g(S)=  0.000E+00 dE (1.order)= 0.000E+00
 bond charge predicted
       N       E                     dE             d eps       ncg     rms          rms(c)
DAV:   1    -0.348438238983E+02   -0.25356E-04   -0.11153E-06    48   0.973E-03    0.388E-04
DAV:   2    -0.348438239024E+02   -0.40866E-08   -0.79510E-08    48   0.237E-03    0.224E-04
DAV:   3    -0.348438239046E+02   -0.22465E-08   -0.32351E-08    48   0.734E-04    0.148E-04
DAV:   4    -0.348438239062E+02   -0.16255E-08   -0.29311E-08    48   0.467E-04    0.491E-05
DAV:   5    -0.348438239057E+02    0.53569E-09   -0.27608E-08    48   0.214E-04    0.330E-05
DAV:   6    -0.348438239058E+02   -0.43201E-10   -0.27133E-08    48   0.956E-05
  29 F= -.34843824E+02 E0= -.34843824E+02  d E =-.253633E-04
damped:  g(F)=  0.000E+00 g(S)=  0.000E+00 dE (1.order)= 0.000E+00
 bond charge predicted
       N       E                     dE             d eps       ncg     rms          rms(c)
DAV:   1    -0.348438563415E+02   -0.32436E-04   -0.14988E-06    48   0.114E-02    0.341E-04
DAV:   2    -0.348438563461E+02   -0.46123E-08   -0.94958E-08    48   0.268E-03    0.197E-04
DAV:   3    -0.348438563487E+02   -0.25652E-08   -0.34468E-08    48   0.804E-04    0.999E-05
DAV:   4    -0.348438563493E+02   -0.63824E-09   -0.28736E-08    48   0.375E-04    0.321E-05
DAV:   5    -0.348438563492E+02    0.17144E-09   -0.27430E-08    48   0.183E-04    0.204E-05
DAV:   6    -0.348438563490E+02    0.10436E-09   -0.27008E-08    48   0.101E-04
  30 F= -.34843856E+02 E0= -.34843856E+02  d E =-.324433E-04
damped:  g(F)=  0.000E+00 g(S)=  0.000E+00 dE (1.order)= 0.000E+00
 bond charge predicted
       N       E                     dE             d eps       ncg     rms          rms(c)
DAV:   1    -0.348438964584E+02   -0.40109E-04   -0.34723E-06    48   0.175E-02    0.496E-04
DAV:   2    -0.348438964658E+02   -0.74535E-08   -0.18554E-07    48   0.408E-03    0.297E-04
DAV:   3    -0.348438964682E+02   -0.24002E-08   -0.45505E-08    48   0.124E-03    0.145E-04
DAV:   4    -0.348438964692E+02   -0.97930E-09   -0.31262E-08    48   0.579E-04    0.539E-05
DAV:   5    -0.348438964693E+02   -0.13415E-09   -0.28012E-08    48   0.282E-04    0.296E-05
DAV:   6    -0.348438964697E+02   -0.34379E-09   -0.27177E-08    48   0.158E-04
  31 F= -.34843896E+02 E0= -.34843896E+02  d E =-.401206E-04
damped:  g(F)=  0.000E+00 g(S)=  0.000E+00 dE (1.order)= 0.000E+00
 bond charge predicted
       N       E                     dE             d eps       ncg     rms          rms(c)
DAV:   1    -0.348439516834E+02   -0.55214E-04   -0.10012E-05    48   0.298E-02    0.847E-04
DAV:   2    -0.348439517067E+02   -0.23252E-07   -0.48905E-07    48   0.695E-03    0.511E-04
DAV:   3    -0.348439517132E+02   -0.64776E-08   -0.82513E-08    48   0.214E-03    0.288E-04
DAV:   4    -0.348439517169E+02   -0.37790E-08   -0.40504E-08    48   0.103E-03    0.104E-04
DAV:   5    -0.348439517174E+02   -0.48226E-09   -0.30544E-08    48   0.495E-04    0.555E-05
DAV:   6    -0.348439517178E+02   -0.41632E-09   -0.27952E-08    48   0.270E-04
  32 F= -.34843952E+02 E0= -.34843952E+02  d E =-.552482E-04
damped:  g(F)=  0.000E+00 g(S)=  0.000E+00 dE (1.order)= 0.000E+00
 bond charge predicted
       N       E                     dE             d eps       ncg     rms          rms(c)
DAV:   1    -0.348440271600E+02   -0.75443E-04   -0.26504E-05    48   0.484E-02    0.134E-03
DAV:   2    -0.348440272335E+02   -0.73578E-07   -0.12630E-06    48   0.113E-02    0.804E-04
DAV:   3    -0.348440272561E+02   -0.22566E-07   -0.17653E-07    48   0.348E-03    0.450E-04
DAV:   4    -0.348440272668E+02   -0.10732E-07   -0.62846E-08    48   0.164E-03    0.165E-04
DAV:   5    -0.348440272682E+02   -0.13331E-08   -0.37039E-08    48   0.795E-04    0.858E-05
DAV:   6    -0.348440272687E+02   -0.49113E-09   -0.30113E-08    48   0.435E-04
  33 F= -.34844027E+02 E0= -.34844027E+02  d E =-.755508E-04
damped:  g(F)=  0.000E+00 g(S)=  0.000E+00 dE (1.order)= 0.000E+00
 bond charge predicted
       N       E                     dE             d eps       ncg     rms          rms(c)
DAV:   1    -0.348441310816E+02   -0.10381E-03   -0.67499E-05    48   0.767E-02    0.209E-03
DAV:   2    -0.348441313007E+02   -0.21912E-06   -0.32146E-06    48   0.181E-02    0.123E-03
DAV:   3    -0.348441313795E+02   -0.78796E-07   -0.40241E-07    48   0.547E-03    0.596E-04
DAV:   4    -0.348441314032E+02   -0.23678E-07   -0.11528E-07    48   0.250E-03    0.198E-04
DAV:   5    -0.348441314049E+02   -0.16751E-08   -0.53535E-08    48   0.122E-03    0.118E-04
DAV:   6    -0.348441314052E+02   -0.27080E-09   -0.35560E-08    48   0.678E-04
  34 F= -.34844131E+02 E0= -.34844131E+02  d E =-.104137E-03
damped:  g(F)=  0.000E+00 g(S)=  0.000E+00 dE (1.order)= 0.000E+00
 bond charge predicted
       N       E                     dE             d eps       ncg     rms          rms(c)
DAV:   1    -0.348442697274E+02   -0.13832E-03   -0.15065E-04    96   0.112E-01    0.314E-03
DAV:   2    -0.348442696756E+02    0.51794E-07   -0.16709E-06    48   0.111E-02    0.188E-03
DAV:   3    -0.348442697944E+02   -0.11884E-06   -0.25459E-07    48   0.451E-03    0.472E-04
DAV:   4    -0.348442698109E+02   -0.16436E-07   -0.83803E-08    48   0.196E-03    0.211E-04
DAV:   5    -0.348442698132E+02   -0.23060E-08   -0.42455E-08    48   0.957E-04    0.730E-05
DAV:   6    -0.348442698151E+02   -0.19518E-08   -0.33075E-08    48   0.509E-04
  35 F= -.34844270E+02 E0= -.34844270E+02  d E =-.138410E-03
damped:  g(F)=  0.000E+00 g(S)=  0.000E+00 dE (1.order)= 0.000E+00
 bond charge predicted
       N       E                     dE             d eps       ncg     rms          rms(c)
DAV:   1    -0.348444513776E+02   -0.18156E-03   -0.27863E-04    96   0.152E-01    0.430E-03
DAV:   2    -0.348444512862E+02    0.91458E-07   -0.30546E-06    48   0.151E-02    0.257E-03
DAV:   3    -0.348444515038E+02   -0.21759E-06   -0.44954E-07    48   0.617E-03    0.642E-04
DAV:   4    -0.348444515338E+02   -0.30039E-07   -0.13079E-07    48   0.270E-03    0.290E-04
DAV:   5    -0.348444515390E+02   -0.51709E-08   -0.53585E-08    48   0.131E-03    0.148E-04
DAV:   6    -0.348444515425E+02   -0.34802E-08   -0.37347E-08    48   0.701E-04
  36 F= -.34844452E+02 E0= -.34844452E+02  d E =-.181727E-03
damped:  g(F)=  0.000E+00 g(S)=  0.000E+00 dE (1.order)= 0.000E+00
 bond charge predicted
       N       E                     dE             d eps       ncg     rms          rms(c)
DAV:   1    -0.348446878290E+02   -0.23629E-03   -0.44796E-04    96   0.193E-01    0.539E-03
DAV:   2    -0.348446877057E+02    0.12329E-06   -0.48727E-06    48   0.191E-02    0.324E-03
DAV:   3    -0.348446880214E+02   -0.31578E-06   -0.68042E-07    48   0.767E-03    0.827E-04
DAV:   4    -0.348446880747E+02   -0.53238E-07   -0.18714E-07    48   0.333E-03    0.370E-04
DAV:   5    -0.348446880848E+02   -0.10169E-07   -0.68052E-08    48   0.160E-03    0.128E-04
DAV:   6    -0.348446880935E+02   -0.86952E-08   -0.41830E-08    48   0.848E-04
  37 F= -.34844688E+02 E0= -.34844688E+02  d E =-.236551E-03
damped:  g(F)=  0.000E+00 g(S)=  0.000E+00 dE (1.order)= 0.000E+00
 bond charge predicted
       N       E                     dE             d eps       ncg     rms          rms(c)
DAV:   1    -0.348449953375E+02   -0.30725E-03   -0.64249E-04    96   0.231E-01    0.642E-03
DAV:   2    -0.348449951638E+02    0.17373E-06   -0.69752E-06    48   0.229E-02    0.389E-03
DAV:   3    -0.348449955541E+02   -0.39036E-06   -0.94516E-07    48   0.907E-03    0.118E-03
DAV:   4    -0.348449956517E+02   -0.97536E-07   -0.25464E-07    48   0.409E-03    0.521E-04
DAV:   5    -0.348449956635E+02   -0.11849E-07   -0.83947E-08    48   0.189E-03    0.272E-04
DAV:   6    -0.348449956774E+02   -0.13847E-07   -0.47557E-08    48   0.105E-03
  38 F= -.34844996E+02 E0= -.34844996E+02  d E =-.307584E-03
damped:  g(F)=  0.000E+00 g(S)=  0.000E+00 dE (1.order)= 0.000E+00
 bond charge predicted
       N       E                     dE             d eps       ncg     rms          rms(c)
DAV:   1    -0.348454234037E+02   -0.42774E-03   -0.82487E-04    96   0.261E-01    0.743E-03
DAV:   2    -0.348454231518E+02    0.25190E-06   -0.88905E-06    48   0.256E-02    0.445E-03
DAV:   3    -0.348454237398E+02   -0.58802E-06   -0.12288E-06    48   0.104E-02    0.110E-03
DAV:   4    -0.348454238221E+02   -0.82265E-07   -0.31447E-07    48   0.454E-03    0.514E-04
DAV:   5    -0.348454238411E+02   -0.18983E-07   -0.97139E-08    48   0.219E-03    0.286E-04
DAV:   6    -0.348454238569E+02   -0.15846E-07   -0.51209E-08    48   0.118E-03
  39 F= -.34845424E+02 E0= -.34845424E+02  d E =-.428180E-03
damped:  g(F)=  0.000E+00 g(S)=  0.000E+00 dE (1.order)= 0.000E+00
 bond charge predicted
       N       E                     dE             d eps       ncg     rms          rms(c)
DAV:   1    -0.348454289525E+02   -0.51114E-05   -0.20283E-07    48   0.393E-03    0.141E-04
DAV:   2    -0.348454289651E+02   -0.12557E-07   -0.37957E-08    48   0.105E-03    0.947E-05
DAV:   3    -0.348454289809E+02   -0.15824E-07   -0.28402E-08    48   0.370E-04    0.581E-05
DAV:   4    -0.348454290039E+02   -0.23039E-07   -0.27979E-08    48   0.211E-04    0.223E-05
DAV:   5    -0.348454290209E+02   -0.16962E-07   -0.27888E-08    48   0.117E-04    0.148E-05
DAV:   6    -0.348454290525E+02   -0.31555E-07   -0.28420E-08    48   0.101E-04
  40 F= -.34845429E+02 E0= -.34845429E+02  d E =-.519553E-05
damped:  g(F)=  0.000E+00 g(S)=  0.000E+00 dE (1.order)= 0.000E+00
 bond charge predicted
       N       E                     dE             d eps       ncg     rms          rms(c)
DAV:   1    -0.348454421333E+02   -0.13112E-04   -0.61421E-07    48   0.720E-03    0.220E-04
DAV:   2    -0.348454421392E+02   -0.58701E-08   -0.57117E-08    48   0.170E-03    0.136E-04
DAV:   3    -0.348454421461E+02   -0.69101E-08   -0.31389E-08    48   0.542E-04    0.761E-05
DAV:   4    -0.348454421543E+02   -0.81918E-08   -0.28962E-08    48   0.287E-04    0.301E-05
DAV:   5    -0.348454421593E+02   -0.50497E-08   -0.28149E-08    48   0.133E-04    0.191E-05
DAV:   6    -0.348454421671E+02   -0.78048E-08   -0.27763E-08    48   0.789E-05
  41 F= -.34845442E+02 E0= -.34845442E+02  d E =-.131147E-04
damped:  g(F)=  0.000E+00 g(S)=  0.000E+00 dE (1.order)= 0.000E+00
 bond charge predicted
       N       E                     dE             d eps       ncg     rms          rms(c)
DAV:   1    -0.348454667570E+02   -0.24598E-04   -0.10876E-06    48   0.973E-03    0.289E-04
DAV:   2    -0.348454667589E+02   -0.19022E-08   -0.79697E-08    48   0.227E-03    0.173E-04
DAV:   3    -0.348454667606E+02   -0.16510E-08   -0.33761E-08    48   0.732E-04    0.842E-05
DAV:   4    -0.348454667624E+02   -0.17660E-08   -0.28879E-08    48   0.358E-04    0.370E-05
DAV:   5    -0.348454667637E+02   -0.13642E-08   -0.27571E-08    48   0.168E-04    0.220E-05
DAV:   6    -0.348454667649E+02   -0.11548E-08   -0.27164E-08    48   0.941E-05
  42 F= -.34845467E+02 E0= -.34845467E+02  d E =-.245977E-04
damped:  g(F)=  0.000E+00 g(S)=  0.000E+00 dE (1.order)= 0.000E+00
 bond charge predicted
       N       E                     dE             d eps       ncg     rms          rms(c)
DAV:   1    -0.348455066880E+02   -0.39924E-04   -0.14881E-06    48   0.115E-02    0.343E-04
DAV:   2    -0.348455066899E+02   -0.19097E-08   -0.96960E-08    48   0.264E-03    0.190E-04
DAV:   3    -0.348455066909E+02   -0.10541E-08   -0.36085E-08    48   0.863E-04    0.100E-04
DAV:   4    -0.348455066912E+02   -0.25216E-09   -0.28937E-08    48   0.410E-04    0.389E-05
DAV:   5    -0.348455066916E+02   -0.38858E-09   -0.27320E-08    48   0.198E-04    0.210E-05
DAV:   6    -0.348455066919E+02   -0.32469E-09   -0.26799E-08    48   0.108E-04
  43 F= -.34845507E+02 E0= -.34845507E+02  d E =-.399270E-04
damped:  g(F)=  0.000E+00 g(S)=  0.000E+00 dE (1.order)= 0.000E+00
 bond charge predicted
       N       E                     dE             d eps       ncg     rms          rms(c)
DAV:   1    -0.348455618420E+02   -0.55150E-04   -0.17959E-06    48   0.127E-02    0.408E-04
DAV:   2    -0.348455618446E+02   -0.26405E-08   -0.10750E-07    48   0.286E-03    0.208E-04
DAV:   3    -0.348455618468E+02   -0.21457E-08   -0.38145E-08    48   0.962E-04    0.136E-04
DAV:   4    -0.348455618473E+02   -0.54797E-09   -0.29160E-08    48   0.454E-04    0.529E-05
DAV:   5    -0.348455618474E+02   -0.13824E-09   -0.27121E-08    48   0.219E-04    0.187E-05
DAV:   6    -0.348455618474E+02    0.67757E-10   -0.26561E-08    48   0.118E-04
  44 F= -.34845562E+02 E0= -.34845562E+02  d E =-.551555E-04
damped:  g(F)=  0.000E+00 g(S)=  0.000E+00 dE (1.order)= 0.000E+00
 bond charge predicted
       N       E                     dE             d eps       ncg     rms          rms(c)
DAV:   1    -0.348456322172E+02   -0.70370E-04   -0.21149E-06    48   0.138E-02    0.506E-04
DAV:   2    -0.348456322199E+02   -0.27189E-08   -0.11745E-07    48   0.308E-03    0.248E-04
DAV:   3    -0.348456322229E+02   -0.29067E-08   -0.39684E-08    48   0.105E-03    0.166E-04
DAV:   4    -0.348456322240E+02   -0.11116E-08   -0.29410E-08    48   0.495E-04    0.635E-05
DAV:   5    -0.348456322237E+02    0.28081E-09   -0.27068E-08    48   0.242E-04    0.243E-05
DAV:   6    -0.348456322236E+02    0.10641E-09   -0.26393E-08    48   0.127E-04
  45 F= -.34845632E+02 E0= -.34845632E+02  d E =-.703762E-04
damped:  g(F)=  0.000E+00 g(S)=  0.000E+00 dE (1.order)= 0.000E+00
 bond charge predicted
       N       E                     dE             d eps       ncg     rms          rms(c)
DAV:   1    -0.348457283331E+02   -0.96109E-04   -0.30129E-06    48   0.165E-02    0.673E-04
DAV:   2    -0.348457283346E+02   -0.15566E-08   -0.15136E-07    48   0.368E-03    0.323E-04
DAV:   3    -0.348457283389E+02   -0.42737E-08   -0.44219E-08    48   0.125E-03    0.208E-04
DAV:   4    -0.348457283406E+02   -0.16873E-08   -0.30467E-08    48   0.588E-04    0.801E-05
DAV:   5    -0.348457283399E+02    0.70713E-09   -0.27260E-08    48   0.290E-04    0.334E-05
DAV:   6    -0.348457283397E+02    0.14302E-09   -0.26328E-08    48   0.148E-04
  46 F= -.34845728E+02 E0= -.34845728E+02  d E =-.961162E-04
damped:  g(F)=  0.000E+00 g(S)=  0.000E+00 dE (1.order)= 0.000E+00
 bond charge predicted
       N       E                     dE             d eps       ncg     rms          rms(c)
DAV:   1    -0.348458519717E+02   -0.12363E-03   -0.37951E-06    48   0.186E-02    0.770E-04
DAV:   2    -0.348458519709E+02    0.86015E-09   -0.17436E-07    48   0.404E-03    0.361E-04
DAV:   3    -0.348458519761E+02   -0.52967E-08   -0.47026E-08    48   0.135E-03    0.220E-04
DAV:   4    -0.348458519781E+02   -0.19688E-08   -0.30884E-08    48   0.621E-04    0.780E-05
DAV:   5    -0.348458519775E+02    0.57935E-09   -0.27199E-08    48   0.294E-04    0.332E-05
DAV:   6    -0.348458519777E+02   -0.14165E-09   -0.26229E-08    48   0.157E-04
  47 F= -.34845852E+02 E0= -.34845852E+02  d E =-.123638E-03
damped:  g(F)=  0.000E+00 g(S)=  0.000E+00 dE (1.order)= 0.000E+00
 bond charge predicted
       N       E                     dE             d eps       ncg     rms          rms(c)
DAV:   1    -0.348458559611E+02   -0.39835E-05   -0.42596E-08    48   0.124E-03    0.410E-05
DAV:   2    -0.348458559612E+02   -0.12733E-09   -0.26614E-08    48   0.288E-04    0.248E-05
DAV:   3    -0.348458559616E+02   -0.38904E-09   -0.25898E-08    48   0.973E-05    0.136E-05
DAV:   4    -0.348458559617E+02   -0.74124E-10   -0.25888E-08    48   0.525E-05    0.517E-06
DAV:   5    -0.348458559621E+02   -0.44702E-09   -0.25924E-08    48   0.265E-05    0.304E-06
DAV:   6    -0.348458559628E+02   -0.67530E-09   -0.26090E-08    48   0.177E-05
  48 F= -.34845856E+02 E0= -.34845856E+02  d E =-.398510E-05
damped:  g(F)=  0.000E+00 g(S)=  0.000E+00 dE (1.order)= 0.000E+00
 bond charge predicted
       N       E                     dE             d eps       ncg     rms          rms(c)
DAV:   1    -0.348458645549E+02   -0.85928E-05   -0.11184E-07    48   0.279E-03    0.890E-05
DAV:   2    -0.348458645545E+02    0.39176E-09   -0.29921E-08    48   0.634E-04    0.538E-05
DAV:   3    -0.348458645542E+02    0.26444E-09   -0.26628E-08    48   0.197E-04    0.277E-05
DAV:   4    -0.348458645545E+02   -0.24329E-09   -0.26383E-08    48   0.102E-04    0.101E-05
DAV:   5    -0.348458645544E+02    0.10368E-09   -0.26332E-08    48   0.477E-05    0.596E-06
DAV:   6    -0.348458645545E+02   -0.10732E-09   -0.26388E-08    48   0.264E-05
  49 F= -.34845865E+02 E0= -.34845865E+02  d E =-.859171E-05
damped:  g(F)=  0.000E+00 g(S)=  0.000E+00 dE (1.order)= 0.000E+00
 bond charge predicted
       N       E                     dE             d eps       ncg     rms          rms(c)
DAV:   1    -0.348458786523E+02   -0.14098E-04   -0.27192E-07    48   0.470E-03    0.143E-04
DAV:   2    -0.348458786522E+02    0.71850E-10   -0.37399E-08    48   0.107E-03    0.852E-05
DAV:   3    -0.348458786518E+02    0.44247E-09   -0.27771E-08    48   0.331E-04    0.396E-05
DAV:   4    -0.348458786518E+02   -0.70486E-11   -0.26840E-08    48   0.157E-04    0.157E-05
DAV:   5    -0.348458786517E+02    0.32514E-10   -0.26654E-08    48   0.753E-05    0.865E-06
DAV:   6    -0.348458786519E+02   -0.15802E-09   -0.26678E-08    48   0.424E-05
  50 F= -.34845879E+02 E0= -.34845879E+02  d E =-.140974E-04
damped:  g(F)=  0.000E+00 g(S)=  0.000E+00 dE (1.order)= 0.000E+00
 bond charge predicted
       N       E                     dE             d eps       ncg     rms          rms(c)
DAV:   1    -0.348458993255E+02   -0.20674E-04   -0.60475E-07    48   0.719E-03    0.212E-04
DAV:   2    -0.348458993260E+02   -0.47862E-09   -0.52582E-08    48   0.165E-03    0.125E-04
DAV:   3    -0.348458993260E+02   -0.61391E-10   -0.29738E-08    48   0.502E-04    0.541E-05
DAV:   4    -0.348458993260E+02    0.49795E-10   -0.27419E-08    48   0.231E-04    0.218E-05
DAV:   5    -0.348458993262E+02   -0.17758E-09   -0.26919E-08    48   0.112E-04    0.119E-05
DAV:   6    -0.348458993260E+02    0.18440E-09   -0.26865E-08    48   0.636E-05
  51 F= -.34845899E+02 E0= -.34845899E+02  d E =-.206741E-04
damped:  g(F)=  0.000E+00 g(S)=  0.000E+00 dE (1.order)= 0.000E+00
 bond charge predicted
       N       E                     dE             d eps       ncg     rms          rms(c)
DAV:   1    -0.348459280563E+02   -0.28730E-04   -0.12358E-06    48   0.104E-02    0.302E-04
DAV:   2    -0.348459280581E+02   -0.18058E-08   -0.81190E-08    48   0.238E-03    0.176E-04
DAV:   3    -0.348459280591E+02   -0.10691E-08   -0.33068E-08    48   0.719E-04    0.717E-05
DAV:   4    -0.348459280594E+02   -0.30377E-09   -0.28213E-08    48   0.325E-04    0.273E-05
DAV:   5    -0.348459280592E+02    0.20509E-09   -0.27191E-08    48   0.159E-04    0.145E-05
DAV:   6    -0.348459280593E+02   -0.56389E-10   -0.26913E-08    48   0.898E-05
  52 F= -.34845928E+02 E0= -.34845928E+02  d E =-.287333E-04
damped:  g(F)=  0.000E+00 g(S)=  0.000E+00 dE (1.order)= 0.000E+00
 bond charge predicted
       N       E                     dE             d eps       ncg     rms          rms(c)
DAV:   1    -0.348459667001E+02   -0.38641E-04   -0.23694E-06    48   0.144E-02    0.416E-04
DAV:   2    -0.348459667056E+02   -0.54533E-08   -0.13282E-07    48   0.332E-03    0.240E-04
DAV:   3    -0.348459667084E+02   -0.27906E-08   -0.38913E-08    48   0.993E-04    0.957E-05
DAV:   4    -0.348459667087E+02   -0.36516E-09   -0.29646E-08    48   0.447E-04    0.342E-05
DAV:   5    -0.348459667087E+02    0.12733E-10   -0.27660E-08    48   0.218E-04    0.178E-05
DAV:   6    -0.348459667086E+02    0.11300E-09   -0.27135E-08    48   0.123E-04
  53 F= -.34845967E+02 E0= -.34845967E+02  d E =-.386493E-04
damped:  g(F)=  0.000E+00 g(S)=  0.000E+00 dE (1.order)= 0.000E+00
 bond charge predicted
       N       E                     dE             d eps       ncg     rms          rms(c)
DAV:   1    -0.348460235854E+02   -0.56877E-04   -0.54597E-06    48   0.218E-02    0.631E-04
DAV:   2    -0.348460235994E+02   -0.13980E-07   -0.27332E-07    48   0.506E-03    0.363E-04
DAV:   3    -0.348460236065E+02   -0.71009E-08   -0.54758E-08    48   0.151E-03    0.146E-04
DAV:   4    -0.348460236077E+02   -0.12913E-08   -0.33360E-08    48   0.679E-04    0.521E-05
DAV:   5    -0.348460236076E+02    0.12506E-09   -0.28759E-08    48   0.330E-04    0.299E-05
DAV:   6    -0.348460236077E+02   -0.44338E-10   -0.27488E-08    48   0.187E-04
  54 F= -.34846024E+02 E0= -.34846024E+02  d E =-.568991E-04
damped:  g(F)=  0.000E+00 g(S)=  0.000E+00 dE (1.order)= 0.000E+00
 bond charge predicted
       N       E                     dE             d eps       ncg     rms          rms(c)
DAV:   1    -0.348461086571E+02   -0.85050E-04   -0.11305E-05    48   0.314E-02    0.917E-04
DAV:   2    -0.348461086873E+02   -0.30194E-07   -0.53853E-07    48   0.728E-03    0.524E-04
DAV:   3    -0.348461087030E+02   -0.15687E-07   -0.84366E-08    48   0.217E-03    0.216E-04
DAV:   4    -0.348461087060E+02   -0.29377E-08   -0.40370E-08    48   0.983E-04    0.789E-05
DAV:   5    -0.348461087059E+02    0.73442E-10   -0.30839E-08    48   0.478E-04    0.486E-05
DAV:   6    -0.348461087057E+02    0.16826E-09   -0.28157E-08    48   0.270E-04
  55 F= -.34846109E+02 E0= -.34846109E+02  d E =-.850981E-04
damped:  g(F)=  0.000E+00 g(S)=  0.000E+00 dE (1.order)= 0.000E+00
 bond charge predicted
       N       E                     dE             d eps       ncg     rms          rms(c)
DAV:   1    -0.348462284333E+02   -0.11973E-03   -0.21612E-05    48   0.433E-02    0.128E-03
DAV:   2    -0.348462284920E+02   -0.58710E-07   -0.10069E-06    48   0.101E-02    0.729E-04
DAV:   3    -0.348462285216E+02   -0.29648E-07   -0.13624E-07    48   0.299E-03    0.318E-04
DAV:   4    -0.348462285278E+02   -0.61965E-08   -0.52794E-08    48   0.137E-03    0.115E-04
DAV:   5    -0.348462285281E+02   -0.23942E-09   -0.34510E-08    48   0.665E-04    0.709E-05
DAV:   6    -0.348462285275E+02    0.60345E-09   -0.29295E-08    48   0.372E-04
  56 F= -.34846229E+02 E0= -.34846229E+02  d E =-.119822E-03
damped:  g(F)=  0.000E+00 g(S)=  0.000E+00 dE (1.order)= 0.000E+00
 bond charge predicted
       N       E                     dE             d eps       ncg     rms          rms(c)
DAV:   1    -0.348463903862E+02   -0.16186E-03   -0.38552E-05    48   0.578E-02    0.173E-03
DAV:   2    -0.348463904913E+02   -0.10504E-06   -0.17775E-06    48   0.135E-02    0.979E-04
DAV:   3    -0.348463905419E+02   -0.50680E-07   -0.22130E-07    48   0.400E-03    0.447E-04
DAV:   4    -0.348463905546E+02   -0.12654E-07   -0.73166E-08    48   0.184E-03    0.159E-04
DAV:   5    -0.348463905552E+02   -0.64938E-09   -0.40561E-08    48   0.892E-04    0.977E-05
DAV:   6    -0.348463905545E+02    0.77148E-09   -0.31110E-08    48   0.496E-04
  57 F= -.34846391E+02 E0= -.34846391E+02  d E =-.162027E-03
damped:  g(F)=  0.000E+00 g(S)=  0.000E+00 dE (1.order)= 0.000E+00
 bond charge predicted
       N       E                     dE             d eps       ncg     rms          rms(c)
DAV:   1    -0.348466027690E+02   -0.21221E-03   -0.64758E-05    48   0.749E-02    0.224E-03
DAV:   2    -0.348466029450E+02   -0.17599E-06   -0.29670E-06    48   0.174E-02    0.127E-03
DAV:   3    -0.348466030272E+02   -0.82218E-07   -0.35254E-07    48   0.518E-03    0.588E-04
DAV:   4    -0.348466030494E+02   -0.22209E-07   -0.10446E-07    48   0.238E-03    0.208E-04
DAV:   5    -0.348466030509E+02   -0.15457E-08   -0.49776E-08    48   0.116E-03    0.128E-04
DAV:   6    -0.348466030502E+02    0.72146E-09   -0.33857E-08    48   0.641E-04
  58 F= -.34846603E+02 E0= -.34846603E+02  d E =-.212496E-03
damped:  g(F)=  0.000E+00 g(S)=  0.000E+00 dE (1.order)= 0.000E+00
 bond charge predicted
       N       E                     dE             d eps       ncg     rms          rms(c)
DAV:   1    -0.348468743635E+02   -0.27131E-03   -0.10293E-04    48   0.944E-02    0.282E-03
DAV:   2    -0.348468746467E+02   -0.28319E-06   -0.46900E-06    48   0.220E-02    0.160E-03
DAV:   3    -0.348468747729E+02   -0.12617E-06   -0.54386E-07    48   0.652E-03    0.722E-04
DAV:   4    -0.348468748063E+02   -0.33455E-07   -0.14970E-07    48   0.299E-03    0.257E-04
DAV:   5    -0.348468748095E+02   -0.31748E-08   -0.63081E-08    48   0.145E-03    0.158E-04
DAV:   6    -0.348468748096E+02   -0.75033E-10   -0.37837E-08    48   0.808E-04
  59 F= -.34846875E+02 E0= -.34846875E+02  d E =-.271759E-03
damped:  g(F)=  0.000E+00 g(S)=  0.000E+00 dE (1.order)= 0.000E+00
 bond charge predicted
       N       E                     dE             d eps       ncg     rms          rms(c)
DAV:   1    -0.348472146630E+02   -0.33985E-03   -0.16212E-04    96   0.116E-01    0.347E-03
DAV:   2    -0.348472145564E+02    0.10667E-06   -0.17800E-06    48   0.114E-02    0.205E-03
DAV:   3    -0.348472146872E+02   -0.13087E-06   -0.26839E-07    48   0.466E-03    0.545E-04
DAV:   4    -0.348472147012E+02   -0.13968E-07   -0.82747E-08    48   0.209E-03    0.247E-04
DAV:   5    -0.348472147058E+02   -0.46450E-08   -0.40652E-08    48   0.987E-04    0.136E-04
DAV:   6    -0.348472147107E+02   -0.48221E-08   -0.31309E-08    48   0.549E-04
  60 F= -.34847215E+02 E0= -.34847215E+02  d E =-.339901E-03
damped:  g(F)=  0.000E+00 g(S)=  0.000E+00 dE (1.order)= 0.000E+00
 bond charge predicted
       N       E                     dE             d eps       ncg     rms          rms(c)
DAV:   1    -0.348476315056E+02   -0.41680E-03   -0.23551E-04    96   0.140E-01    0.416E-03
DAV:   2    -0.348476313612E+02    0.14449E-06   -0.25453E-06    48   0.136E-02    0.247E-03
DAV:   3    -0.348476315424E+02   -0.18124E-06   -0.36784E-07    48   0.556E-03    0.622E-04
DAV:   4    -0.348476315624E+02   -0.20035E-07   -0.10388E-07    48   0.246E-03    0.294E-04
DAV:   5    -0.348476315702E+02   -0.77334E-08   -0.45084E-08    48   0.115E-03    0.162E-04
DAV:   6    -0.348476315788E+02   -0.86256E-08   -0.32302E-08    48   0.645E-04
  61 F= -.34847632E+02 E0= -.34847632E+02  d E =-.416868E-03
damped:  g(F)=  0.000E+00 g(S)=  0.000E+00 dE (1.order)= 0.000E+00
 bond charge predicted
       N       E                     dE             d eps       ncg     rms          rms(c)
DAV:   1    -0.348481358445E+02   -0.50427E-03   -0.32801E-04    96   0.165E-01    0.493E-03
DAV:   2    -0.348481356361E+02    0.20835E-06   -0.35265E-06    48   0.160E-02    0.292E-03
DAV:   3    -0.348481358896E+02   -0.25348E-06   -0.49694E-07    48   0.653E-03    0.797E-04
DAV:   4    -0.348481359214E+02   -0.31806E-07   -0.13401E-07    48   0.294E-03    0.351E-04
DAV:   5    -0.348481359319E+02   -0.10482E-07   -0.52023E-08    48   0.137E-03    0.193E-04
DAV:   6    -0.348481359448E+02   -0.12861E-07   -0.34106E-08    48   0.754E-04
  62 F= -.34848136E+02 E0= -.34848136E+02  d E =-.504366E-03
damped:  g(F)=  0.000E+00 g(S)=  0.000E+00 dE (1.order)= 0.000E+00
 bond charge predicted
       N       E                     dE             d eps       ncg     rms          rms(c)
DAV:   1    -0.348487429645E+02   -0.60703E-03   -0.43065E-04    96   0.189E-01    0.578E-03
DAV:   2    -0.348487426726E+02    0.29189E-06   -0.46370E-06    48   0.184E-02    0.339E-03
DAV:   3    -0.348487429720E+02   -0.29938E-06   -0.64269E-07    48   0.746E-03    0.115E-03
DAV:   4    -0.348487430398E+02   -0.67808E-07   -0.17349E-07    48   0.354E-03    0.417E-04
DAV:   5    -0.348487430537E+02   -0.13963E-07   -0.60787E-08    48   0.161E-03    0.231E-04
DAV:   6    -0.348487430715E+02   -0.17785E-07   -0.35592E-08    48   0.855E-04
  63 F= -.34848743E+02 E0= -.34848743E+02  d E =-.607127E-03
damped:  g(F)=  0.000E+00 g(S)=  0.000E+00 dE (1.order)= 0.000E+00
 bond charge predicted
       N       E                     dE             d eps       ncg     rms          rms(c)
DAV:   1    -0.348487472814E+02   -0.42276E-05   -0.43300E-08    48   0.129E-03    0.527E-05
DAV:   2    -0.348487472939E+02   -0.12541E-07   -0.26095E-08    48   0.416E-04    0.349E-05
DAV:   3    -0.348487473077E+02   -0.13806E-07   -0.24418E-08    48   0.195E-04    0.241E-05
DAV:   4    -0.348487473278E+02   -0.20121E-07   -0.24539E-08    48   0.125E-04    0.128E-05
DAV:   5    -0.348487473464E+02   -0.18520E-07   -0.24782E-08    48   0.864E-05    0.843E-06
DAV:   6    -0.348487473794E+02   -0.33064E-07   -0.26087E-08    48   0.931E-05
  64 F= -.34848747E+02 E0= -.34848747E+02  d E =-.430791E-05
damped:  g(F)=  0.000E+00 g(S)=  0.000E+00 dE (1.order)= 0.000E+00
 bond charge predicted
       N       E                     dE             d eps       ncg     rms          rms(c)
DAV:   1    -0.348487588553E+02   -0.11509E-04   -0.90329E-08    48   0.240E-03    0.859E-05
DAV:   2    -0.348487588595E+02   -0.41746E-08   -0.28879E-08    48   0.537E-04    0.509E-05
DAV:   3    -0.348487588647E+02   -0.52078E-08   -0.26556E-08    48   0.177E-04    0.248E-05
DAV:   4    -0.348487588691E+02   -0.44126E-08   -0.26402E-08    48   0.958E-05    0.123E-05
DAV:   5    -0.348487588726E+02   -0.35427E-08   -0.26385E-08    48   0.461E-05    0.705E-06
DAV:   6    -0.348487588771E+02   -0.44524E-08   -0.26451E-08    48   0.322E-05
  65 F= -.34848759E+02 E0= -.34848759E+02  d E =-.114977E-04
damped:  g(F)=  0.000E+00 g(S)=  0.000E+00 dE (1.order)= 0.000E+00
 bond charge predicted
       N       E                     dE             d eps       ncg     rms          rms(c)
DAV:   1    -0.348487814583E+02   -0.22586E-04   -0.20152E-07    48   0.398E-03    0.140E-04
DAV:   2    -0.348487814578E+02    0.45384E-09   -0.33887E-08    48   0.873E-04    0.793E-05
DAV:   3    -0.348487814586E+02   -0.71896E-09   -0.27542E-08    48   0.285E-04    0.286E-05
DAV:   4    -0.348487814589E+02   -0.39495E-09   -0.26822E-08    48   0.130E-04    0.167E-05
DAV:   5    -0.348487814596E+02   -0.68508E-09   -0.26645E-08    48   0.614E-05    0.714E-06
DAV:   6    -0.348487814601E+02   -0.41996E-09   -0.26624E-08    48   0.332E-05
  66 F= -.34848781E+02 E0= -.34848781E+02  d E =-.225830E-04
damped:  g(F)=  0.000E+00 g(S)=  0.000E+00 dE (1.order)= 0.000E+00
 bond charge predicted
       N       E                     dE             d eps       ncg     rms          rms(c)
DAV:   1    -0.348488199977E+02   -0.38538E-04   -0.48506E-07    48   0.645E-03    0.228E-04
DAV:   2    -0.348488199970E+02    0.65461E-09   -0.45574E-08    48   0.142E-03    0.122E-04
DAV:   3    -0.348488199969E+02    0.10982E-09   -0.28995E-08    48   0.449E-04    0.448E-05
DAV:   4    -0.348488199966E+02    0.25443E-09   -0.27123E-08    48   0.204E-04    0.229E-05
DAV:   5    -0.348488199968E+02   -0.12210E-09   -0.26755E-08    48   0.958E-05    0.122E-05
DAV:   6    -0.348488199968E+02   -0.78899E-10   -0.26647E-08    48   0.559E-05
  67 F= -.34848820E+02 E0= -.34848820E+02  d E =-.385368E-04
damped:  g(F)=  0.000E+00 g(S)=  0.000E+00 dE (1.order)= 0.000E+00
 bond charge predicted
       N       E                     dE             d eps       ncg     rms          rms(c)
DAV:   1    -0.348488807427E+02   -0.60746E-04   -0.11576E-06    48   0.101E-02    0.361E-04
DAV:   2    -0.348488807426E+02    0.13438E-09   -0.73267E-08    48   0.224E-03    0.188E-04
DAV:   3    -0.348488807436E+02   -0.10566E-08   -0.32270E-08    48   0.699E-04    0.772E-05
DAV:   4    -0.348488807434E+02    0.23397E-09   -0.27887E-08    48   0.320E-04    0.320E-05
DAV:   5    -0.348488807434E+02    0.27057E-10   -0.26921E-08    48   0.152E-04    0.173E-05
DAV:   6    -0.348488807434E+02    0.56843E-11   -0.26652E-08    48   0.886E-05
  68 F= -.34848881E+02 E0= -.34848881E+02  d E =-.607465E-04
damped:  g(F)=  0.000E+00 g(S)=  0.000E+00 dE (1.order)= 0.000E+00
 bond charge predicted
       N       E                     dE             d eps       ncg     rms          rms(c)
DAV:   1    -0.348489636372E+02   -0.82894E-04   -0.23357E-06    48   0.144E-02    0.511E-04
DAV:   2    -0.348489636388E+02   -0.15682E-08   -0.12287E-07    48   0.324E-03    0.264E-04
DAV:   3    -0.348489636416E+02   -0.27660E-08   -0.37936E-08    48   0.994E-04    0.118E-04
DAV:   4    -0.348489636418E+02   -0.25466E-09   -0.29165E-08    48   0.455E-04    0.419E-05
DAV:   5    -0.348489636417E+02    0.15825E-09   -0.27236E-08    48   0.218E-04    0.231E-05
DAV:   6    -0.348489636415E+02    0.13392E-09   -0.26664E-08    48   0.125E-04
  69 F= -.34848964E+02 E0= -.34848964E+02  d E =-.828982E-04
damped:  g(F)=  0.000E+00 g(S)=  0.000E+00 dE (1.order)= 0.000E+00
 bond charge predicted
       N       E                     dE             d eps       ncg     rms          rms(c)
DAV:   1    -0.348490818051E+02   -0.11816E-03   -0.55193E-06    48   0.222E-02    0.771E-04
DAV:   2    -0.348490818123E+02   -0.71864E-08   -0.25958E-07    48   0.504E-03    0.401E-04
DAV:   3    -0.348490818196E+02   -0.73126E-08   -0.53137E-08    48   0.153E-03    0.194E-04
DAV:   4    -0.348490818212E+02   -0.15586E-08   -0.32610E-08    48   0.697E-04    0.649E-05
DAV:   5    -0.348490818209E+02    0.26034E-09   -0.28171E-08    48   0.336E-04    0.368E-05
DAV:   6    -0.348490818208E+02    0.10346E-09   -0.26844E-08    48   0.188E-04
  70 F= -.34849082E+02 E0= -.34849082E+02  d E =-.118179E-03
damped:  g(F)=  0.000E+00 g(S)=  0.000E+00 dE (1.order)= 0.000E+00
 bond charge predicted
       N       E                     dE             d eps       ncg     rms          rms(c)
DAV:   1    -0.348492444297E+02   -0.16261E-03   -0.12680E-05    48   0.335E-02    0.113E-03
DAV:   2    -0.348492444508E+02   -0.21114E-07   -0.57286E-07    48   0.769E-03    0.597E-04
DAV:   3    -0.348492444677E+02   -0.16879E-07   -0.87798E-08    48   0.231E-03    0.298E-04
DAV:   4    -0.348492444724E+02   -0.47237E-08   -0.40699E-08    48   0.105E-03    0.997E-05
DAV:   5    -0.348492444722E+02    0.23533E-09   -0.30540E-08    48   0.510E-04    0.581E-05
DAV:   6    -0.348492444720E+02    0.17246E-09   -0.27492E-08    48   0.282E-04
  71 F= -.34849244E+02 E0= -.34849244E+02  d E =-.162651E-03
damped:  g(F)=  0.000E+00 g(S)=  0.000E+00 dE (1.order)= 0.000E+00
 bond charge predicted
       N       E                     dE             d eps       ncg     rms          rms(c)
DAV:   1    -0.348494620921E+02   -0.21762E-03   -0.28019E-05    48   0.496E-02    0.161E-03
DAV:   2    -0.348494621489E+02   -0.56814E-07   -0.12496E-06    48   0.114E-02    0.868E-04
DAV:   3    -0.348494621840E+02   -0.35168E-07   -0.16222E-07    48   0.341E-03    0.425E-04
DAV:   4    -0.348494621945E+02   -0.10470E-07   -0.58108E-08    48   0.155E-03    0.141E-04
DAV:   5    -0.348494621950E+02   -0.50363E-09   -0.35694E-08    48   0.752E-04    0.844E-05
DAV:   6    -0.348494621945E+02    0.50022E-09   -0.28905E-08    48   0.416E-04
  72 F= -.34849462E+02 E0= -.34849462E+02  d E =-.217723E-03
damped:  g(F)=  0.000E+00 g(S)=  0.000E+00 dE (1.order)= 0.000E+00
 bond charge predicted
       N       E                     dE             d eps       ncg     rms          rms(c)
DAV:   1    -0.348497458470E+02   -0.28365E-03   -0.54752E-05    48   0.691E-02    0.219E-03
DAV:   2    -0.348497459701E+02   -0.12315E-06   -0.24332E-06    48   0.160E-02    0.120E-03
DAV:   3    -0.348497460348E+02   -0.64676E-07   -0.29224E-07    48   0.474E-03    0.582E-04
DAV:   4    -0.348497460549E+02   -0.20081E-07   -0.88645E-08    48   0.217E-03    0.193E-04
DAV:   5    -0.348497460564E+02   -0.15116E-08   -0.44714E-08    48   0.105E-03    0.117E-04
DAV:   6    -0.348497460563E+02    0.72305E-10   -0.31510E-08    48   0.580E-04
  73 F= -.34849746E+02 E0= -.34849746E+02  d E =-.283862E-03
damped:  g(F)=  0.000E+00 g(S)=  0.000E+00 dE (1.order)= 0.000E+00
 bond charge predicted
       N       E                     dE             d eps       ncg     rms          rms(c)
DAV:   1    -0.348501073623E+02   -0.36131E-03   -0.97526E-05    48   0.921E-02    0.289E-03
DAV:   2    -0.348501075938E+02   -0.23148E-06   -0.43262E-06    48   0.213E-02    0.159E-03
DAV:   3    -0.348501077053E+02   -0.11154E-06   -0.50003E-07    48   0.631E-03    0.766E-04
DAV:   4    -0.348501077404E+02   -0.35087E-07   -0.13755E-07    48   0.289E-03    0.255E-04
DAV:   5    -0.348501077433E+02   -0.29079E-08   -0.59144E-08    48   0.140E-03    0.156E-04
DAV:   6    -0.348501077439E+02   -0.55138E-09   -0.35667E-08    48   0.772E-04
  74 F= -.34850108E+02 E0= -.34850108E+02  d E =-.361688E-03
damped:  g(F)=  0.000E+00 g(S)=  0.000E+00 dE (1.order)= 0.000E+00
 reached required accuracy - stopping structural energy minimisation
