unknown system                          
           1
    30.000000    0.000000    0.000000
     0.000000   30.000000    0.000000
     0.000000    0.000000   30.000000
   H    C    N 
   3   2   1
Direct configuration=     1
   0.47335322  0.46442372  0.50616579
   0.47314229  0.51022626  0.46558044
   0.47754121  0.52119519  0.52407584
   0.48551861  0.49728712  0.49705556
   0.53647408  0.49171109  0.49050625
   0.55399305  0.51514542  0.51659612
Direct configuration=     2
   0.47335276  0.46442378  0.50616535
   0.47314214  0.51022628  0.46558013
   0.47754116  0.52119499  0.52407562
   0.48551846  0.49728702  0.49705523
   0.53647351  0.49171197  0.49050753
   0.55399442  0.51514477  0.51659614
Direct configuration=     3
   0.47335217  0.46442375  0.50616493
   0.47314173  0.51022617  0.46557975
   0.47754117  0.52119473  0.52407530
   0.48551823  0.49728689  0.49705482
   0.53647251  0.49171321  0.49050909
   0.55399666  0.51514406  0.51659610
Direct configuration=     4
   0.47335160  0.46442362  0.50616477
   0.47314092  0.51022578  0.46557942
   0.47754128  0.52119450  0.52407495
   0.48551792  0.49728667  0.49705439
   0.53647070  0.49171431  0.49051014
   0.55400004  0.51514392  0.51659632
Direct configuration=     5
   0.47335116  0.46442337  0.50616505
   0.47313950  0.51022496  0.46557924
   0.47754160  0.52119431  0.52407459
   0.48551748  0.49728628  0.49705399
   0.53646888  0.49171647  0.49051178
   0.55400384  0.51514342  0.51659534
Direct configuration=     6
   0.47335101  0.46442291  0.50616599
   0.47313738  0.51022350  0.46557930
   0.47754216  0.52119418  0.52407426
   0.48551692  0.49728561  0.49705371
   0.53646666  0.49171944  0.49051324
   0.55400833  0.51514315  0.51659351
Direct configuration=     7
   0.47335130  0.46442214  0.50616796
   0.47313418  0.51022113  0.46557967
   0.47754310  0.52119410  0.52407392
   0.48551623  0.49728460  0.49705361
   0.53646302  0.49172272  0.49051361
   0.55401463  0.51514411  0.51659123
Direct configuration=     8
   0.47335203  0.46442089  0.50617121
   0.47312947  0.51021754  0.46558039
   0.47754454  0.52119399  0.52407349
   0.48551521  0.49728323  0.49705372
   0.53645935  0.49172858  0.49051532
   0.55402185  0.51514456  0.51658587
Direct configuration=     9
   0.47335334  0.46441918  0.50617601
   0.47312315  0.51021267  0.46558153
   0.47754643  0.52119392  0.52407305
   0.48551377  0.49728138  0.49705408
   0.53645285  0.49173331  0.49051435
   0.55403291  0.51514835  0.51658097
Direct configuration=    10
   0.47335472  0.46441685  0.50618211
   0.47311505  0.51020651  0.46558291
   0.47754888  0.52119376  0.52407255
   0.48551165  0.49727895  0.49705457
   0.53644961  0.49174577  0.49052080
   0.55404256  0.51514696  0.51656706
Direct configuration=    11
   0.47335501  0.46441685  0.50618242
   0.47311506  0.51020640  0.46558305
   0.47754872  0.52119389  0.52407271
   0.48551195  0.49727894  0.49705469
   0.53644648  0.49174147  0.49051592
   0.55404525  0.51515125  0.51657119
Direct configuration=    12
   0.47335508  0.46441682  0.50618261
   0.47311489  0.51020625  0.46558312
   0.47754875  0.52119391  0.52407274
   0.48551195  0.49727889  0.49705474
   0.53644657  0.49174175  0.49051602
   0.55404523  0.51515118  0.51657076
Direct configuration=    13
   0.47335522  0.46441674  0.50618298
   0.47311455  0.51020596  0.46558325
   0.47754880  0.52119395  0.52407280
   0.48551197  0.49727880  0.49705485
   0.53644672  0.49174228  0.49051620
   0.55404521  0.51515108  0.51656993
Direct configuration=    14
   0.47335544  0.46441663  0.50618355
   0.47311404  0.51020553  0.46558345
   0.47754888  0.52119401  0.52407288
   0.48551199  0.49727867  0.49705502
   0.53644683  0.49174292  0.49051629
   0.55404528  0.51515105  0.51656881
Direct configuration=    15
   0.47335575  0.46441649  0.50618430
   0.47311339  0.51020495  0.46558374
   0.47754899  0.52119409  0.52407299
   0.48551202  0.49727851  0.49705524
   0.53644679  0.49174351  0.49051613
   0.55404552  0.51515125  0.51656760
Direct configuration=    16
   0.47335614  0.46441634  0.50618520
   0.47311263  0.51020427  0.46558409
   0.47754911  0.52119418  0.52407313
   0.48551206  0.49727832  0.49705552
   0.53644654  0.49174395  0.49051563
   0.55404597  0.51515175  0.51656644
Direct configuration=    17
   0.47335661  0.46441617  0.50618623
   0.47311178  0.51020348  0.46558450
   0.47754925  0.52119429  0.52407328
   0.48551209  0.49727812  0.49705583
   0.53644610  0.49174421  0.49051480
   0.55404662  0.51515254  0.51656535
Direct configuration=    18
   0.47335721  0.46441596  0.50618752
   0.47311073  0.51020250  0.46558504
   0.47754943  0.52119442  0.52407347
   0.48551210  0.49727789  0.49705623
   0.53644548  0.49174441  0.49051363
   0.55404750  0.51515363  0.51656411
Direct configuration=    19
   0.47335797  0.46441570  0.50618911
   0.47310943  0.51020128  0.46558571
   0.47754967  0.52119456  0.52407368
   0.48551206  0.49727762  0.49705673
   0.53644483  0.49174481  0.49051237
   0.55404850  0.51515484  0.51656239
Direct configuration=    20
   0.47335886  0.46441540  0.50619098
   0.47310788  0.51019984  0.46558652
   0.47754996  0.52119470  0.52407391
   0.48551194  0.49727732  0.49705733
   0.53644439  0.49174569  0.49051134
   0.55404944  0.51515586  0.51655993
Direct configuration=    21
   0.47335989  0.46441504  0.50619311
   0.47310608  0.51019818  0.46558745
   0.47755031  0.52119486  0.52407417
   0.48551172  0.49727698  0.49705801
   0.53644417  0.49174708  0.49051059
   0.55405030  0.51515667  0.51655667
Direct configuration=    22
   0.47336112  0.46441466  0.50619552
   0.47310401  0.51019633  0.46558850
   0.47755074  0.52119510  0.52407447
   0.48551143  0.49727644  0.49705895
   0.53644370  0.49174843  0.49050942
   0.55405146  0.51515785  0.51655314
Direct configuration=    23
   0.47336245  0.46441421  0.50619807
   0.47310184  0.51019444  0.46558960
   0.47755122  0.52119541  0.52407483
   0.48551115  0.49727583  0.49705999
   0.53644268  0.49174920  0.49050745
   0.55405313  0.51515971  0.51655006
Direct configuration=    24
   0.47336365  0.46441335  0.50620072
   0.47309950  0.51019261  0.46559080
   0.47755185  0.52119589  0.52407539
   0.48551100  0.49727535  0.49706078
   0.53644131  0.49174995  0.49050538
   0.55405514  0.51516165  0.51654693
Direct configuration=    25
   0.47336362  0.46441335  0.50620070
   0.47309949  0.51019262  0.46559079
   0.47755186  0.52119589  0.52407539
   0.48551099  0.49727535  0.49706077
   0.53644142  0.49175010  0.49050554
   0.55405508  0.51516149  0.51654680
Direct configuration=    26
   0.47336358  0.46441334  0.50620070
   0.47309943  0.51019263  0.46559079
   0.47755190  0.52119587  0.52407539
   0.48551096  0.49727534  0.49706076
   0.53644157  0.49175039  0.49050581
   0.55405501  0.51516123  0.51654655
Direct configuration=    27
   0.47336356  0.46441332  0.50620078
   0.47309928  0.51019259  0.46559081
   0.47755200  0.52119587  0.52407541
   0.48551091  0.49727532  0.49706076
   0.53644169  0.49175076  0.49050603
   0.55405502  0.51516095  0.51654619
Direct configuration=    28
   0.47336357  0.46441328  0.50620098
   0.47309900  0.51019250  0.46559090
   0.47755216  0.52119588  0.52407547
   0.48551085  0.49727528  0.49706080
   0.53644170  0.49175110  0.49050604
   0.55405518  0.51516077  0.51654581
Direct configuration=    29
   0.47336365  0.46441324  0.50620136
   0.47309855  0.51019231  0.46559106
   0.47755242  0.52119592  0.52407557
   0.48551078  0.49727522  0.49706088
   0.53644155  0.49175140  0.49050577
   0.55405550  0.51516073  0.51654536
Direct configuration=    30
   0.47336381  0.46441318  0.50620198
   0.47309788  0.51019200  0.46559132
   0.47755280  0.52119600  0.52407573
   0.48551070  0.49727514  0.49706102
   0.53644124  0.49175166  0.49050515
   0.55405602  0.51516084  0.51654479
Direct configuration=    31
   0.47336413  0.46441310  0.50620305
   0.47309675  0.51019144  0.46559180
   0.47755343  0.52119616  0.52407600
   0.48551059  0.49727502  0.49706128
   0.53644070  0.49175198  0.49050402
   0.55405685  0.51516110  0.51654385
Direct configuration=    32
   0.47336467  0.46441299  0.50620486
   0.47309490  0.51019051  0.46559261
   0.47755446  0.52119645  0.52407643
   0.48551045  0.49727484  0.49706174
   0.53643992  0.49175252  0.49050222
   0.55405806  0.51516150  0.51654215
Direct configuration=    33
   0.47336558  0.46441284  0.50620779
   0.47309194  0.51018897  0.46559395
   0.47755607  0.52119695  0.52407712
   0.48551024  0.49727458  0.49706251
   0.53643894  0.49175364  0.49049966
   0.55405969  0.51516183  0.51653897
Direct configuration=    34
   0.47336689  0.46441266  0.50621204
   0.47308765  0.51018673  0.46559592
   0.47755839  0.52119768  0.52407811
   0.48550995  0.49727422  0.49706365
   0.53643777  0.49175543  0.49049624
   0.55406182  0.51516209  0.51653404
Direct configuration=    35
   0.47336869  0.46441243  0.50621778
   0.47308186  0.51018368  0.46559862
   0.47756145  0.52119868  0.52407941
   0.48550953  0.49727378  0.49706519
   0.53643632  0.49175787  0.49049184
   0.55406461  0.51516236  0.51652715
Direct configuration=    36
   0.47337101  0.46441218  0.50622508
   0.47307450  0.51017980  0.46560209
   0.47756526  0.52119995  0.52408101
   0.48550898  0.49727327  0.49706717
   0.53643433  0.49176062  0.49048614
   0.55406837  0.51516300  0.51651851
Direct configuration=    37
   0.47337389  0.46441191  0.50623378
   0.47306577  0.51017517  0.46560627
   0.47756966  0.52120146  0.52408288
   0.48550833  0.49727270  0.49706956
   0.53643140  0.49176322  0.49047901
   0.55407341  0.51516435  0.51650851
Direct configuration=    38
   0.47337706  0.46441164  0.50624312
   0.47305619  0.51017019  0.46561075
   0.47757410  0.52120306  0.52408477
   0.48550745  0.49727205  0.49707217
   0.53642839  0.49176643  0.49047292
   0.55407927  0.51516545  0.51649627
Direct configuration=    39
   0.47337702  0.46441163  0.50624299
   0.47305631  0.51017025  0.46561069
   0.47757401  0.52120304  0.52408475
   0.48550745  0.49727204  0.49707213
   0.53642835  0.49176633  0.49047301
   0.55407931  0.51516551  0.51649642
Direct configuration=    40
   0.47337693  0.46441162  0.50624275
   0.47305654  0.51017038  0.46561057
   0.47757384  0.52120299  0.52408469
   0.48550746  0.49727203  0.49707207
   0.53642828  0.49176617  0.49047322
   0.55407941  0.51516562  0.51649670
Direct configuration=    41
   0.47337680  0.46441160  0.50624240
   0.47305686  0.51017055  0.46561039
   0.47757360  0.52120292  0.52408460
   0.48550746  0.49727201  0.49707196
   0.53642818  0.49176598  0.49047357
   0.55407957  0.51516575  0.51649706
Direct configuration=    42
   0.47337662  0.46441157  0.50624197
   0.47305723  0.51017075  0.46561017
   0.47757331  0.52120283  0.52408449
   0.48550744  0.49727196  0.49707183
   0.53642806  0.49176584  0.49047410
   0.55407980  0.51516586  0.51649743
Direct configuration=    43
   0.47337639  0.46441151  0.50624149
   0.47305764  0.51017097  0.46560992
   0.47757299  0.52120271  0.52408436
   0.48550742  0.49727191  0.49707167
   0.53642792  0.49176579  0.49047480
   0.55408009  0.51516592  0.51649775
Direct configuration=    44
   0.47337615  0.46441144  0.50624100
   0.47305805  0.51017118  0.46560966
   0.47757268  0.52120258  0.52408422
   0.48550737  0.49727183  0.49707151
   0.53642778  0.49176585  0.49047564
   0.55408044  0.51516593  0.51649797
Direct configuration=    45
   0.47337586  0.46441134  0.50624051
   0.47305843  0.51017138  0.46560940
   0.47757237  0.52120244  0.52408406
   0.48550729  0.49727173  0.49707134
   0.53642756  0.49176601  0.49047665
   0.55408095  0.51516591  0.51649804
Direct configuration=    46
   0.47337556  0.46441122  0.50624011
   0.47305870  0.51017151  0.46560917
   0.47757213  0.52120231  0.52408391
   0.48550717  0.49727161  0.49707120
   0.53642718  0.49176620  0.49047764
   0.55408172  0.51516595  0.51649797
Direct configuration=    47
   0.47337556  0.46441122  0.50624014
   0.47305867  0.51017150  0.46560918
   0.47757215  0.52120232  0.52408391
   0.48550716  0.49727161  0.49707120
   0.53642715  0.49176620  0.49047761
   0.55408176  0.51516597  0.51649794
Direct configuration=    48
   0.47337557  0.46441121  0.50624021
   0.47305860  0.51017146  0.46560921
   0.47757219  0.52120233  0.52408393
   0.48550715  0.49727160  0.49707123
   0.53642707  0.49176621  0.49047754
   0.55408187  0.51516601  0.51649787
Direct configuration=    49
   0.47337559  0.46441120  0.50624035
   0.47305847  0.51017138  0.46560928
   0.47757227  0.52120235  0.52408396
   0.48550713  0.49727158  0.49707126
   0.53642696  0.49176623  0.49047742
   0.55408204  0.51516607  0.51649773
Direct configuration=    50
   0.47337563  0.46441118  0.50624056
   0.47305826  0.51017126  0.46560938
   0.47757239  0.52120239  0.52408401
   0.48550709  0.49727155  0.49707133
   0.53642679  0.49176628  0.49047724
   0.55408229  0.51516614  0.51649748
Direct configuration=    51
   0.47337569  0.46441115  0.50624088
   0.47305795  0.51017109  0.46560953
   0.47757256  0.52120246  0.52408409
   0.48550705  0.49727151  0.49707143
   0.53642658  0.49176638  0.49047699
   0.55408263  0.51516622  0.51649708
Direct configuration=    52
   0.47337578  0.46441112  0.50624133
   0.47305750  0.51017083  0.46560974
   0.47757280  0.52120255  0.52408420
   0.48550698  0.49727145  0.49707156
   0.53642630  0.49176653  0.49047666
   0.55408309  0.51516632  0.51649650
Direct configuration=    53
   0.47337591  0.46441108  0.50624203
   0.47305681  0.51017044  0.46561007
   0.47757317  0.52120268  0.52408436
   0.48550689  0.49727137  0.49707178
   0.53642591  0.49176678  0.49047618
   0.55408376  0.51516645  0.51649558
Direct configuration=    54
   0.47337610  0.46441102  0.50624303
   0.47305581  0.51016988  0.46561054
   0.47757370  0.52120288  0.52408459
   0.48550676  0.49727124  0.49707207
   0.53642536  0.49176717  0.49047554
   0.55408473  0.51516662  0.51649423
Direct configuration=    55
   0.47337635  0.46441094  0.50624440
   0.47305443  0.51016909  0.46561117
   0.47757442  0.52120313  0.52408489
   0.48550659  0.49727107  0.49707246
   0.53642463  0.49176777  0.49047476
   0.55408603  0.51516679  0.51649231
Direct configuration=    56
   0.47337668  0.46441084  0.50624623
   0.47305258  0.51016805  0.46561201
   0.47757539  0.52120347  0.52408529
   0.48550635  0.49727083  0.49707298
   0.53642371  0.49176862  0.49047378
   0.55408776  0.51516699  0.51648971
Direct configuration=    57
   0.47337709  0.46441072  0.50624858
   0.47305018  0.51016670  0.46561309
   0.47757662  0.52120389  0.52408579
   0.48550604  0.49727053  0.49707364
   0.53642252  0.49176973  0.49047258
   0.55409000  0.51516723  0.51648632
Direct configuration=    58
   0.47337762  0.46441056  0.50625155
   0.47304713  0.51016500  0.46561445
   0.47757817  0.52120442  0.52408640
   0.48550565  0.49727015  0.49707446
   0.53642099  0.49177107  0.49047104
   0.55409289  0.51516761  0.51648209
Direct configuration=    59
   0.47337826  0.46441038  0.50625521
   0.47304337  0.51016290  0.46561612
   0.47758006  0.52120505  0.52408714
   0.48550516  0.49726968  0.49707546
   0.53641906  0.49177259  0.49046909
   0.55409656  0.51516819  0.51647697
Direct configuration=    60
   0.47337901  0.46441016  0.50625961
   0.47303882  0.51016038  0.46561814
   0.47758228  0.52120580  0.52408799
   0.48550455  0.49726914  0.49707665
   0.53641669  0.49177429  0.49046674
   0.55410111  0.51516903  0.51647088
Direct configuration=    61
   0.47337986  0.46440992  0.50626474
   0.47303345  0.51015744  0.46562048
   0.47758482  0.52120664  0.52408893
   0.48550382  0.49726849  0.49707800
   0.53641400  0.49177631  0.49046425
   0.55410652  0.51517000  0.51646360
Direct configuration=    62
   0.47338070  0.46440966  0.50627042
   0.47302736  0.51015417  0.46562305
   0.47758753  0.52120752  0.52408987
   0.48550295  0.49726769  0.49707947
   0.53641119  0.49177882  0.49046216
   0.55411273  0.51517095  0.51645504
Direct configuration=    63
   0.47338069  0.46440966  0.50627041
   0.47302736  0.51015418  0.46562304
   0.47758751  0.52120752  0.52408986
   0.48550295  0.49726768  0.49707946
   0.53641117  0.49177879  0.49046217
   0.55411278  0.51517098  0.51645507
Direct configuration=    64
   0.47338067  0.46440965  0.50627040
   0.47302735  0.51015418  0.46562303
   0.47758750  0.52120751  0.52408984
   0.48550295  0.49726765  0.49707945
   0.53641111  0.49177876  0.49046220
   0.55411288  0.51517104  0.51645508
Direct configuration=    65
   0.47338065  0.46440965  0.50627044
   0.47302729  0.51015416  0.46562303
   0.47758752  0.52120751  0.52408982
   0.48550294  0.49726761  0.49707943
   0.53641099  0.49177876  0.49046224
   0.55411308  0.51517113  0.51645505
Direct configuration=    66
   0.47338061  0.46440963  0.50627052
   0.47302715  0.51015410  0.46562304
   0.47758758  0.52120751  0.52408979
   0.48550292  0.49726753  0.49707942
   0.53641082  0.49177880  0.49046229
   0.55411339  0.51517124  0.51645494
Direct configuration=    67
   0.47338056  0.46440960  0.50627070
   0.47302689  0.51015398  0.46562308
   0.47758771  0.52120752  0.52408975
   0.48550287  0.49726741  0.49707941
   0.53641054  0.49177892  0.49046236
   0.55411388  0.51517138  0.51645470
Direct configuration=    68
   0.47338050  0.46440954  0.50627100
   0.47302649  0.51015378  0.46562316
   0.47758794  0.52120755  0.52408971
   0.48550280  0.49726724  0.49707941
   0.53641018  0.49177914  0.49046243
   0.55411455  0.51517156  0.51645429
Direct configuration=    69
   0.47338043  0.46440944  0.50627153
   0.47302583  0.51015344  0.46562333
   0.47758833  0.52120761  0.52408967
   0.48550270  0.49726701  0.49707946
   0.53640967  0.49177953  0.49046249
   0.55411549  0.51517178  0.51645353
Direct configuration=    70
   0.47338037  0.46440929  0.50627241
   0.47302479  0.51015288  0.46562365
   0.47758896  0.52120773  0.52408963
   0.48550256  0.49726668  0.49707957
   0.53640897  0.49178013  0.49046247
   0.55411681  0.51517209  0.51645226
Direct configuration=    71
   0.47338033  0.46440909  0.50627382
   0.47302322  0.51015200  0.46562421
   0.47758991  0.52120795  0.52408964
   0.48550236  0.49726625  0.49707980
   0.53640801  0.49178096  0.49046226
   0.55411864  0.51517256  0.51645027
Direct configuration=    72
   0.47338032  0.46440882  0.50627584
   0.47302100  0.51015074  0.46562505
   0.47759122  0.52120828  0.52408968
   0.48550209  0.49726568  0.49708017
   0.53640674  0.49178208  0.49046185
   0.55412110  0.51517321  0.51644740
Direct configuration=    73
   0.47338035  0.46440849  0.50627858
   0.47301806  0.51014901  0.46562623
   0.47759293  0.52120872  0.52408978
   0.48550171  0.49726499  0.49708071
   0.53640511  0.49178353  0.49046120
   0.55412430  0.51517406  0.51644350
Direct configuration=    74
   0.47338035  0.46440849  0.50627858
   0.47301806  0.51014901  0.46562623
   0.47759293  0.52120872  0.52408978
   0.48550171  0.49726499  0.49708071
   0.53640511  0.49178353  0.49046120
   0.55412430  0.51517406  0.51644350
