  22  22   0   0
  0.1227273E+04  0.3000000E-08  0.3000000E-08  0.3000000E-08  0.0000000E+00
  1.000000000000000E-004
  CAR 
 unknown system                          
      2.19628591    -28.18713721  301     -4.48727594      1.00000000
    -28.187  0.0000E+00  0.0000E+00
    -28.086  0.0000E+00  0.0000E+00
    -27.985  0.0000E+00  0.0000E+00
    -27.883  0.0000E+00  0.0000E+00
    -27.782  0.0000E+00  0.0000E+00
    -27.681  0.0000E+00  0.0000E+00
    -27.579  0.0000E+00  0.0000E+00
    -27.478  0.0000E+00  0.0000E+00
    -27.377  0.0000E+00  0.0000E+00
    -27.276  0.4604E-15  0.4663E-16
    -27.174  0.9620E-13  0.9789E-14
    -27.073  0.1221E-10  0.1246E-11
    -26.972  0.9364E-09  0.9609E-10
    -26.871  0.4348E-07  0.4499E-08
    -26.769  0.1224E-05  0.1284E-06
    -26.668  0.2091E-04  0.2246E-05
    -26.567  0.2174E-03  0.2426E-04
    -26.465  0.1377E-02  0.1637E-03
    -26.364  0.5320E-02  0.7024E-03
    -26.263  0.1256E-01  0.1975E-02
    -26.162  0.1814E-01  0.3811E-02
    -26.060  0.1603E-01  0.5435E-02
    -25.959  0.8728E-02  0.6319E-02
    -25.858  0.3434E-02  0.6666E-02
    -25.756  0.3426E-02  0.7013E-02
    -25.655  0.8709E-02  0.7895E-02
    -25.554  0.1601E-01  0.9517E-02
    -25.453  0.1814E-01  0.1135E-01
    -25.351  0.1258E-01  0.1263E-01
    -25.250  0.5335E-02  0.1317E-01
    -25.149  0.1382E-02  0.1331E-01
    -25.048  0.2186E-03  0.1333E-01
    -24.946  0.2105E-04  0.1333E-01
    -24.845  0.1234E-05  0.1333E-01
    -24.744  0.4389E-07  0.1333E-01
    -24.642  0.9466E-09  0.1333E-01
    -24.541  0.1236E-10  0.1333E-01
    -24.440  0.1286E-12  0.1333E-01
    -24.339  0.4404E-11  0.1333E-01
    -24.237  0.3772E-09  0.1333E-01
    -24.136  0.1955E-07  0.1333E-01
    -24.035  0.6140E-06  0.1333E-01
    -23.933  0.1170E-04  0.1333E-01
    -23.832  0.1357E-03  0.1335E-01
    -23.731  0.9578E-03  0.1345E-01
    -23.630  0.4125E-02  0.1386E-01
    -23.528  0.1085E-01  0.1496E-01
    -23.427  0.1745E-01  0.1673E-01
    -23.326  0.1717E-01  0.1847E-01
    -23.225  0.1034E-01  0.1952E-01
    -23.123  0.3858E-02  0.1991E-01
    -23.022  0.1320E-02  0.2004E-01
    -22.921  0.2557E-02  0.2030E-01
    -22.819  0.7826E-02  0.2109E-01
    -22.718  0.1531E-01  0.2264E-01
    -22.617  0.1833E-01  0.2450E-01
    -22.516  0.1343E-01  0.2586E-01
    -22.414  0.6020E-02  0.2647E-01
    -22.313  0.1649E-02  0.2664E-01
    -22.212  0.2755E-03  0.2666E-01
    -22.110  0.2806E-04  0.2667E-01
    -22.009  0.1739E-05  0.2667E-01
    -21.908  0.6543E-07  0.2667E-01
    -21.807  0.1493E-08  0.2667E-01
    -21.705  0.2062E-10  0.2667E-01
    -21.604  0.1722E-12  0.2667E-01
    -21.503  0.8697E-15  0.2667E-01
    -21.402  0.0000E+00  0.2667E-01
    -21.300  0.0000E+00  0.2667E-01
    -21.199  0.0000E+00  0.2667E-01
    -21.098  0.0000E+00  0.2667E-01
    -20.996  0.0000E+00  0.2667E-01
    -20.895  0.0000E+00  0.2667E-01
    -20.794  0.0000E+00  0.2667E-01
    -20.693  0.1608E-15  0.2667E-01
    -20.591  0.3693E-13  0.2667E-01
    -20.490  0.5148E-11  0.2667E-01
    -20.389  0.4336E-09  0.2667E-01
    -20.287  0.2210E-07  0.2667E-01
    -20.186  0.6827E-06  0.2667E-01
    -20.085  0.1280E-04  0.2667E-01
    -19.984  0.1459E-03  0.2668E-01
    -19.882  0.1013E-02  0.2679E-01
    -19.781  0.4293E-02  0.2722E-01
    -19.680  0.1111E-01  0.2835E-01
    -19.579  0.1758E-01  0.3013E-01
    -19.477  0.1702E-01  0.3185E-01
    -19.376  0.1008E-01  0.3287E-01
    -19.275  0.3648E-02  0.3324E-01
    -19.173  0.8068E-03  0.3332E-01
    -19.072  0.1088E-03  0.3333E-01
    -18.971  0.8950E-05  0.3333E-01
    -18.870  0.8967E-06  0.3333E-01
    -18.768  0.9023E-05  0.3333E-01
    -18.667  0.1095E-03  0.3335E-01
    -18.566  0.8110E-03  0.3343E-01
    -18.464  0.3662E-02  0.3380E-01
    -18.363  0.1010E-01  0.3482E-01
    -18.262  0.1703E-01  0.3655E-01
    -18.161  0.1757E-01  0.3833E-01
    -18.059  0.1109E-01  0.3945E-01
    -17.958  0.4279E-02  0.3988E-01
    -17.857  0.1020E-02  0.3999E-01
    -17.755  0.2813E-03  0.4001E-01
    -17.654  0.9741E-03  0.4011E-01
    -17.553  0.4136E-02  0.4053E-01
    -17.452  0.1087E-01  0.4163E-01
    -17.350  0.1746E-01  0.4340E-01
    -17.249  0.1716E-01  0.4514E-01
    -17.148  0.1032E-01  0.4618E-01
    -17.047  0.3794E-02  0.4657E-01
    -16.945  0.8518E-03  0.4665E-01
    -16.844  0.1167E-03  0.4667E-01
    -16.743  0.1095E-04  0.4667E-01
    -16.641  0.2129E-04  0.4667E-01
    -16.540  0.2164E-03  0.4669E-01
    -16.439  0.1372E-02  0.4683E-01
    -16.338  0.5307E-02  0.4737E-01
    -16.236  0.1254E-01  0.4864E-01
    -16.135  0.1813E-01  0.5047E-01
    -16.034  0.1603E-01  0.5210E-01
    -15.932  0.8674E-02  0.5298E-01
    -15.831  0.2868E-02  0.5327E-01
    -15.730  0.5792E-03  0.5333E-01
    -15.629  0.7131E-04  0.5333E-01
    -15.527  0.5345E-05  0.5333E-01
    -15.426  0.2569E-06  0.5333E-01
    -15.325  0.4526E-06  0.5333E-01
    -15.224  0.8931E-05  0.5333E-01
    -15.122  0.1088E-03  0.5335E-01
    -15.021  0.8065E-03  0.5343E-01
    -14.920  0.3647E-02  0.5380E-01
    -14.818  0.1008E-01  0.5482E-01
    -14.717  0.1702E-01  0.5654E-01
    -14.616  0.1758E-01  0.5832E-01
    -14.515  0.1112E-01  0.5945E-01
    -14.413  0.4355E-02  0.5989E-01
    -14.312  0.1524E-02  0.6004E-01
    -14.211  0.2760E-02  0.6032E-01
    -14.109  0.8185E-02  0.6115E-01
    -14.008  0.1562E-01  0.6273E-01
    -13.907  0.1826E-01  0.6458E-01
    -13.806  0.1307E-01  0.6591E-01
    -13.704  0.5775E-02  0.6649E-01
    -13.603  0.2040E-02  0.6670E-01
    -13.502  0.2871E-02  0.6699E-01
    -13.401  0.8214E-02  0.6782E-01
    -13.299  0.1564E-01  0.6940E-01
    -13.198  0.1826E-01  0.7125E-01
    -13.097  0.1305E-01  0.7257E-01
    -12.995  0.5746E-02  0.7316E-01
    -12.894  0.1932E-02  0.7335E-01
    -12.793  0.2471E-02  0.7360E-01
    -12.692  0.7380E-02  0.7435E-01
    -12.590  0.1487E-01  0.7586E-01
    -12.489  0.1839E-01  0.7772E-01
    -12.388  0.1392E-01  0.7913E-01
    -12.286  0.6439E-02  0.7978E-01
    -12.185  0.1821E-02  0.7996E-01
    -12.084  0.3235E-03  0.8000E-01
    -11.983  0.1450E-03  0.8001E-01
    -11.881  0.8288E-03  0.8010E-01
    -11.780  0.3743E-02  0.8048E-01
    -11.679  0.1053E-01  0.8154E-01
    -11.578  0.1906E-01  0.8347E-01
    -11.476  0.2437E-01  0.8594E-01
    -11.375  0.2537E-01  0.8851E-01
    -11.274  0.2281E-01  0.9082E-01
    -11.172  0.1669E-01  0.9251E-01
    -11.071  0.1280E-01  0.9381E-01
    -10.970  0.1865E-01  0.9570E-01
    -10.869  0.3078E-01  0.9881E-01
    -10.767  0.3537E-01  0.1024E+00
    -10.666  0.2637E-01  0.1051E+00
    -10.565  0.1446E-01  0.1065E+00
    -10.463  0.1169E-01  0.1077E+00
    -10.362  0.1865E-01  0.1096E+00
    -10.261  0.2814E-01  0.1125E+00
    -10.160  0.3558E-01  0.1161E+00
    -10.058  0.4179E-01  0.1203E+00
     -9.957  0.4552E-01  0.1249E+00
     -9.856  0.4086E-01  0.1290E+00
     -9.755  0.2702E-01  0.1318E+00
     -9.653  0.1370E-01  0.1332E+00
     -9.552  0.1016E-01  0.1342E+00
     -9.451  0.1563E-01  0.1358E+00
     -9.349  0.2249E-01  0.1381E+00
     -9.248  0.2700E-01  0.1408E+00
     -9.147  0.3200E-01  0.1440E+00
     -9.046  0.3554E-01  0.1476E+00
     -8.944  0.3180E-01  0.1508E+00
     -8.843  0.2461E-01  0.1533E+00
     -8.742  0.2393E-01  0.1558E+00
     -8.640  0.2979E-01  0.1588E+00
     -8.539  0.3223E-01  0.1620E+00
     -8.438  0.2546E-01  0.1646E+00
     -8.337  0.1387E-01  0.1660E+00
     -8.235  0.5001E-02  0.1665E+00
     -8.134  0.1153E-02  0.1666E+00
     -8.033  0.1661E-03  0.1667E+00
     -7.932  0.1476E-04  0.1667E+00
     -7.830  0.8025E-06  0.1667E+00
     -7.729  0.2656E-07  0.1667E+00
     -7.628  0.6560E-09  0.1667E+00
     -7.526  0.7251E-08  0.1667E+00
     -7.425  0.2596E-06  0.1667E+00
     -7.324  0.5645E-05  0.1667E+00
     -7.223  0.7460E-04  0.1667E+00
     -7.121  0.6001E-03  0.1667E+00
     -7.020  0.2944E-02  0.1670E+00
     -6.919  0.8818E-02  0.1679E+00
     -6.817  0.1615E-01  0.1696E+00
     -6.716  0.1809E-01  0.1714E+00
     -6.615  0.1248E-01  0.1727E+00
     -6.514  0.5892E-02  0.1733E+00
     -6.412  0.4617E-02  0.1737E+00
     -6.311  0.9689E-02  0.1747E+00
     -6.210  0.1695E-01  0.1764E+00
     -6.109  0.1973E-01  0.1784E+00
     -6.007  0.1830E-01  0.1803E+00
     -5.906  0.1878E-01  0.1822E+00
     -5.805  0.1976E-01  0.1842E+00
     -5.703  0.1622E-01  0.1858E+00
     -5.602  0.1235E-01  0.1871E+00
     -5.501  0.1444E-01  0.1885E+00
     -5.400  0.1844E-01  0.1904E+00
     -5.298  0.1629E-01  0.1921E+00
     -5.197  0.8944E-02  0.1930E+00
     -5.096  0.3009E-02  0.1933E+00
     -4.994  0.6184E-03  0.1933E+00
     -4.893  0.7749E-04  0.1933E+00
     -4.792  0.5912E-05  0.1933E+00
     -4.691  0.2741E-06  0.1933E+00
     -4.589  0.7712E-08  0.1933E+00
     -4.488  0.1314E-09  0.1933E+00
     -4.387  0.1355E-11  0.1933E+00
     -4.286  0.8437E-14  0.1933E+00
     -4.184  0.2923E-16  0.1933E+00
     -4.083  0.0000E+00  0.1933E+00
     -3.982  0.0000E+00  0.1933E+00
     -3.880  0.0000E+00  0.1933E+00
     -3.779  0.0000E+00  0.1933E+00
     -3.678  0.0000E+00  0.1933E+00
     -3.577  0.0000E+00  0.1933E+00
     -3.475  0.0000E+00  0.1933E+00
     -3.374  0.0000E+00  0.1933E+00
     -3.273  0.0000E+00  0.1933E+00
     -3.171  0.0000E+00  0.1933E+00
     -3.070  0.0000E+00  0.1933E+00
     -2.969  0.0000E+00  0.1933E+00
     -2.868  0.0000E+00  0.1933E+00
     -2.766  0.0000E+00  0.1933E+00
     -2.665  0.0000E+00  0.1933E+00
     -2.564  0.0000E+00  0.1933E+00
     -2.463  0.0000E+00  0.1933E+00
     -2.361  0.0000E+00  0.1933E+00
     -2.260  0.1754E-15  0.1933E+00
     -2.159  0.4035E-13  0.1933E+00
     -2.057  0.5576E-11  0.1933E+00
     -1.956  0.4657E-09  0.1933E+00
     -1.855  0.2354E-07  0.1933E+00
     -1.754  0.7217E-06  0.1933E+00
     -1.652  0.1344E-04  0.1933E+00
     -1.551  0.1527E-03  0.1934E+00
     -1.450  0.1064E-02  0.1935E+00
     -1.348  0.4601E-02  0.1939E+00
     -1.247  0.1263E-01  0.1952E+00
     -1.146  0.2299E-01  0.1975E+00
     -1.045  0.2954E-01  0.2005E+00
     -0.943  0.2811E-01  0.2034E+00
     -0.842  0.1974E-01  0.2054E+00
     -0.741  0.1060E-01  0.2064E+00
     -0.640  0.8141E-02  0.2073E+00
     -0.538  0.1533E-01  0.2088E+00
     -0.437  0.2910E-01  0.2118E+00
     -0.336  0.4289E-01  0.2161E+00
     -0.234  0.5193E-01  0.2214E+00
     -0.133  0.5898E-01  0.2273E+00
     -0.032  0.7490E-01  0.2349E+00
      0.069  0.1013E+00  0.2452E+00
      0.171  0.1146E+00  0.2568E+00
      0.272  0.9233E-01  0.2661E+00
      0.373  0.4952E-01  0.2712E+00
      0.475  0.1715E-01  0.2729E+00
      0.576  0.3771E-02  0.2733E+00
      0.677  0.5212E-03  0.2733E+00
      0.778  0.4492E-04  0.2733E+00
      0.880  0.2399E-05  0.2733E+00
      0.981  0.7899E-07  0.2733E+00
      1.082  0.1595E-08  0.2733E+00
      1.184  0.1969E-10  0.2733E+00
      1.285  0.1481E-12  0.2733E+00
      1.386  0.6778E-15  0.2733E+00
      1.487  0.0000E+00  0.2733E+00
      1.589  0.0000E+00  0.2733E+00
      1.690  0.0000E+00  0.2733E+00
      1.791  0.0000E+00  0.2733E+00
      1.892  0.0000E+00  0.2733E+00
      1.994  0.0000E+00  0.2733E+00
      2.095  0.0000E+00  0.2733E+00
      2.196  0.0000E+00  0.2733E+00
