   22   22  300    1
  0.1227273E+04  0.3000000E-08  0.3000000E-08  0.3000000E-08  0.0000000E+00
  1.000000000000000E-004
  CAR 
 unknown system                          
     58      4     41
 
  0.2500000E+00  0.2500000E+00  0.2500000E+00  0.2500000E+00
    1      -26.187134   1.000000
    2      -25.528081   1.000000
    3      -23.430399   1.000000
    4      -22.680929   1.000000
    5      -19.585203   1.000000
    6      -18.255483   1.000000
    7      -17.353938   1.000000
    8      -16.160384   1.000000
    9      -14.710429   1.000000
   10      -13.975988   1.000000
   11      -13.267284   1.000000
   12      -12.546525   1.000000
   13      -11.572053   1.000000
   14      -11.323498   1.000000
   15      -10.874408   1.000000
   16      -10.796893   1.000000
   17      -10.322171   1.000000
   18      -10.129405   1.000000
   19       -9.970823   1.000000
   20       -9.887941   1.000000
   21       -9.397199   1.000000
   22       -9.137457   1.000000
   23       -9.010898   1.000000
   24       -8.679663   1.000000
   25       -8.527477   1.000000
   26       -6.794081   1.000000
   27       -6.194802   1.000000
   28       -5.850186   1.000000
   29       -5.421312   1.000000
   30       -1.154323   0.000000
   31       -0.969397   0.000000
   32       -0.450483   0.000000
   33       -0.297357   0.000000
   34       -0.218704   0.000000
   35       -0.051081   0.000000
   36        0.045545   0.000000
   37        0.112919   0.000000
   38        0.126357   0.000000
   39        0.135545   0.000000
   40        0.186991   0.000000
   41        0.196286   0.000000
 
 -0.2500000E+00  0.2500000E+00  0.2500000E+00  0.2500000E+00
    1      -26.187132   1.000000
    2      -25.528083   1.000000
    3      -23.430399   1.000000
    4      -22.680929   1.000000
    5      -19.585205   1.000000
    6      -18.255483   1.000000
    7      -17.353936   1.000000
    8      -16.160387   1.000000
    9      -14.710430   1.000000
   10      -13.975993   1.000000
   11      -13.267277   1.000000
   12      -12.546518   1.000000
   13      -11.572062   1.000000
   14      -11.323494   1.000000
   15      -10.874404   1.000000
   16      -10.796907   1.000000
   17      -10.322179   1.000000
   18      -10.129411   1.000000
   19       -9.970826   1.000000
   20       -9.887947   1.000000
   21       -9.397203   1.000000
   22       -9.137454   1.000000
   23       -9.010895   1.000000
   24       -8.679645   1.000000
   25       -8.527473   1.000000
   26       -6.794086   1.000000
   27       -6.194804   1.000000
   28       -5.850190   1.000000
   29       -5.421292   1.000000
   30       -1.154321   0.000000
   31       -0.969398   0.000000
   32       -0.450493   0.000000
   33       -0.297357   0.000000
   34       -0.218707   0.000000
   35       -0.050934   0.000000
   36        0.044964   0.000000
   37        0.108269   0.000000
   38        0.130514   0.000000
   39        0.142971   0.000000
   40        0.176612   0.000000
   41        0.196197   0.000000
 
  0.2500000E+00 -0.2500000E+00  0.2500000E+00  0.2500000E+00
    1      -26.187137   1.000000
    2      -25.528078   1.000000
    3      -23.430403   1.000000
    4      -22.680926   1.000000
    5      -19.585203   1.000000
    6      -18.255486   1.000000
    7      -17.353936   1.000000
    8      -16.160383   1.000000
    9      -14.710428   1.000000
   10      -13.975997   1.000000
   11      -13.267283   1.000000
   12      -12.546523   1.000000
   13      -11.572061   1.000000
   14      -11.323498   1.000000
   15      -10.874406   1.000000
   16      -10.796910   1.000000
   17      -10.322165   1.000000
   18      -10.129405   1.000000
   19       -9.970825   1.000000
   20       -9.887952   1.000000
   21       -9.397208   1.000000
   22       -9.137462   1.000000
   23       -9.010888   1.000000
   24       -8.679651   1.000000
   25       -8.527471   1.000000
   26       -6.794079   1.000000
   27       -6.194797   1.000000
   28       -5.850177   1.000000
   29       -5.421294   1.000000
   30       -1.154313   0.000000
   31       -0.969401   0.000000
   32       -0.450503   0.000000
   33       -0.297350   0.000000
   34       -0.218711   0.000000
   35       -0.051155   0.000000
   36        0.044605   0.000000
   37        0.112423   0.000000
   38        0.124388   0.000000
   39        0.145717   0.000000
   40        0.180201   0.000000
   41        0.196125   0.000000
 
 -0.2500000E+00 -0.2500000E+00  0.2500000E+00  0.2500000E+00
    1      -26.187135   1.000000
    2      -25.528084   1.000000
    3      -23.430400   1.000000
    4      -22.680929   1.000000
    5      -19.585202   1.000000
    6      -18.255486   1.000000
    7      -17.353938   1.000000
    8      -16.160385   1.000000
    9      -14.710422   1.000000
   10      -13.975998   1.000000
   11      -13.267280   1.000000
   12      -12.546528   1.000000
   13      -11.572065   1.000000
   14      -11.323495   1.000000
   15      -10.874417   1.000000
   16      -10.796902   1.000000
   17      -10.322172   1.000000
   18      -10.129409   1.000000
   19       -9.970827   1.000000
   20       -9.887945   1.000000
   21       -9.397212   1.000000
   22       -9.137467   1.000000
   23       -9.010888   1.000000
   24       -8.679643   1.000000
   25       -8.527488   1.000000
   26       -6.794081   1.000000
   27       -6.194800   1.000000
   28       -5.850195   1.000000
   29       -5.421287   1.000000
   30       -1.154328   0.000000
   31       -0.969400   0.000000
   32       -0.450500   0.000000
   33       -0.297351   0.000000
   34       -0.218711   0.000000
   35       -0.051143   0.000000
   36        0.044537   0.000000
   37        0.115782   0.000000
   38        0.128397   0.000000
   39        0.135386   0.000000
   40        0.181063   0.000000
   41        0.193828   0.000000
