       N       E                     dE             d eps       ncg     rms          rms(c)
DAV:   1     0.581396885733E+03    0.58140E+03   -0.82596E+03   408   0.485E+02
DAV:   2     0.252593224157E+03   -0.32880E+03   -0.31907E+03   572   0.985E+01
DAV:   3    -0.467614099548E+02   -0.29935E+03   -0.29106E+03   488   0.105E+02
DAV:   4    -0.136722020234E+03   -0.89961E+02   -0.89777E+02   395   0.792E+01
DAV:   5    -0.141864329638E+03   -0.51423E+01   -0.51317E+01   464   0.222E+01    0.196E+01
DAV:   6    -0.131693725401E+03    0.10171E+02   -0.23661E+01   424   0.198E+01    0.998E+00
DAV:   7    -0.129938365924E+03    0.17554E+01   -0.46511E+00   432   0.834E+00    0.517E+00
DAV:   8    -0.129449261336E+03    0.48910E+00   -0.83251E-01   432   0.403E+00    0.154E+00
DAV:   9    -0.129380694751E+03    0.68567E-01   -0.10470E-01   440   0.155E+00    0.567E-01
DAV:  10    -0.129369744380E+03    0.10950E-01   -0.25081E-02   448   0.831E-01    0.258E-01
DAV:  11    -0.129364518311E+03    0.52261E-02   -0.79175E-03   408   0.440E-01    0.162E-01
DAV:  12    -0.129365400439E+03   -0.88213E-03   -0.60456E-03   408   0.357E-01    0.984E-02
DAV:  13    -0.129372036739E+03   -0.66363E-02   -0.46734E-03   400   0.320E-01    0.567E-02
DAV:  14    -0.129378544363E+03   -0.65076E-02   -0.17615E-03   400   0.195E-01    0.380E-02
DAV:  15    -0.129385747047E+03   -0.72027E-02   -0.69657E-04   394   0.959E-02    0.245E-02
DAV:  16    -0.129392022225E+03   -0.62752E-02   -0.51650E-04   334   0.739E-02    0.140E-02
DAV:  17    -0.129394697222E+03   -0.26750E-02   -0.12976E-04   336   0.394E-02    0.888E-03
DAV:  18    -0.129396624941E+03   -0.19277E-02   -0.13294E-04   268   0.327E-02    0.559E-03
DAV:  19    -0.129397476774E+03   -0.85183E-03   -0.50447E-05   304   0.200E-02    0.342E-03
DAV:  20    -0.129398004491E+03   -0.52772E-03   -0.23732E-05   284   0.161E-02    0.237E-03
DAV:  21    -0.129398197601E+03   -0.19311E-03   -0.88347E-06   352   0.875E-03    0.139E-03
DAV:  22    -0.129398345353E+03   -0.14775E-03   -0.44822E-06   252   0.711E-03    0.129E-03
DAV:  23    -0.129398397164E+03   -0.51812E-04   -0.13244E-06   352   0.416E-03
   1 F= -.12939840E+03 E0= -.12939840E+03  d E =-.129398E+03
       N       E                     dE             d eps       ncg     rms          rms(c)
DAV:   1    -0.129400277429E+03   -0.19321E-02   -0.19451E-01   348   0.237E+00    0.145E-01
DAV:   2    -0.129400934878E+03   -0.65745E-03   -0.88548E-03   416   0.432E-01    0.837E-02
DAV:   3    -0.129400843402E+03    0.91476E-04   -0.21185E-04   358   0.863E-02    0.468E-02
DAV:   4    -0.129400806905E+03    0.36497E-04   -0.19260E-04   343   0.748E-02    0.104E-02
DAV:   5    -0.129400811492E+03   -0.45873E-05   -0.34502E-05   336   0.300E-02    0.640E-03
DAV:   6    -0.129400817211E+03   -0.57185E-05   -0.45468E-06   238   0.115E-02
   2 F= -.12940082E+03 E0= -.12940082E+03  d E =-.242005E-02
       N       E                     dE             d eps       ncg     rms          rms(c)
DAV:   1    -0.129401168256E+03   -0.35676E-03   -0.16138E-03   390   0.220E-01    0.124E-02
DAV:   2    -0.129401178241E+03   -0.99856E-05   -0.53873E-05   336   0.360E-02    0.727E-03
DAV:   3    -0.129401184184E+03   -0.59429E-05   -0.55793E-06   284   0.121E-02    0.394E-03
DAV:   4    -0.129401191114E+03   -0.69302E-05   -0.13733E-06   259   0.585E-03    0.138E-03
DAV:   5    -0.129401196260E+03   -0.51460E-05   -0.46272E-07   286   0.300E-03    0.442E-04
DAV:   6    -0.129401198645E+03   -0.23851E-05   -0.11555E-07   218   0.152E-03
   3 F= -.12940120E+03 E0= -.12940120E+03  d E =-.381435E-03
       N       E                     dE             d eps       ncg     rms          rms(c)
DAV:   1    -0.129401751236E+03   -0.55498E-03   -0.50987E-03   356   0.394E-01    0.208E-02
DAV:   2    -0.129401764497E+03   -0.13261E-04   -0.17318E-04   358   0.635E-02    0.133E-02
DAV:   3    -0.129401764991E+03   -0.49446E-06   -0.11353E-05   238   0.172E-02    0.809E-03
DAV:   4    -0.129401766992E+03   -0.20002E-05   -0.64324E-06   258   0.127E-02    0.234E-03
DAV:   5    -0.129401767756E+03   -0.76444E-06   -0.15961E-06   328   0.682E-03    0.105E-03
DAV:   6    -0.129401768197E+03   -0.44127E-06   -0.26286E-07   206   0.268E-03
   4 F= -.12940177E+03 E0= -.12940177E+03  d E =-.569552E-03
       N       E                     dE             d eps       ncg     rms          rms(c)
DAV:   1    -0.129402417573E+03   -0.64982E-03   -0.77907E-03   374   0.489E-01    0.236E-02
DAV:   2    -0.129402431389E+03   -0.13816E-04   -0.22048E-04   363   0.710E-02    0.158E-02
DAV:   3    -0.129402430012E+03    0.13776E-05   -0.10468E-05   304   0.182E-02    0.960E-03
DAV:   4    -0.129402430079E+03   -0.66929E-07   -0.62815E-06   264   0.134E-02    0.245E-03
DAV:   5    -0.129402430074E+03    0.48376E-08   -0.13377E-06   304   0.645E-03    0.109E-03
DAV:   6    -0.129402430206E+03   -0.13200E-06   -0.19377E-07   232   0.267E-03
   5 F= -.12940243E+03 E0= -.12940243E+03  d E =-.662009E-03
       N       E                     dE             d eps       ncg     rms          rms(c)
DAV:   1    -0.129403196664E+03   -0.76659E-03   -0.99402E-03   392   0.550E-01    0.236E-02
DAV:   2    -0.129403207021E+03   -0.10358E-04   -0.18671E-04   294   0.681E-02    0.146E-02
DAV:   3    -0.129403208110E+03   -0.10891E-05   -0.16286E-05   270   0.209E-02    0.855E-03
DAV:   4    -0.129403209641E+03   -0.15309E-05   -0.75539E-06   234   0.138E-02    0.266E-03
DAV:   5    -0.129403209824E+03   -0.18283E-06   -0.18976E-06   270   0.761E-03    0.121E-03
DAV:   6    -0.129403210075E+03   -0.25041E-06   -0.38026E-07   201   0.317E-03
   6 F= -.12940321E+03 E0= -.12940321E+03  d E =-.779869E-03
       N       E                     dE             d eps       ncg     rms          rms(c)
DAV:   1    -0.129404128281E+03   -0.91846E-03   -0.14814E-02   331   0.664E-01    0.275E-02
DAV:   2    -0.129404145295E+03   -0.17013E-04   -0.27042E-04   291   0.801E-02    0.159E-02
DAV:   3    -0.129404148418E+03   -0.31238E-05   -0.21268E-05   228   0.240E-02    0.880E-03
DAV:   4    -0.129404151310E+03   -0.28921E-05   -0.84644E-06   261   0.148E-02    0.252E-03
DAV:   5    -0.129404151665E+03   -0.35472E-06   -0.19964E-06   272   0.749E-03    0.131E-03
DAV:   6    -0.129404151908E+03   -0.24321E-06   -0.38083E-07   200   0.316E-03
   7 F= -.12940415E+03 E0= -.12940415E+03  d E =-.941834E-03
       N       E                     dE             d eps       ncg     rms          rms(c)
DAV:   1    -0.129405135142E+03   -0.98348E-03   -0.23050E-02   335   0.826E-01    0.350E-02
DAV:   2    -0.129405172509E+03   -0.37367E-04   -0.53921E-04   396   0.107E-01    0.211E-02
DAV:   3    -0.129405172704E+03   -0.19452E-06   -0.12591E-05   270   0.207E-02    0.120E-02
DAV:   4    -0.129405175790E+03   -0.30860E-05   -0.10772E-05   257   0.180E-02    0.265E-03
DAV:   5    -0.129405176101E+03   -0.31157E-06   -0.22477E-06   272   0.837E-03    0.158E-03
DAV:   6    -0.129405176346E+03   -0.24474E-06   -0.26170E-07   214   0.295E-03
   8 F= -.12940518E+03 E0= -.12940518E+03  d E =-.102444E-02
       N       E                     dE             d eps       ncg     rms          rms(c)
DAV:   1    -0.129406186707E+03   -0.10106E-02   -0.38001E-02   331   0.106E+00    0.450E-02
DAV:   2    -0.129406250674E+03   -0.63966E-04   -0.92087E-04   371   0.139E-01    0.270E-02
DAV:   3    -0.129406250624E+03    0.49327E-07   -0.19270E-05   236   0.260E-02    0.155E-02
DAV:   4    -0.129406255797E+03   -0.51728E-05   -0.20423E-05   302   0.240E-02    0.362E-03
DAV:   5    -0.129406256521E+03   -0.72365E-06   -0.39599E-06   272   0.111E-02    0.197E-03
DAV:   6    -0.129406257020E+03   -0.49950E-06   -0.48970E-07   202   0.378E-03
   9 F= -.12940626E+03 E0= -.12940626E+03  d E =-.108067E-02
       N       E                     dE             d eps       ncg     rms          rms(c)
DAV:   1    -0.129407310600E+03   -0.10541E-02   -0.50879E-02   330   0.122E+00    0.513E-02
DAV:   2    -0.129407383194E+03   -0.72594E-04   -0.10926E-03   372   0.152E-01    0.309E-02
DAV:   3    -0.129407386132E+03   -0.29385E-05   -0.28577E-05   211   0.313E-02    0.176E-02
DAV:   4    -0.129407396323E+03   -0.10191E-04   -0.25291E-05   260   0.258E-02    0.509E-03
DAV:   5    -0.129407397026E+03   -0.70324E-06   -0.59435E-06   254   0.136E-02    0.212E-03
DAV:   6    -0.129407397623E+03   -0.59688E-06   -0.85586E-07   166   0.480E-03
  10 F= -.12940740E+03 E0= -.12940740E+03  d E =-.114060E-02
       N       E                     dE             d eps       ncg     rms          rms(c)
DAV:   1    -0.129408584134E+03   -0.11871E-02   -0.67049E-02   329   0.140E+00    0.598E-02
DAV:   2    -0.129408668700E+03   -0.84566E-04   -0.13696E-03   396   0.171E-01    0.383E-02
DAV:   3    -0.129408672015E+03   -0.33150E-05   -0.52612E-05   270   0.412E-02    0.225E-02
DAV:   4    -0.129408688314E+03   -0.16299E-04   -0.29868E-05   274   0.286E-02    0.642E-03
DAV:   5    -0.129408688914E+03   -0.60045E-06   -0.74586E-06   272   0.151E-02    0.241E-03
DAV:   6    -0.129408689578E+03   -0.66344E-06   -0.13208E-06   204   0.594E-03
  11 F= -.12940869E+03 E0= -.12940869E+03  d E =-.129195E-02
       N       E                     dE             d eps       ncg     rms          rms(c)
DAV:   1    -0.129409834363E+03   -0.11454E-02   -0.97745E-02   329   0.168E+00    0.744E-02
DAV:   2    -0.129409964609E+03   -0.13025E-03   -0.21305E-03   428   0.212E-01    0.495E-02
DAV:   3    -0.129409962238E+03    0.23702E-05   -0.84651E-05   303   0.508E-02    0.296E-02
DAV:   4    -0.129409986477E+03   -0.24239E-04   -0.51190E-05   267   0.371E-02    0.847E-03
DAV:   5    -0.129409987256E+03   -0.77888E-06   -0.11619E-05   272   0.188E-02    0.302E-03
DAV:   6    -0.129409988214E+03   -0.95822E-06   -0.22807E-06   212   0.784E-03
  12 F= -.12940999E+03 E0= -.12940999E+03  d E =-.129864E-02
       N       E                     dE             d eps       ncg     rms          rms(c)
DAV:   1    -0.129411107512E+03   -0.11203E-02   -0.14486E-01   329   0.201E+00    0.884E-02
DAV:   2    -0.129411303904E+03   -0.19639E-03   -0.31096E-03   340   0.252E-01    0.544E-02
DAV:   3    -0.129411315330E+03   -0.11426E-04   -0.13387E-04   297   0.615E-02    0.321E-02
DAV:   4    -0.129411352934E+03   -0.37603E-04   -0.63869E-05   268   0.422E-02    0.952E-03
DAV:   5    -0.129411353228E+03   -0.29467E-06   -0.17622E-05   255   0.228E-02    0.355E-03
DAV:   6    -0.129411354465E+03   -0.12367E-05   -0.32863E-06   232   0.860E-03
  13 F= -.12941135E+03 E0= -.12941135E+03  d E =-.136625E-02
       N       E                     dE             d eps       ncg     rms          rms(c)
DAV:   1    -0.129412448809E+03   -0.10956E-02   -0.22209E-01   328   0.246E+00    0.111E-01
DAV:   2    -0.129412802281E+03   -0.35347E-03   -0.52602E-03   364   0.322E-01    0.643E-02
DAV:   3    -0.129412815934E+03   -0.13653E-04   -0.19426E-04   316   0.709E-02    0.379E-02
DAV:   4    -0.129412865059E+03   -0.49125E-04   -0.95573E-05   301   0.515E-02    0.104E-02
DAV:   5    -0.129412866614E+03   -0.15547E-05   -0.27016E-05   304   0.267E-02    0.426E-03
DAV:   6    -0.129412868078E+03   -0.14647E-05   -0.28354E-06   239   0.893E-03
  14 F= -.12941287E+03 E0= -.12941287E+03  d E =-.151361E-02
       N       E                     dE             d eps       ncg     rms          rms(c)
DAV:   1    -0.129414057018E+03   -0.11904E-02   -0.27032E-01   328   0.269E+00    0.123E-01
DAV:   2    -0.129414466498E+03   -0.40948E-03   -0.61602E-03   364   0.345E-01    0.738E-02
DAV:   3    -0.129414478148E+03   -0.11649E-04   -0.26218E-04   331   0.826E-02    0.436E-02
DAV:   4    -0.129414543106E+03   -0.64958E-04   -0.10080E-04   268   0.533E-02    0.123E-02
DAV:   5    -0.129414544287E+03   -0.11807E-05   -0.28712E-05   263   0.284E-02    0.437E-03
DAV:   6    -0.129414546559E+03   -0.22721E-05   -0.53674E-06   232   0.107E-02
  15 F= -.12941455E+03 E0= -.12941455E+03  d E =-.167848E-02
       N       E                     dE             d eps       ncg     rms          rms(c)
DAV:   1    -0.129415791613E+03   -0.12473E-02   -0.33872E-01   329   0.302E+00    0.140E-01
DAV:   2    -0.129416318430E+03   -0.52682E-03   -0.78112E-03   364   0.392E-01    0.888E-02
DAV:   3    -0.129416318897E+03   -0.46681E-06   -0.34526E-04   396   0.986E-02    0.536E-02
DAV:   4    -0.129416395211E+03   -0.76314E-04   -0.14398E-04   284   0.633E-02    0.154E-02
DAV:   5    -0.129416396768E+03   -0.15573E-05   -0.37441E-05   272   0.327E-02    0.534E-03
DAV:   6    -0.129416399391E+03   -0.26223E-05   -0.77673E-06   236   0.130E-02
  16 F= -.12941640E+03 E0= -.12941640E+03  d E =-.185283E-02
       N       E                     dE             d eps       ncg     rms          rms(c)
DAV:   1    -0.129417395156E+03   -0.99839E-03   -0.48443E-01   328   0.361E+00    0.163E-01
DAV:   2    -0.129418197087E+03   -0.80193E-03   -0.11255E-02   364   0.468E-01    0.950E-02
DAV:   3    -0.129418217824E+03   -0.20737E-04   -0.42402E-04   370   0.105E-01    0.557E-02
DAV:   4    -0.129418311246E+03   -0.93422E-04   -0.16940E-04   300   0.698E-02    0.151E-02
DAV:   5    -0.129418313507E+03   -0.22606E-05   -0.49834E-05   304   0.364E-02    0.601E-03
DAV:   6    -0.129418316021E+03   -0.25141E-05   -0.51576E-06   255   0.117E-02
  17 F= -.12941832E+03 E0= -.12941832E+03  d E =-.191663E-02
       N       E                     dE             d eps       ncg     rms          rms(c)
DAV:   1    -0.129418819381E+03   -0.50587E-03   -0.60094E-01   328   0.405E+00    0.181E-01
DAV:   2    -0.129419810354E+03   -0.99097E-03   -0.13839E-02   364   0.527E-01    0.110E-01
DAV:   3    -0.129419820877E+03   -0.10524E-04   -0.53228E-04   387   0.121E-01    0.654E-02
DAV:   4    -0.129419943424E+03   -0.12255E-03   -0.23164E-04   324   0.798E-02    0.186E-02
DAV:   5    -0.129419945322E+03   -0.18978E-05   -0.66658E-05   304   0.422E-02    0.676E-03
DAV:   6    -0.129419948618E+03   -0.32960E-05   -0.76361E-06   219   0.145E-02
  18 F= -.12941995E+03 E0= -.12941995E+03  d E =-.163260E-02
       N       E                     dE             d eps       ncg     rms          rms(c)
DAV:   1    -0.129419655046E+03    0.29028E-03   -0.79198E-01   328   0.466E+00    0.204E-01
DAV:   2    -0.129421005607E+03   -0.13506E-02   -0.18441E-02   364   0.614E-01    0.130E-01
DAV:   3    -0.129420993013E+03    0.12593E-04   -0.69377E-04   364   0.141E-01    0.777E-02
DAV:   4    -0.129421145138E+03   -0.15212E-03   -0.34653E-04   363   0.972E-02    0.220E-02
DAV:   5    -0.129421144847E+03    0.29026E-06   -0.82126E-05   272   0.488E-02    0.828E-03
DAV:   6    -0.129421149179E+03   -0.43318E-05   -0.15225E-05   232   0.196E-02
  19 F= -.12942115E+03 E0= -.12942115E+03  d E =-.120056E-02
       N       E                     dE             d eps       ncg     rms          rms(c)
DAV:   1    -0.129419314305E+03    0.18305E-02   -0.11365E+00   328   0.562E+00    0.245E-01
DAV:   2    -0.129421490073E+03   -0.21758E-02   -0.29701E-02   345   0.787E-01    0.150E-01
DAV:   3    -0.129421444008E+03    0.46065E-04   -0.96701E-04   455   0.161E-01    0.900E-02
DAV:   4    -0.129421606612E+03   -0.16260E-03   -0.43061E-04   397   0.112E-01    0.218E-02
DAV:   5    -0.129421615184E+03   -0.85721E-05   -0.96407E-05   336   0.507E-02    0.106E-02
DAV:   6    -0.129421620066E+03   -0.48824E-05   -0.10540E-05   282   0.171E-02
  20 F= -.12942162E+03 E0= -.12942162E+03  d E =-.470887E-03
       N       E                     dE             d eps       ncg     rms          rms(c)
DAV:   1    -0.129422269623E+03   -0.65444E-03   -0.28174E-02   331   0.856E-01    0.561E-02
DAV:   2    -0.129422375583E+03   -0.10596E-03   -0.13403E-03   395   0.158E-01    0.339E-02
DAV:   3    -0.129422368238E+03    0.73452E-05   -0.34774E-05   303   0.337E-02    0.200E-02
DAV:   4    -0.129422372741E+03   -0.45030E-05   -0.31362E-05   272   0.286E-02    0.439E-03
DAV:   5    -0.129422376813E+03   -0.40720E-05   -0.72163E-06   320   0.131E-02    0.210E-03
DAV:   6    -0.129422379195E+03   -0.23815E-05   -0.10610E-06   264   0.509E-03
  21 F= -.12942238E+03 E0= -.12942238E+03  d E =-.759128E-03
       N       E                     dE             d eps       ncg     rms          rms(c)
DAV:   1    -0.129422133790E+03    0.24302E-03   -0.39792E-02   334   0.104E+00    0.645E-02
DAV:   2    -0.129422263153E+03   -0.12936E-03   -0.18609E-03   394   0.189E-01    0.402E-02
DAV:   3    -0.129422241466E+03    0.21688E-04   -0.50452E-05   336   0.404E-02    0.241E-02
DAV:   4    -0.129422229710E+03    0.11756E-04   -0.43822E-05   264   0.345E-02    0.546E-03
DAV:   5    -0.129422229514E+03    0.19626E-06   -0.99156E-06   336   0.155E-02    0.269E-03
DAV:   6    -0.129422230537E+03   -0.10230E-05   -0.13984E-06   264   0.602E-03
  22 F= -.12942223E+03 E0= -.12942223E+03  d E =0.148658E-03
       N       E                     dE             d eps       ncg     rms          rms(c)
DAV:   1    -0.129422382893E+03   -0.15338E-03   -0.11259E-03   400   0.171E-01    0.112E-02
DAV:   2    -0.129422388201E+03   -0.53083E-05   -0.47750E-05   280   0.309E-02    0.623E-03
DAV:   3    -0.129422389994E+03   -0.17925E-05   -0.38078E-06   304   0.969E-03    0.323E-03
DAV:   4    -0.129422392363E+03   -0.23693E-05   -0.84434E-07   272   0.482E-03    0.989E-04
DAV:   5    -0.129422394032E+03   -0.16690E-05   -0.21753E-07   296   0.231E-03    0.355E-04
DAV:   6    -0.129422394782E+03   -0.75017E-06   -0.15416E-08   220   0.108E-03
  23 F= -.12942239E+03 E0= -.12942239E+03  d E =-.164245E-03
       N       E                     dE             d eps       ncg     rms          rms(c)
DAV:   1    -0.129422586191E+03   -0.19216E-03   -0.37123E-03   366   0.313E-01    0.198E-02
DAV:   2    -0.129422597899E+03   -0.11708E-04   -0.16521E-04   290   0.570E-02    0.112E-02
DAV:   3    -0.129422597288E+03    0.61110E-06   -0.89117E-06   279   0.149E-02    0.655E-03
DAV:   4    -0.129422597079E+03    0.20904E-06   -0.38951E-06   272   0.104E-02    0.146E-03
DAV:   5    -0.129422597325E+03   -0.24618E-06   -0.85526E-07   304   0.457E-03    0.765E-04
DAV:   6    -0.129422597506E+03   -0.18114E-06   -0.10269E-07   200   0.190E-03
  24 F= -.12942260E+03 E0= -.12942260E+03  d E =-.202724E-03
       N       E                     dE             d eps       ncg     rms          rms(c)
DAV:   1    -0.129422703724E+03   -0.10640E-03   -0.58179E-03   383   0.395E-01    0.242E-02
DAV:   2    -0.129422720586E+03   -0.16862E-04   -0.26205E-04   315   0.711E-02    0.141E-02
DAV:   3    -0.129422717657E+03    0.29294E-05   -0.85483E-06   272   0.163E-02    0.841E-03
DAV:   4    -0.129422715445E+03    0.22118E-05   -0.80158E-06   304   0.144E-02    0.214E-03
DAV:   5    -0.129422715521E+03   -0.76096E-07   -0.16692E-06   272   0.688E-03    0.109E-03
DAV:   6    -0.129422715741E+03   -0.22015E-06   -0.23783E-07   200   0.263E-03
  25 F= -.12942272E+03 E0= -.12942272E+03  d E =-.118235E-03
       N       E                     dE             d eps       ncg     rms          rms(c)
DAV:   1    -0.129422717480E+03   -0.19592E-05   -0.54116E-03   389   0.387E-01    0.218E-02
DAV:   2    -0.129422732367E+03   -0.14887E-04   -0.22698E-04   332   0.670E-02    0.128E-02
DAV:   3    -0.129422730147E+03    0.22196E-05   -0.72008E-06   248   0.150E-02    0.774E-03
DAV:   4    -0.129422728719E+03    0.14286E-05   -0.63623E-06   224   0.135E-02    0.169E-03
DAV:   5    -0.129422729070E+03   -0.35123E-06   -0.14027E-06   232   0.615E-03    0.973E-04
DAV:   6    -0.129422729547E+03   -0.47740E-06   -0.22966E-07   216   0.252E-03
  26 F= -.12942273E+03 E0= -.12942273E+03  d E =-.138061E-04
       N       E                     dE             d eps       ncg     rms          rms(c)
DAV:   1    -0.129422740987E+03   -0.11917E-04   -0.13120E-05   249   0.194E-02    0.997E-04
DAV:   2    -0.129422741576E+03   -0.58938E-06   -0.75444E-07   254   0.478E-03    0.646E-04
DAV:   3    -0.129422742045E+03   -0.46887E-06   -0.55649E-08   200   0.151E-03    0.443E-04
DAV:   4    -0.129422742927E+03   -0.88235E-06   -0.24525E-09   236   0.900E-04    0.134E-04
DAV:   5    -0.129422743323E+03   -0.39536E-06    0.26122E-08   264   0.484E-04    0.838E-05
DAV:   6    -0.129422743811E+03   -0.48810E-06    0.32594E-08   200   0.347E-04
  27 F= -.12942274E+03 E0= -.12942274E+03  d E =-.142636E-04
       N       E                     dE             d eps       ncg     rms          rms(c)
DAV:   1    -0.129422763659E+03   -0.20336E-04   -0.50280E-05   254   0.385E-02    0.186E-03
DAV:   2    -0.129422764203E+03   -0.54399E-06   -0.36097E-06   236   0.104E-02    0.123E-03
DAV:   3    -0.129422764387E+03   -0.18381E-06   -0.39173E-07   236   0.312E-03    0.939E-04
DAV:   4    -0.129422764655E+03   -0.26862E-06   -0.76427E-08   218   0.183E-03    0.334E-04
DAV:   5    -0.129422764833E+03   -0.17745E-06    0.13606E-08   272   0.948E-04    0.190E-04
DAV:   6    -0.129422764954E+03   -0.12176E-06    0.45709E-08   200   0.615E-04
  28 F= -.12942276E+03 E0= -.12942276E+03  d E =-.211435E-04
       N       E                     dE             d eps       ncg     rms          rms(c)
DAV:   1    -0.129422790813E+03   -0.25981E-04   -0.10553E-04   272   0.558E-02    0.268E-03
DAV:   2    -0.129422791532E+03   -0.71835E-06   -0.76226E-06   254   0.151E-02    0.178E-03
DAV:   3    -0.129422791617E+03   -0.85396E-07   -0.89552E-07   234   0.454E-03    0.137E-03
DAV:   4    -0.129422791638E+03   -0.20417E-07   -0.23702E-07   246   0.267E-03    0.483E-04
DAV:   5    -0.129422791659E+03   -0.21703E-07   -0.46801E-08   210   0.138E-03    0.279E-04
DAV:   6    -0.129422791686E+03   -0.26927E-07    0.21132E-08   165   0.894E-04
  29 F= -.12942279E+03 E0= -.12942279E+03  d E =-.267318E-04
       N       E                     dE             d eps       ncg     rms          rms(c)
DAV:   1    -0.129422821397E+03   -0.29738E-04   -0.17430E-04   283   0.710E-02    0.344E-03
DAV:   2    -0.129422822020E+03   -0.62253E-06   -0.86263E-06   245   0.153E-02    0.227E-03
DAV:   3    -0.129422822010E+03    0.96743E-08   -0.86227E-07   204   0.491E-03    0.155E-03
DAV:   4    -0.129422821944E+03    0.65796E-07   -0.23279E-07   244   0.287E-03    0.465E-04
DAV:   5    -0.129422821939E+03    0.55243E-08   -0.15498E-08   165   0.139E-03    0.249E-04
DAV:   6    -0.129422821962E+03   -0.23397E-07    0.39053E-08   164   0.770E-04
  30 F= -.12942282E+03 E0= -.12942282E+03  d E =-.302758E-04
       N       E                     dE             d eps       ncg     rms          rms(c)
DAV:   1    -0.129422852584E+03   -0.30645E-04   -0.23783E-04   264   0.833E-02    0.391E-03
DAV:   2    -0.129422853384E+03   -0.79986E-06   -0.11458E-05   202   0.178E-02    0.259E-03
DAV:   3    -0.129422853373E+03    0.10353E-07   -0.11400E-06   170   0.568E-03    0.179E-03
DAV:   4    -0.129422853299E+03    0.74323E-07   -0.30853E-07   241   0.330E-03    0.544E-04
DAV:   5    -0.129422853296E+03    0.24220E-08   -0.29896E-08   164   0.160E-03    0.287E-04
DAV:   6    -0.129422853332E+03   -0.35366E-07    0.39546E-08   164   0.883E-04
  31 F= -.12942285E+03 E0= -.12942285E+03  d E =-.313699E-04
       N       E                     dE             d eps       ncg     rms          rms(c)
DAV:   1    -0.129422883102E+03   -0.29806E-04   -0.28996E-04   264   0.924E-02    0.414E-03
DAV:   2    -0.129422884057E+03   -0.95463E-06   -0.13362E-05   200   0.194E-02    0.277E-03
DAV:   3    -0.129422884063E+03   -0.57062E-08   -0.13363E-06   164   0.620E-03    0.192E-03
DAV:   4    -0.129422884003E+03    0.60194E-07   -0.36643E-07   164   0.357E-03    0.587E-04
DAV:   5    -0.129422884010E+03   -0.69563E-08   -0.46233E-08   164   0.174E-03    0.309E-04
DAV:   6    -0.129422884057E+03   -0.47421E-07    0.35007E-08   164   0.960E-04
  32 F= -.12942288E+03 E0= -.12942288E+03  d E =-.307252E-04
       N       E                     dE             d eps       ncg     rms          rms(c)
DAV:   1    -0.129422915508E+03   -0.31499E-04   -0.40170E-04   296   0.109E-01    0.456E-03
DAV:   2    -0.129422916504E+03   -0.99585E-06   -0.14494E-05   200   0.190E-02    0.312E-03
DAV:   3    -0.129422916505E+03   -0.69667E-09   -0.14852E-06   164   0.635E-03    0.212E-03
DAV:   4    -0.129422916461E+03    0.44322E-07   -0.42180E-07   164   0.373E-03    0.651E-04
DAV:   5    -0.129422916476E+03   -0.14996E-07   -0.64221E-08   164   0.188E-03    0.316E-04
DAV:   6    -0.129422916533E+03   -0.57674E-07    0.29116E-08   164   0.997E-04
  33 F= -.12942292E+03 E0= -.12942292E+03  d E =-.324763E-04
       N       E                     dE             d eps       ncg     rms          rms(c)
DAV:   1    -0.129422950806E+03   -0.34330E-04   -0.52412E-04   296   0.123E-01    0.474E-03
DAV:   2    -0.129422951962E+03   -0.11564E-05   -0.16419E-05   200   0.204E-02    0.326E-03
DAV:   3    -0.129422952004E+03   -0.41648E-07   -0.16779E-06   164   0.682E-03    0.222E-03
DAV:   4    -0.129422952013E+03   -0.94151E-08   -0.47037E-07   164   0.395E-03    0.680E-04
DAV:   5    -0.129422952043E+03   -0.29459E-07   -0.83059E-08   164   0.200E-03    0.331E-04
DAV:   6    -0.129422952109E+03   -0.65698E-07    0.21126E-08   164   0.106E-03
  34 F= -.12942295E+03 E0= -.12942295E+03  d E =-.355753E-04
       N       E                     dE             d eps       ncg     rms          rms(c)
DAV:   1    -0.129422993403E+03   -0.41360E-04   -0.68304E-04   296   0.139E-01    0.492E-03
DAV:   2    -0.129422994701E+03   -0.12978E-05   -0.17806E-05   200   0.212E-02    0.327E-03
DAV:   3    -0.129422994809E+03   -0.10773E-06   -0.17833E-06   164   0.711E-03    0.219E-03
DAV:   4    -0.129422994914E+03   -0.10565E-06   -0.47063E-07   164   0.399E-03    0.650E-04
DAV:   5    -0.129422994963E+03   -0.49063E-07   -0.91817E-08   164   0.202E-03    0.323E-04
DAV:   6    -0.129422995031E+03   -0.67692E-07    0.15779E-08   164   0.106E-03
  35 F= -.12942300E+03 E0= -.12942300E+03  d E =-.429224E-04
       N       E                     dE             d eps       ncg     rms          rms(c)
DAV:   1    -0.129423049383E+03   -0.54420E-04   -0.95171E-04   304   0.161E-01    0.559E-03
DAV:   2    -0.129423050993E+03   -0.16101E-05   -0.21505E-05   192   0.230E-02    0.344E-03
DAV:   3    -0.129423051203E+03   -0.20986E-06   -0.20910E-06   164   0.770E-03    0.216E-03
DAV:   4    -0.129423051420E+03   -0.21754E-06   -0.50913E-07   198   0.408E-03    0.565E-04
DAV:   5    -0.129423051490E+03   -0.69952E-07   -0.11938E-07   164   0.205E-03    0.300E-04
DAV:   6    -0.129423051548E+03   -0.57274E-07    0.37036E-09   218   0.102E-03
  36 F= -.12942305E+03 E0= -.12942305E+03  d E =-.565166E-04
       N       E                     dE             d eps       ncg     rms          rms(c)
DAV:   1    -0.129423124038E+03   -0.72548E-04   -0.14600E-03   295   0.198E-01    0.683E-03
DAV:   2    -0.129423126118E+03   -0.20801E-05   -0.28900E-05   254   0.251E-02    0.422E-03
DAV:   3    -0.129423126367E+03   -0.24885E-06   -0.26447E-06   173   0.812E-03    0.245E-03
DAV:   4    -0.129423126669E+03   -0.30204E-06   -0.66235E-07   270   0.432E-03    0.508E-04
DAV:   5    -0.129423126738E+03   -0.69229E-07   -0.19195E-07   175   0.213E-03    0.303E-04
DAV:   6    -0.129423126775E+03   -0.36925E-07   -0.24176E-08   173   0.102E-03
  37 F= -.12942313E+03 E0= -.12942313E+03  d E =-.752275E-04
       N       E                     dE             d eps       ncg     rms          rms(c)
DAV:   1    -0.129423216329E+03   -0.89590E-04   -0.23499E-03   365   0.252E-01    0.904E-03
DAV:   2    -0.129423219915E+03   -0.35865E-05   -0.50697E-05   238   0.335E-02    0.558E-03
DAV:   3    -0.129423220236E+03   -0.32129E-06   -0.47443E-06   270   0.108E-02    0.325E-03
DAV:   4    -0.129423220566E+03   -0.32909E-06   -0.12127E-06   256   0.579E-03    0.701E-04
DAV:   5    -0.129423220629E+03   -0.63638E-07   -0.37084E-07   215   0.288E-03    0.401E-04
DAV:   6    -0.129423220671E+03   -0.41679E-07   -0.76251E-08   164   0.137E-03
  38 F= -.12942322E+03 E0= -.12942322E+03  d E =-.938957E-04
       N       E                     dE             d eps       ncg     rms          rms(c)
DAV:   1    -0.129423319910E+03   -0.99280E-04   -0.37205E-03   327   0.319E-01    0.117E-02
DAV:   2    -0.129423326101E+03   -0.61919E-05   -0.87166E-05   259   0.434E-02    0.729E-03
DAV:   3    -0.129423326260E+03   -0.15879E-06   -0.54826E-06   272   0.110E-02    0.442E-03
DAV:   4    -0.129423326633E+03   -0.37307E-06   -0.22299E-06   232   0.778E-03    0.838E-04
DAV:   5    -0.129423326726E+03   -0.92396E-07   -0.68328E-07   205   0.378E-03    0.599E-04
DAV:   6    -0.129423326792E+03   -0.66705E-07   -0.16963E-07   165   0.172E-03
  39 F= -.12942333E+03 E0= -.12942333E+03  d E =-.106122E-03
       N       E                     dE             d eps       ncg     rms          rms(c)
DAV:   1    -0.129423429574E+03   -0.10285E-03   -0.54928E-03   360   0.386E-01    0.140E-02
DAV:   2    -0.129423438637E+03   -0.90630E-05   -0.12532E-04   256   0.519E-02    0.872E-03
DAV:   3    -0.129423438926E+03   -0.28920E-06   -0.78493E-06   210   0.131E-02    0.527E-03
DAV:   4    -0.129423439567E+03   -0.64063E-06   -0.31711E-06   252   0.921E-03    0.985E-04
DAV:   5    -0.129423439728E+03   -0.16148E-06   -0.10165E-06   172   0.448E-03    0.713E-04
DAV:   6    -0.129423439841E+03   -0.11247E-06   -0.28104E-07   191   0.204E-03
  40 F= -.12942344E+03 E0= -.12942344E+03  d E =-.113048E-03
       N       E                     dE             d eps       ncg     rms          rms(c)
DAV:   1    -0.129423553846E+03   -0.11412E-03   -0.75521E-03   336   0.448E-01    0.156E-02
DAV:   2    -0.129423566296E+03   -0.12450E-04   -0.16529E-04   291   0.577E-02    0.992E-03
DAV:   3    -0.129423566420E+03   -0.12366E-06   -0.61654E-06   200   0.128E-02    0.599E-03
DAV:   4    -0.129423567460E+03   -0.10406E-05   -0.30334E-06   237   0.100E-02    0.104E-03
DAV:   5    -0.129423567651E+03   -0.19091E-06   -0.90384E-07   164   0.455E-03    0.849E-04
DAV:   6    -0.129423567796E+03   -0.14471E-06   -0.16324E-07   200   0.193E-03
  41 F= -.12942357E+03 E0= -.12942357E+03  d E =-.127955E-03
       N       E                     dE             d eps       ncg     rms          rms(c)
DAV:   1    -0.129423705066E+03   -0.13741E-03   -0.10487E-02   328   0.526E-01    0.179E-02
DAV:   2    -0.129423721827E+03   -0.16761E-04   -0.22038E-04   300   0.665E-02    0.117E-02
DAV:   3    -0.129423722084E+03   -0.25792E-06   -0.84553E-06   248   0.148E-02    0.715E-03
DAV:   4    -0.129423723726E+03   -0.16416E-05   -0.41763E-06   234   0.116E-02    0.130E-03
DAV:   5    -0.129423723968E+03   -0.24158E-06   -0.12576E-06   232   0.528E-03    0.987E-04
DAV:   6    -0.129423724125E+03   -0.15792E-06   -0.26133E-07   216   0.231E-03
  42 F= -.12942372E+03 E0= -.12942372E+03  d E =-.156330E-03
       N       E                     dE             d eps       ncg     rms          rms(c)
DAV:   1    -0.129423875535E+03   -0.15157E-03   -0.15290E-02   330   0.637E-01    0.217E-02
DAV:   2    -0.129423900785E+03   -0.25250E-04   -0.33339E-04   349   0.819E-02    0.147E-02
DAV:   3    -0.129423900647E+03    0.13816E-06   -0.11748E-05   256   0.177E-02    0.910E-03
DAV:   4    -0.129423902776E+03   -0.21288E-05   -0.65649E-06   218   0.143E-02    0.186E-03
DAV:   5    -0.129423903051E+03   -0.27549E-06   -0.17220E-06   272   0.669E-03    0.105E-03
DAV:   6    -0.129423903194E+03   -0.14314E-06   -0.30403E-07   185   0.267E-03
  43 F= -.12942390E+03 E0= -.12942390E+03  d E =-.179069E-03
       N       E                     dE             d eps       ncg     rms          rms(c)
DAV:   1    -0.129424052077E+03   -0.14903E-03   -0.22320E-02   328   0.766E-01    0.261E-02
DAV:   2    -0.129424090211E+03   -0.38134E-04   -0.49842E-04   394   0.981E-02    0.183E-02
DAV:   3    -0.129424088443E+03    0.17679E-05   -0.64205E-06   212   0.155E-02    0.114E-02
DAV:   4    -0.129424091791E+03   -0.33484E-05   -0.89942E-06   234   0.173E-02    0.217E-03
DAV:   5    -0.129424092169E+03   -0.37734E-06   -0.23902E-06   212   0.789E-03    0.136E-03
DAV:   6    -0.129424092372E+03   -0.20314E-06   -0.31986E-07   166   0.276E-03
  44 F= -.12942409E+03 E0= -.12942409E+03  d E =-.189177E-03
       N       E                     dE             d eps       ncg     rms          rms(c)
DAV:   1    -0.129424257130E+03   -0.16496E-03   -0.31740E-02   330   0.908E-01    0.310E-02
DAV:   2    -0.129424310756E+03   -0.53626E-04   -0.69917E-04   396   0.115E-01    0.211E-02
DAV:   3    -0.129424308937E+03    0.18194E-05   -0.83384E-06   255   0.175E-02    0.129E-02
DAV:   4    -0.129424314204E+03   -0.52667E-05   -0.12764E-05   266   0.197E-02    0.247E-03
DAV:   5    -0.129424314695E+03   -0.49174E-06   -0.27010E-06   255   0.853E-03    0.153E-03
DAV:   6    -0.129424314942E+03   -0.24702E-06   -0.25667E-07   199   0.276E-03
  45 F= -.12942431E+03 E0= -.12942431E+03  d E =-.222570E-03
       N       E                     dE             d eps       ncg     rms          rms(c)
DAV:   1    -0.129424486854E+03   -0.17216E-03   -0.46395E-02   333   0.110E+00    0.380E-02
DAV:   2    -0.129424567714E+03   -0.80860E-04   -0.10563E-03   387   0.142E-01    0.258E-02
DAV:   3    -0.129424564511E+03    0.32031E-05   -0.12618E-05   264   0.215E-02    0.158E-02
DAV:   4    -0.129424571626E+03   -0.71151E-05   -0.19826E-05   281   0.244E-02    0.293E-03
DAV:   5    -0.129424572262E+03   -0.63652E-06   -0.37763E-06   272   0.102E-02    0.194E-03
DAV:   6    -0.129424572592E+03   -0.32984E-06   -0.38419E-07   202   0.334E-03
  46 F= -.12942457E+03 E0= -.12942457E+03  d E =-.257650E-03
       N       E                     dE             d eps       ncg     rms          rms(c)
DAV:   1    -0.129424733921E+03   -0.16166E-03   -0.65782E-02   334   0.130E+00    0.449E-02
DAV:   2    -0.129424846727E+03   -0.11281E-03   -0.14694E-03   388   0.166E-01    0.308E-02
DAV:   3    -0.129424842439E+03    0.42878E-05   -0.17380E-05   229   0.252E-02    0.187E-02
DAV:   4    -0.129424853009E+03   -0.10570E-04   -0.27133E-05   291   0.284E-02    0.346E-03
DAV:   5    -0.129424853901E+03   -0.89197E-06   -0.51764E-06   264   0.118E-02    0.224E-03
DAV:   6    -0.129424854342E+03   -0.44124E-06   -0.53049E-07   200   0.381E-03
  47 F= -.12942485E+03 E0= -.12942485E+03  d E =-.281750E-03
       N       E                     dE             d eps       ncg     rms          rms(c)
DAV:   1    -0.129425022966E+03   -0.16907E-03   -0.93443E-02   331   0.155E+00    0.537E-02
DAV:   2    -0.129425181979E+03   -0.15901E-03   -0.20682E-03   396   0.196E-01    0.375E-02
DAV:   3    -0.129425175895E+03    0.60844E-05   -0.24877E-05   238   0.303E-02    0.230E-02
DAV:   4    -0.129425191639E+03   -0.15744E-04   -0.40056E-05   274   0.344E-02    0.446E-03
DAV:   5    -0.129425192746E+03   -0.11070E-05   -0.78906E-06   264   0.147E-02    0.275E-03
DAV:   6    -0.129425193250E+03   -0.50342E-06   -0.85909E-07   200   0.476E-03
  48 F= -.12942519E+03 E0= -.12942519E+03  d E =-.338908E-03
       N       E                     dE             d eps       ncg     rms          rms(c)
DAV:   1    -0.129425348017E+03   -0.15527E-03   -0.12036E-01   331   0.176E+00    0.623E-02
DAV:   2    -0.129425545376E+03   -0.19736E-03   -0.26066E-03   396   0.221E-01    0.435E-02
DAV:   3    -0.129425538244E+03    0.71318E-05   -0.33376E-05   236   0.353E-02    0.266E-02
DAV:   4    -0.129425558906E+03   -0.20662E-04   -0.53738E-05   267   0.397E-02    0.525E-03
DAV:   5    -0.129425560175E+03   -0.12687E-05   -0.10578E-05   253   0.172E-02    0.319E-03
DAV:   6    -0.129425560801E+03   -0.62622E-06   -0.11813E-06   200   0.556E-03
  49 F= -.12942556E+03 E0= -.12942556E+03  d E =-.367552E-03
       N       E                     dE             d eps       ncg     rms          rms(c)
DAV:   1    -0.129425700997E+03   -0.14082E-03   -0.16041E-01   332   0.204E+00    0.734E-02
DAV:   2    -0.129425963702E+03   -0.26271E-03   -0.35226E-03   386   0.259E-01    0.501E-02
DAV:   3    -0.129425957262E+03    0.64406E-05   -0.50001E-05   308   0.410E-02    0.298E-02
DAV:   4    -0.129425983616E+03   -0.26354E-04   -0.54020E-05   293   0.427E-02    0.484E-03
DAV:   5    -0.129425985640E+03   -0.20237E-05   -0.11962E-05   272   0.180E-02    0.330E-03
DAV:   6    -0.129425986617E+03   -0.97761E-06   -0.13255E-06   250   0.585E-03
  50 F= -.12942599E+03 E0= -.12942599E+03  d E =-.425816E-03
       N       E                     dE             d eps       ncg     rms          rms(c)
DAV:   1    -0.129426084458E+03   -0.98819E-04   -0.20578E-01   330   0.229E+00    0.822E-02
DAV:   2    -0.129426422024E+03   -0.33757E-03   -0.45010E-03   396   0.290E-01    0.569E-02
DAV:   3    -0.129426413510E+03    0.85144E-05   -0.64384E-05   300   0.465E-02    0.341E-02
DAV:   4    -0.129426450958E+03   -0.37448E-04   -0.68106E-05   259   0.481E-02    0.550E-03
DAV:   5    -0.129426453645E+03   -0.26872E-05   -0.15942E-05   264   0.204E-02    0.381E-03
DAV:   6    -0.129426454877E+03   -0.12317E-05   -0.16184E-06   200   0.658E-03
  51 F= -.12942645E+03 E0= -.12942645E+03  d E =-.468260E-03
       N       E                     dE             d eps       ncg     rms          rms(c)
DAV:   1    -0.129426503113E+03   -0.49468E-04   -0.24739E-01   330   0.252E+00    0.912E-02
DAV:   2    -0.129426914560E+03   -0.41145E-03   -0.54952E-03   396   0.321E-01    0.630E-02
DAV:   3    -0.129426903087E+03    0.11473E-04   -0.82919E-05   332   0.525E-02    0.380E-02
DAV:   4    -0.129426951232E+03   -0.48145E-04   -0.82595E-05   267   0.531E-02    0.628E-03
DAV:   5    -0.129426954552E+03   -0.33201E-05   -0.18964E-05   256   0.222E-02    0.425E-03
DAV:   6    -0.129426956024E+03   -0.14711E-05   -0.19697E-06   200   0.718E-03
  52 F= -.12942696E+03 E0= -.12942696E+03  d E =-.501147E-03
       N       E                     dE             d eps       ncg     rms          rms(c)
DAV:   1    -0.129426932370E+03    0.22183E-04   -0.30086E-01   330   0.278E+00    0.104E-01
DAV:   2    -0.129427454961E+03   -0.52259E-03   -0.69176E-03   396   0.363E-01    0.693E-02
DAV:   3    -0.129427441796E+03    0.13165E-04   -0.10175E-04   324   0.581E-02    0.411E-02
DAV:   4    -0.129427496016E+03   -0.54220E-04   -0.99534E-05   300   0.579E-02    0.686E-03
DAV:   5    -0.129427499756E+03   -0.37405E-05   -0.22178E-05   304   0.241E-02    0.470E-03
DAV:   6    -0.129427501499E+03   -0.17427E-05   -0.20127E-06   216   0.740E-03
  53 F= -.12942750E+03 E0= -.12942750E+03  d E =-.545475E-03
       N       E                     dE             d eps       ncg     rms          rms(c)
DAV:   1    -0.129427394034E+03    0.10572E-03   -0.35722E-01   328   0.306E+00    0.117E-01
DAV:   2    -0.129428016628E+03   -0.62259E-03   -0.83120E-03   396   0.403E-01    0.831E-02
DAV:   3    -0.129427991251E+03    0.25377E-04   -0.15208E-04   367   0.722E-02    0.511E-02
DAV:   4    -0.129428057097E+03   -0.65846E-04   -0.14267E-04   250   0.694E-02    0.927E-03
DAV:   5    -0.129428061548E+03   -0.44506E-05   -0.31751E-05   304   0.293E-02    0.557E-03
DAV:   6    -0.129428063308E+03   -0.17606E-05   -0.30485E-06   222   0.915E-03
  54 F= -.12942806E+03 E0= -.12942806E+03  d E =-.561809E-03
       N       E                     dE             d eps       ncg     rms          rms(c)
DAV:   1    -0.129427005672E+03    0.10559E-02   -0.56325E-01   328   0.392E+00    0.165E-01
DAV:   2    -0.129428181598E+03   -0.11759E-02   -0.15713E-02   379   0.565E-01    0.104E-01
DAV:   3    -0.129428131270E+03    0.50328E-04   -0.25201E-04   383   0.926E-02    0.619E-02
DAV:   4    -0.129428185483E+03   -0.54213E-04   -0.25548E-04   372   0.906E-02    0.116E-02
DAV:   5    -0.129428191328E+03   -0.58446E-05   -0.48290E-05   336   0.371E-02    0.779E-03
DAV:   6    -0.129428193812E+03   -0.24842E-05   -0.45646E-06   312   0.117E-02
  55 F= -.12942819E+03 E0= -.12942819E+03  d E =-.130503E-03
       N       E                     dE             d eps       ncg     rms          rms(c)
DAV:   1    -0.129428759211E+03   -0.56788E-03   -0.46028E-02   333   0.113E+00    0.733E-02
DAV:   2    -0.129428924130E+03   -0.16492E-03   -0.22251E-03   393   0.210E-01    0.432E-02
DAV:   3    -0.129428907005E+03    0.17126E-04   -0.55411E-05   327   0.430E-02    0.255E-02
DAV:   4    -0.129428902970E+03    0.40346E-05   -0.50119E-05   232   0.375E-02    0.547E-03
DAV:   5    -0.129428904886E+03   -0.19158E-05   -0.11354E-05   336   0.165E-02    0.269E-03
DAV:   6    -0.129428906164E+03   -0.12775E-05   -0.15460E-06   234   0.637E-03
  56 F= -.12942891E+03 E0= -.12942891E+03  d E =-.712352E-03
       N       E                     dE             d eps       ncg     rms          rms(c)
DAV:   1    -0.129428913230E+03   -0.83437E-05   -0.15737E-05   319   0.209E-02    0.110E-03
DAV:   2    -0.129428914028E+03   -0.79846E-06   -0.78888E-07   272   0.500E-03    0.665E-04
DAV:   3    -0.129428914855E+03   -0.82652E-06   -0.11671E-07   260   0.182E-03    0.429E-04
DAV:   4    -0.129428916083E+03   -0.12281E-05   -0.33665E-08   277   0.105E-03    0.163E-04
DAV:   5    -0.129428916795E+03   -0.71235E-06    0.75104E-09   256   0.588E-04    0.118E-04
DAV:   6    -0.129428917734E+03   -0.93908E-06    0.61351E-09   248   0.477E-04
  57 F= -.12942892E+03 E0= -.12942892E+03  d E =-.115707E-04
       N       E                     dE             d eps       ncg     rms          rms(c)
DAV:   1    -0.129428928933E+03   -0.12138E-04   -0.60786E-05   262   0.412E-02    0.174E-03
DAV:   2    -0.129428929423E+03   -0.48988E-06   -0.28513E-06   272   0.948E-03    0.946E-04
DAV:   3    -0.129428929698E+03   -0.27463E-06   -0.30053E-07   202   0.299E-03    0.666E-04
DAV:   4    -0.129428930117E+03   -0.41903E-06   -0.38470E-08   235   0.147E-03    0.185E-04
DAV:   5    -0.129428930347E+03   -0.23064E-06    0.19710E-08   272   0.740E-04    0.105E-04
DAV:   6    -0.129428930524E+03   -0.17628E-06    0.40196E-08   200   0.397E-04
  58 F= -.12942893E+03 E0= -.12942893E+03  d E =-.127894E-04
       N       E                     dE             d eps       ncg     rms          rms(c)
DAV:   1    -0.129428945579E+03   -0.15232E-04   -0.13039E-04   277   0.600E-02    0.254E-03
DAV:   2    -0.129428946168E+03   -0.58803E-06   -0.60442E-06   204   0.137E-02    0.138E-03
DAV:   3    -0.129428946312E+03   -0.14405E-06   -0.66062E-07   226   0.433E-03    0.975E-04
DAV:   4    -0.129428946426E+03   -0.11422E-06   -0.11439E-07   238   0.213E-03    0.269E-04
DAV:   5    -0.129428946467E+03   -0.41145E-07    0.11498E-09   185   0.106E-03    0.156E-04
DAV:   6    -0.129428946490E+03   -0.22928E-07    0.36610E-08   191   0.558E-04
  59 F= -.12942895E+03 E0= -.12942895E+03  d E =-.159663E-04
