 vasp.5.4.1 24Jun15 (build Jan 13 2020 12:58:22) complex                        
  
 executed on           IFC91_ompi date 2020.02.03  09:59:13
 running on   15 total cores
 each image running on    1 cores
 distrk:  each k-point on    1 cores,    1 groups
 distr:  one band on NCORES_PER_BAND=   1 cores,    1 groups


--------------------------------------------------------------------------------------------------------


 INCAR:
 POTCAR:    PAW_PBE H 15Jun2001                   
 POTCAR:    PAW_PBE C 08Apr2002                   
 POTCAR:    PAW_PBE N 08Apr2002                   
 POTCAR:    PAW_PBE O 08Apr2002                   
 POTCAR:    PAW_PBE H 15Jun2001                   
   VRHFIN =H: ultrasoft test                                                    
   LEXCH  = PE                                                                  
   EATOM  =    12.4884 eV,    0.9179 Ry                                         
                                                                                
   TITEL  = PAW_PBE H 15Jun2001                                                 
   LULTRA =        F    use ultrasoft PP ?                                      
   IUNSCR =        0    unscreen: 0-lin 1-nonlin 2-no                           
   RPACOR =    0.000    partial core radius                                     
   POMASS =    1.000; ZVAL   =    1.000    mass and valenz                      
   RCORE  =    1.100    outmost cutoff radius                                   
   RWIGS  =    0.700; RWIGS  =    0.370    wigner-seitz radius (au A)           
   ENMAX  =  250.000; ENMIN  =  200.000 eV                                      
   RCLOC  =    0.701    cutoff for local pot                                    
   LCOR   =        T    correct aug charges                                     
   LPAW   =        T    paw PP                                                  
   EAUG   =  400.000                                                            
   RMAX   =    1.123    core radius for proj-oper                               
   RAUG   =    1.200    factor for augmentation sphere                          
   RDEP   =    1.112    radius for radial grids                                 
   RDEPT  =    0.926    core radius for aug-charge                              
                                                                                
   Atomic configuration                                                         
    2 entries                                                                   
     n  l   j            E        occ.                                          
     1  0  0.50        -6.4927   1.0000                                         
     2  1  0.50        -3.4015   0.0000                                         
   Description                                                                  
     l       E           TYP  RCUT    TYP  RCUT                                 
     0     -6.4927494     23  1.100                                             
     0      6.8029130     23  1.100                                             
     1     -4.0817478     23  1.100                                             
  local pseudopotential read in
  atomic valenz-charges read in
  non local Contribution for L=           0  read in
    real space projection operators read in
  non local Contribution for L=           0  read in
    real space projection operators read in
  non local Contribution for L=           1  read in
    real space projection operators read in
    PAW grid and wavefunctions read in
 
   number of l-projection  operators is LMAX  =           3
   number of lm-projection operators is LMMAX =           5
 
 POTCAR:    PAW_PBE C 08Apr2002                   
   VRHFIN =C: s2p2                                                              
   LEXCH  = PE                                                                  
   EATOM  =   147.1560 eV,   10.8157 Ry                                         
                                                                                
   TITEL  = PAW_PBE C 08Apr2002                                                 
   LULTRA =        F    use ultrasoft PP ?                                      
   IUNSCR =        1    unscreen: 0-lin 1-nonlin 2-no                           
   RPACOR =    1.200    partial core radius                                     
   POMASS =   12.011; ZVAL   =    4.000    mass and valenz                      
   RCORE  =    1.500    outmost cutoff radius                                   
   RWIGS  =    1.630; RWIGS  =    0.863    wigner-seitz radius (au A)           
   ENMAX  =  400.000; ENMIN  =  300.000 eV                                      
   ICORE  =        2    local potential                                         
   LCOR   =        T    correct aug charges                                     
   LPAW   =        T    paw PP                                                  
   EAUG   =  644.873                                                            
   DEXC   =    0.000                                                            
   RMAX   =    1.529    core radius for proj-oper                               
   RAUG   =    1.300    factor for augmentation sphere                          
   RDEP   =    1.501    radius for radial grids                                 
   RDEPT  =    1.300    core radius for aug-charge                              
                                                                                
   Atomic configuration                                                         
    4 entries                                                                   
     n  l   j            E        occ.                                          
     1  0  0.50      -273.3789   2.0000                                         
     2  0  0.50       -13.7508   2.0000                                         
     2  1  0.50        -5.2854   2.0000                                         
     3  2  1.50        -5.4423   0.0000                                         
   Description                                                                  
     l       E           TYP  RCUT    TYP  RCUT                                 
     0    -13.7508458     23  1.200                                             
     0     -8.2022199     23  1.200                                             
     1     -5.2854383     23  1.500                                             
     1     34.0145650     23  1.500                                             
     2     -5.4423304      7  1.500                                             
  local pseudopotential read in
  partial core-charges read in
  partial kinetic energy density read in
  atomic valenz-charges read in
  non local Contribution for L=           0  read in
    real space projection operators read in
  non local Contribution for L=           0  read in
    real space projection operators read in
  non local Contribution for L=           1  read in
    real space projection operators read in
  non local Contribution for L=           1  read in
    real space projection operators read in
    PAW grid and wavefunctions read in
 
   number of l-projection  operators is LMAX  =           4
   number of lm-projection operators is LMMAX =           8
 
 POTCAR:    PAW_PBE N 08Apr2002                   
   VRHFIN =N: s2p3                                                              
   LEXCH  = PE                                                                  
   EATOM  =   264.5486 eV,   19.4438 Ry                                         
                                                                                
   TITEL  = PAW_PBE N 08Apr2002                                                 
   LULTRA =        F    use ultrasoft PP ?                                      
   IUNSCR =        1    unscreen: 0-lin 1-nonlin 2-no                           
   RPACOR =    1.200    partial core radius                                     
   POMASS =   14.001; ZVAL   =    5.000    mass and valenz                      
   RCORE  =    1.500    outmost cutoff radius                                   
   RWIGS  =    1.400; RWIGS  =    0.741    wigner-seitz radius (au A)           
   ENMAX  =  400.000; ENMIN  =  300.000 eV                                      
   ICORE  =        2    local potential                                         
   LCOR   =        T    correct aug charges                                     
   LPAW   =        T    paw PP                                                  
   EAUG   =  627.112                                                            
   DEXC   =    0.000                                                            
   RMAX   =    1.529    core radius for proj-oper                               
   RAUG   =    1.300    factor for augmentation sphere                          
   RDEP   =    1.514    radius for radial grids                                 
   RDEPT  =    1.338    core radius for aug-charge                              
                                                                                
   Atomic configuration                                                         
    4 entries                                                                   
     n  l   j            E        occ.                                          
     1  0  0.50      -384.7179   2.0000                                         
     2  0  0.50       -18.5828   2.0000                                         
     2  1  0.50        -7.0898   3.0000                                         
     3  2  1.50        -6.8029   0.0000                                         
   Description                                                                  
     l       E           TYP  RCUT    TYP  RCUT                                 
     0    -18.5828119     23  1.200                                             
     0    -13.5018863     23  1.200                                             
     1     -7.0897853     23  1.500                                             
     1      9.5240782     23  1.500                                             
     2     -6.8029130      7  1.500                                             
  local pseudopotential read in
  partial core-charges read in
  partial kinetic energy density read in
  atomic valenz-charges read in
  non local Contribution for L=           0  read in
    real space projection operators read in
  non local Contribution for L=           0  read in
    real space projection operators read in
  non local Contribution for L=           1  read in
    real space projection operators read in
  non local Contribution for L=           1  read in
    real space projection operators read in
    PAW grid and wavefunctions read in
 
   number of l-projection  operators is LMAX  =           4
   number of lm-projection operators is LMMAX =           8
 
 POTCAR:    PAW_PBE O 08Apr2002                   
   VRHFIN =O: s2p4                                                              
   LEXCH  = PE                                                                  
   EATOM  =   432.3788 eV,   31.7789 Ry                                         
                                                                                
   TITEL  = PAW_PBE O 08Apr2002                                                 
   LULTRA =        F    use ultrasoft PP ?                                      
   IUNSCR =        1    unscreen: 0-lin 1-nonlin 2-no                           
   RPACOR =    1.200    partial core radius                                     
   POMASS =   16.000; ZVAL   =    6.000    mass and valenz                      
   RCORE  =    1.520    outmost cutoff radius                                   
   RWIGS  =    1.550; RWIGS  =    0.820    wigner-seitz radius (au A)           
   ENMAX  =  400.000; ENMIN  =  300.000 eV                                      
   ICORE  =        2    local potential                                         
   LCOR   =        T    correct aug charges                                     
   LPAW   =        T    paw PP                                                  
   EAUG   =  605.392                                                            
   DEXC   =    0.000                                                            
   RMAX   =    1.553    core radius for proj-oper                               
   RAUG   =    1.300    factor for augmentation sphere                          
   RDEP   =    1.550    radius for radial grids                                 
   RDEPT  =    1.329    core radius for aug-charge                              
                                                                                
   Atomic configuration                                                         
    4 entries                                                                   
     n  l   j            E        occ.                                          
     1  0  0.50      -514.6923   2.0000                                         
     2  0  0.50       -23.9615   2.0000                                         
     2  1  0.50        -9.0305   4.0000                                         
     3  2  1.50        -9.5241   0.0000                                         
   Description                                                                  
     l       E           TYP  RCUT    TYP  RCUT                                 
     0    -23.9615318     23  1.200                                             
     0     -9.5240782     23  1.200                                             
     1     -9.0304911     23  1.520                                             
     1      8.1634956     23  1.520                                             
     2     -9.5240782      7  1.500                                             
  local pseudopotential read in
  partial core-charges read in
  partial kinetic energy density read in
  kinetic energy density of atom read in
  atomic valenz-charges read in
  non local Contribution for L=           0  read in
    real space projection operators read in
  non local Contribution for L=           0  read in
    real space projection operators read in
  non local Contribution for L=           1  read in
    real space projection operators read in
  non local Contribution for L=           1  read in
    real space projection operators read in
    PAW grid and wavefunctions read in
 
   number of l-projection  operators is LMAX  =           4
   number of lm-projection operators is LMMAX =           8
 
 Optimization of the real space projectors (new method)

 maximal supplied QI-value         = 34.20
 optimisation between [QCUT,QGAM] = [  9.92, 20.18] = [ 27.55,114.04] Ry 
 Optimized for a Real-space Cutoff    1.26 Angstroem

   l    n(q)    QCUT    max X(q) W(low)/X(q) W(high)/X(q)  e(spline) 
   0      8     9.919    19.460    0.50E-03    0.23E-03    0.29E-06
   0      8     9.919    12.209    0.48E-03    0.23E-03    0.28E-06
   1      7     9.919     4.655    0.17E-03    0.75E-03    0.30E-06
 Optimization of the real space projectors (new method)

 maximal supplied QI-value         = 25.13
 optimisation between [QCUT,QGAM] = [ 10.05, 20.36] = [ 28.30,116.06] Ry 
 Optimized for a Real-space Cutoff    1.30 Angstroem

   l    n(q)    QCUT    max X(q) W(low)/X(q) W(high)/X(q)  e(spline) 
   0      8    10.053   115.676    0.49E-03    0.72E-03    0.18E-06
   0      8    10.053    87.132    0.49E-03    0.71E-03    0.18E-06
   1      7    10.053     4.429    0.32E-03    0.31E-03    0.18E-06
   1      7    10.053     2.733    0.23E-03    0.19E-03    0.20E-06
 Optimization of the real space projectors (new method)

 maximal supplied QI-value         = 25.13
 optimisation between [QCUT,QGAM] = [ 10.05, 20.36] = [ 28.30,116.06] Ry 
 Optimized for a Real-space Cutoff    1.65 Angstroem

   l    n(q)    QCUT    max X(q) W(low)/X(q) W(high)/X(q)  e(spline) 
   0     10    10.053    79.467    0.76E-04    0.72E-04    0.56E-06
   0     10    10.053    66.151    0.76E-04    0.72E-04    0.55E-06
   1     10    10.053     8.350    0.25E-03    0.92E-03    0.41E-05
   1     10    10.053     5.531    0.27E-03    0.10E-02    0.45E-05
 Optimization of the real space projectors (new method)

 maximal supplied QI-value         = 24.76
 optimisation between [QCUT,QGAM] = [ 10.15, 20.30] = [ 28.85,115.39] Ry 
 Optimized for a Real-space Cutoff    1.38 Angstroem

   l    n(q)    QCUT    max X(q) W(low)/X(q) W(high)/X(q)  e(spline) 
   0      8    10.150    20.381    0.22E-03    0.32E-03    0.29E-06
   0      8    10.150    15.268    0.23E-03    0.35E-03    0.30E-06
   1      8    10.150     5.964    0.46E-03    0.53E-03    0.21E-06
   1      8    10.150     5.382    0.38E-03    0.45E-03    0.19E-06
  PAW_PBE H 15Jun2001                   :
 energy of atom  1       EATOM=  -12.4884
 kinetic energy error for atom=    0.0098 (will be added to EATOM!!)
  PAW_PBE C 08Apr2002                   :
 energy of atom  2       EATOM= -147.1560
 kinetic energy error for atom=    0.0288 (will be added to EATOM!!)
  PAW_PBE N 08Apr2002                   :
 energy of atom  3       EATOM= -264.5486
 kinetic energy error for atom=    0.0736 (will be added to EATOM!!)
  PAW_PBE O 08Apr2002                   :
 energy of atom  4       EATOM= -432.3788
 kinetic energy error for atom=    0.1156 (will be added to EATOM!!)
 
 
 POSCAR: H12 C6 N2 O2                            
  positions in direct lattice
  velocities in cartesian coordinates
 exchange correlation table for  LEXCH =        8
   RHO(1)=    0.500       N(1)  =     2000
   RHO(2)=  100.500       N(2)  =     4000

 VTST: version 3.2, (02/03/18)

 CHAIN: initializing optimizer
 
 OPT: Using FIRE optimizer
 OPT: FIRE, Init
 OPT: FIRE, MAXMOVE       0.20000
 OPT: FIRE, TIMESTEP      0.10000
 OPT: FIRE, FTIMEMAX      1.00000
 OPT: FIRE, FTIMEINC      1.10000
 OPT: FIRE, FTIMEDEC      0.50000
 OPT: FIRE, FALPHADEC     0.99000
 OPT: FIRE, FALPHA        0.10000
 OPT: FIRE, FNMIN         5
 
 CHAIN: Read ICHAIN            0
 CHAIN: Running the NEB
 NEB:          SPRING     -5.000000
 NEB:          LCLIMB      T
 NEB:     LTANGENTOLD      F
 NEB:           LDNEB      F
 NEB:        LDNEBORG      F
 NEB:        LNEBCELL      F
 NEB:          EFIRST      0.000000
 NEB:           ELAST      0.000000
 
 POSCAR: H12 C6 N2 O2                            
  positions in direct lattice
  No initial velocities read in
 
 POSCAR: H12 C6 N2 O2                            
  positions in direct lattice
  No initial velocities read in
 


--------------------------------------------------------------------------------------------------------


 ion  position               nearest neighbor table
   1  0.379  0.533  0.490-  13 1.10
   2  0.381  0.485  0.455-  13 1.10
   3  0.384  0.478  0.513-  13 1.10
   4  0.451  0.438  0.497-  19 1.02
   5  0.524  0.427  0.494-  15 1.10
   6  0.573  0.472  0.443-  16 1.10
   7  0.529  0.510  0.433-  16 1.10
   8  0.524  0.454  0.415-  16 1.10
   9  0.517  0.547  0.508-  20 1.03
  10  0.552  0.542  0.597-  18 1.10
  11  0.599  0.545  0.561-  18 1.10
  12  0.558  0.589  0.561-  18 1.10
  13  0.394  0.499  0.486-   1 1.10   3 1.10   2 1.10  14 1.52
  14  0.444  0.505  0.483-  21 1.24  19 1.36  13 1.52
  15  0.517  0.462  0.487-   5 1.10  19 1.48  16 1.54  17 1.55
  16  0.537  0.475  0.442-   7 1.10   8 1.10   6 1.10  15 1.54
  17  0.542  0.486  0.526-  22 1.24  20 1.36  15 1.55
  18  0.563  0.553  0.564-  12 1.10  11 1.10  10 1.10  20 1.45
  19  0.468  0.467  0.490-   4 1.02  14 1.36  15 1.48
  20  0.538  0.530  0.529-   9 1.03  17 1.36  18 1.45
  21  0.462  0.541  0.474-  14 1.24
  22  0.565  0.463  0.552-  17 1.24
 
  LATTYP: Found a simple cubic cell.
 ALAT       =    30.0000000000
  
  Lattice vectors:
  
 A1 = (  30.0000000000,   0.0000000000,   0.0000000000)
 A2 = (   0.0000000000,  30.0000000000,   0.0000000000)
 A3 = (   0.0000000000,   0.0000000000,  30.0000000000)


Analysis of symmetry for initial positions (statically):
=====================================================================
 Subroutine PRICEL returns:
 Original cell was already a primitive cell.
 

 Routine SETGRP: Setting up the symmetry group for a 
 simple cubic supercell.


 Subroutine GETGRP returns: Found  1 space group operations
 (whereof  1 operations were pure point group operations)
 out of a pool of 48 trial point group operations.


The static configuration has the point symmetry C_1 .


Analysis of symmetry for dynamics (positions and initial velocities):
=====================================================================
 Subroutine PRICEL returns:
 Original cell was already a primitive cell.
 

 Routine SETGRP: Setting up the symmetry group for a 
 simple cubic supercell.


 Subroutine GETGRP returns: Found  1 space group operations
 (whereof  1 operations were pure point group operations)
 out of a pool of 48 trial point group operations.


The dynamic configuration has the point symmetry C_1 .
 
 
 KPOINTS: Mo2C                                    

Automatic generation of k-mesh.
Space group operators:
 irot       det(A)        alpha          n_x          n_y          n_z        tau_x        tau_y        tau_z
    1     1.000000     0.000000     1.000000     0.000000     0.000000     0.000000     0.000000     0.000000
 
 Subroutine IBZKPT returns following result:
 ===========================================
 
 Found      4 irreducible k-points:
 
 Following reciprocal coordinates:
            Coordinates               Weight
  0.250000  0.250000  0.250000      2.000000
 -0.250000  0.250000  0.250000      2.000000
  0.250000 -0.250000  0.250000      2.000000
 -0.250000 -0.250000  0.250000      2.000000
 
 Following cartesian coordinates:
            Coordinates               Weight
  0.008333  0.008333  0.008333      2.000000
 -0.008333  0.008333  0.008333      2.000000
  0.008333 -0.008333  0.008333      2.000000
 -0.008333 -0.008333  0.008333      2.000000
 


--------------------------------------------------------------------------------------------------------




 Dimension of arrays:
   k-points           NKPTS =      4   k-points in BZ     NKDIM =      4   number of bands    NBANDS=     41
   number of dos      NEDOS =    301   number of ions     NIONS =     22
   non local maximal  LDIM  =      4   non local SUM 2l+1 LMDIM =      8
   total plane-waves  NPLWV = ******
   max r-space proj   IRMAX =   2395   max aug-charges    IRDMAX=   1821
   dimension x,y,z NGX =   150 NGY =  150 NGZ =  150
   dimension x,y,z NGXF=   300 NGYF=  300 NGZF=  300
   support grid    NGXF=   300 NGYF=  300 NGZF=  300
   ions per type =              12   6   2   2
 NGX,Y,Z   is equivalent  to a cutoff of   8.31,  8.31,  8.31 a.u.
 NGXF,Y,Z  is equivalent  to a cutoff of  16.62, 16.62, 16.62 a.u.


 I would recommend the setting:
   dimension x,y,z NGX =   147 NGY =  147 NGZ =  147
 SYSTEM =  unknown system                          
 POSCAR =  H12 C6 N2 O2                            

 Startparameter for this run:
   NWRITE =      2    write-flag & timer
   PREC   = normal    normal or accurate (medium, high low for compatibility)
   ISTART =      0    job   : 0-new  1-cont  2-samecut
   ICHARG =      2    charge: 1-file 2-atom 10-const
   ISPIN  =      1    spin polarized calculation?
   LNONCOLLINEAR =      F non collinear calculations
   LSORBIT =      F    spin-orbit coupling
   INIWAV =      1    electr: 0-lowe 1-rand  2-diag
   LASPH  =      F    aspherical Exc in radial PAW
   METAGGA=      F    non-selfconsistent MetaGGA calc.

 Electronic Relaxation 1
   ENCUT  =  400.0 eV  29.40 Ry    5.42 a.u.  48.92 48.92 48.92*2*pi/ulx,y,z
   ENINI  =  400.0     initial cutoff
   ENAUG  =  644.9 eV  augmentation charge cutoff
   NELM   =    500;   NELMIN=  6; NELMDL= -5     # of ELM steps 
   EDIFF  = 0.1E-03   stopping-criterion for ELM
   LREAL  =      T    real-space projection
   NLSPLINE    = F    spline interpolate recip. space projectors
   LCOMPAT=      F    compatible to vasp.4.4
   GGA_COMPAT  = T    GGA compatible to vasp.4.4-vasp.4.6
   LMAXPAW     = -100 max onsite density
   LMAXMIX     =    2 max onsite mixed and CHGCAR
   VOSKOWN=      0    Vosko Wilk Nusair interpolation
   ROPT   =   -0.00050  -0.00050  -0.00050  -0.00050
 Ionic relaxation
   EDIFFG = -.1E+00   stopping-criterion for IOM
   NSW    =    300    number of steps for IOM
   NBLOCK =      1;   KBLOCK =    300    inner block; outer block 
   IBRION =      3    ionic relax: 0-MD 1-quasi-New 2-CG
   NFREE  =      0    steps in history (QN), initial steepest desc. (CG)
   ISIF   =      2    stress and relaxation
   IWAVPR =     11    prediction:  0-non 1-charg 2-wave 3-comb
   ISYM   =      2    0-nonsym 1-usesym 2-fastsym
   LCORR  =      T    Harris-Foulkes like correction to forces

   POTIM  = 0.0000    time-step for ionic-motion
   TEIN   =    0.0    initial temperature
   TEBEG  =    0.0;   TEEND  =   0.0 temperature during run
   SMASS  =   2.00    Nose mass-parameter (am)
   estimated Nose-frequenzy (Omega)   =  0.24E+10 period in steps =  0.00 mass=   0.137E-25a.u.
   SCALEE = 1.0000    scale energy and forces
   NPACO  =    256;   APACO  = 16.0  distance and # of slots for P.C.
   PSTRESS=    0.0 pullay stress

  Mass of Ions in am
   POMASS =   1.00 12.01 14.00 16.00
  Ionic Valenz
   ZVAL   =   1.00  4.00  5.00  6.00
  Atomic Wigner-Seitz radii
   RWIGS  =  -1.00 -1.00 -1.00 -1.00
  virtual crystal weights 
   VCA    =   1.00  1.00  1.00  1.00
   NELECT =      58.0000    total number of electrons
   NUPDOWN=      -1.0000    fix difference up-down

 DOS related values:
   EMIN   =  10.00;   EMAX   =-10.00  energy-range for DOS
   EFERMI =   0.00
   ISMEAR =     0;   SIGMA  =   0.20  broadening in eV -4-tet -1-fermi 0-gaus

 Electronic relaxation 2 (details)
   IALGO  =     38    algorithm
   LDIAG  =      T    sub-space diagonalisation (order eigenvalues)
   LSUBROT=      F    optimize rotation matrix (better conditioning)
   TURBO    =      0    0=normal 1=particle mesh
   IRESTART =      0    0=no restart 2=restart with 2 vectors
   NREBOOT  =      0    no. of reboots
   NMIN     =      0    reboot dimension
   EREF     =   0.00    reference energy to select bands
   IMIX   =      4    mixing-type and parameters
     AMIX     =   0.40;   BMIX     =  1.00
     AMIX_MAG =   1.60;   BMIX_MAG =  1.00
     AMIN     =   0.10
     WC   =   100.;   INIMIX=   1;  MIXPRE=   1;  MAXMIX= -45

 Intra band minimization:
   WEIMIN = 0.0010     energy-eigenvalue tresh-hold
   EBREAK =  0.61E-06  absolut break condition
   DEPER  =   0.30     relativ break condition  

   TIME   =   0.40     timestep for ELM

  volume/ion in A,a.u.               =    1227.27      8282.05
  Fermi-wavevector in a.u.,A,eV,Ry     =   0.211234  0.399174  0.607087  0.044620
  Thomas-Fermi vector in A             =   0.980021
 
 Write flags
   LWAVE  =      F    write WAVECAR
   LCHARG =      F    write CHGCAR
   LVTOT  =      F    write LOCPOT, total local potential
   LVHAR  =      F    write LOCPOT, Hartree potential only
   LELF   =      F    write electronic localiz. function (ELF)
   LORBIT =      0    0 simple, 1 ext, 2 COOP (PROOUT)


 Dipole corrections
   LMONO  =      F    monopole corrections only (constant potential shift)
   LDIPOL =      F    correct potential (dipole corrections)
   IDIPOL =      0    1-x, 2-y, 3-z, 4-all directions 
   EPSILON=  1.0000000 bulk dielectric constant

 Exchange correlation treatment:
   GGA     =    PE    GGA type
   LEXCH   =     8    internal setting for exchange type
   VOSKOWN=      0    Vosko Wilk Nusair interpolation
   LHFCALC =     F    Hartree Fock is set to
   LHFONE  =     F    Hartree Fock one center treatment
   AEXX    =    0.0000 exact exchange contribution

 Linear response parameters
   LEPSILON=     F    determine dielectric tensor
   LRPA    =     F    only Hartree local field effects (RPA)
   LNABLA  =     F    use nabla operator in PAW spheres
   LVEL    =     F    velocity operator in full k-point grid
   LINTERFAST=   F  fast interpolation
   KINTER  =     0    interpolate to denser k-point grid
   CSHIFT  =0.1000    complex shift for real part using Kramers Kronig
   OMEGAMAX=  -1.0    maximum frequency
   DEG_THRESHOLD= 0.2000000E-02 threshold for treating states as degnerate
   RTIME   =    0.100 relaxation time in fs

 Orbital magnetization related:
   ORBITALMAG=     F  switch on orbital magnetization
   LCHIMAG   =     F  perturbation theory with respect to B field
   DQ        =  0.001000  dq finite difference perturbation B field



--------------------------------------------------------------------------------------------------------


 quickmin algorithm: (dynamic with friction)
 charge density and potential will be updated during run
 non-spin polarized calculation
 Variant of blocked Davidson
 Davidson routine will perform the subspace rotation
 perform sub-space diagonalisation
    after iterative eigenvector-optimisation
 modified Broyden-mixing scheme, WC =      100.0
 initial mixing is a Kerker type mixing with AMIX =  0.4000 and BMIX =      1.0000
 Hartree-type preconditioning will be used
 using additional bands           12
 real space projection scheme for non local part
 use partial core corrections
 calculate Harris-corrections to forces 
   (improved forces if not selfconsistent)
 use gradient corrections 
 use of overlap-Matrix (Vanderbilt PP)
 Gauss-broadening in eV      SIGMA  =   0.20


--------------------------------------------------------------------------------------------------------


  energy-cutoff  :      400.00
  volume of cell :    27000.00
      direct lattice vectors                 reciprocal lattice vectors
    30.000000000  0.000000000  0.000000000     0.033333333  0.000000000  0.000000000
     0.000000000 30.000000000  0.000000000     0.000000000  0.033333333  0.000000000
     0.000000000  0.000000000 30.000000000     0.000000000  0.000000000  0.033333333

  length of vectors
    30.000000000 30.000000000 30.000000000     0.033333333  0.033333333  0.033333333


 
 k-points in units of 2pi/SCALE and weight: Mo2C                                    
   0.00833333  0.00833333  0.00833333       0.250
  -0.00833333  0.00833333  0.00833333       0.250
   0.00833333 -0.00833333  0.00833333       0.250
  -0.00833333 -0.00833333  0.00833333       0.250
 
 k-points in reciprocal lattice and weights: Mo2C                                    
   0.25000000  0.25000000  0.25000000       0.250
  -0.25000000  0.25000000  0.25000000       0.250
   0.25000000 -0.25000000  0.25000000       0.250
  -0.25000000 -0.25000000  0.25000000       0.250
 
 position of ions in fractional coordinates (direct lattice) 
   0.37920270  0.53265332  0.49018080
   0.38081369  0.48454555  0.45467387
   0.38391666  0.47773155  0.51336055
   0.45074902  0.43846664  0.49713624
   0.52411351  0.42697030  0.49373576
   0.57339034  0.47204768  0.44337509
   0.52853205  0.50989811  0.43329159
   0.52396291  0.45371836  0.41544739
   0.51729283  0.54690305  0.50760158
   0.55219674  0.54198233  0.59730612
   0.59857586  0.54540092  0.56111772
   0.55803548  0.58940916  0.56146649
   0.39378301  0.49947472  0.48557420
   0.44398758  0.50457132  0.48257510
   0.51697338  0.46231539  0.48739147
   0.53682351  0.47539393  0.44206657
   0.54190308  0.48552828  0.52616223
   0.56290785  0.55329260  0.56407941
   0.46803336  0.46659321  0.48950813
   0.53825740  0.53046997  0.52916663
   0.46156837  0.54097137  0.47416356
   0.56541446  0.46331630  0.55170484
 
 position of ions in cartesian coordinates  (Angst):
  11.37608111 15.97959958 14.70542413
  11.42441062 14.53636654 13.64021599
  11.51749982 14.33194639 15.40081637
  13.52247067 13.15399930 14.91408724
  15.72340529 12.80910886 14.81207280
  17.20171012 14.16143051 13.30125272
  15.85596150 15.29694322 12.99874764
  15.71888723 13.61155077 12.46342168
  15.51878477 16.40709138 15.22804725
  16.56590214 16.25946983 17.91918351
  17.95727566 16.36202764 16.83353171
  16.74106445 17.68227482 16.84399469
  11.81349033 14.98424172 14.56722602
  13.31962743 15.13713972 14.47725287
  15.50920143 13.86946185 14.62174421
  16.10470530 14.26181799 13.26199698
  16.25709248 14.56584826 15.78486676
  16.88723542 16.59877794 16.92238238
  14.04100081 13.99779645 14.68524403
  16.14772213 15.91409918 15.87499875
  13.84705108 16.22914102 14.22490669
  16.96243375 13.89948913 16.55114527
 


--------------------------------------------------------------------------------------------------------


 k-point  1 :   0.2500 0.2500 0.2500  plane waves:  490454
 k-point  2 :  -0.2500 0.2500 0.2500  plane waves:  490454
 k-point  3 :   0.2500-0.2500 0.2500  plane waves:  490454
 k-point  4 :  -0.2500-0.2500 0.2500  plane waves:  490454

 maximum and minimum number of plane-waves per node :    490454   490454

 maximum number of plane-waves:    490454
 maximum index in each direction: 
   IXMAX=   49   IYMAX=   49   IZMAX=   48
   IXMIN=  -49   IYMIN=  -49   IZMIN=  -49

 WARNING: aliasing errors must be expected set NGX to 198 to avoid them
 WARNING: aliasing errors must be expected set NGY to 198 to avoid them
 WARNING: aliasing errors must be expected set NGZ to 196 to avoid them
 aliasing errors are usually negligible using standard VASP settings
 and one can safely disregard these warnings

 serial   3D FFT for wavefunctions
 parallel 3D FFT for charge:
    minimum data exchange during FFTs selected (reduces bandwidth)


 total amount of memory used by VASP on root node  4333710. kBytes
========================================================================

   base      :      30000. kBytes
   nonlr-proj:       2405. kBytes
   fftplans  :     924480. kBytes
   grid      :    2089440. kBytes
   one-center:         67. kBytes
   wavefun   :    1287318. kBytes
 
     INWAV:  cpu time    0.0000: real time    0.0003
 Broyden mixing: mesh for mixing (old mesh)
   NGX = 97   NGY = 97   NGZ = 97
  (NGX  =300   NGY  =300   NGZ  =300)
  gives a total of 912673 points

 initial charge density was supplied:
 charge density of overlapping atoms calculated
 number of electron      58.0000000 magnetization 
 keeping initial charge density in first step


--------------------------------------------------------------------------------------------------------


 Maximum index for non-local projection operator         2286
 Maximum index for augmentation-charges         1587 (set IRDMAX)


--------------------------------------------------------------------------------------------------------


 First call to EWALD:  gamma=   0.059
 Maximum number of real-space cells 3x 3x 3
 Maximum number of reciprocal cells 3x 3x 3

 FEWALD executed in parallel
    FEWALD:  cpu time    0.0050: real time    0.0048


----------------------------------------- Iteration    1(   1)  ---------------------------------------


    POTLOK:  cpu time   19.8400: real time   19.8244
    SETDIJ:  cpu time    0.0280: real time    0.0281
     EDDAV:  cpu time  259.4706: real time  259.2548
       DOS:  cpu time    0.0000: real time    0.0009
    --------------------------------------------
      LOOP:  cpu time  279.3425: real time  279.1130

 eigenvalue-minimisations  :   408
 total energy-change (2. order) : 0.5813969E+03  (-0.8259552E+03)
 number of electron      58.0000000 magnetization 
 augmentation part       58.0000000 magnetization 

 Free energy of the ion-electron system (eV)
  ---------------------------------------------------
  alpha Z        PSCENC =         0.51957394
  Ewald energy   TEWEN  =      6128.16915496
  -Hartree energ DENC   =     -7870.93968230
  -exchange      EXHF   =         0.00000000
  -V(xc)+E(xc)   XCENC  =       202.00931275
  PAW double counting   =      1779.70502452    -1789.20730229
  entropy T*S    EENTRO =        -0.77965773
  eigenvalues    EBANDS =      -294.06287022
  atomic energy  EATOM  =      2425.98333211
  Solvation  Ediel_sol  =         0.00000000
  ---------------------------------------------------
  free energy    TOTEN  =       581.39688573 eV

  energy without entropy =      582.17654346  energy(sigma->0) =      581.78671460


--------------------------------------------------------------------------------------------------------




----------------------------------------- Iteration    1(   2)  ---------------------------------------


     EDDAV:  cpu time  341.8100: real time  341.5265
       DOS:  cpu time    0.0010: real time    0.0008
    --------------------------------------------
      LOOP:  cpu time  341.8120: real time  341.5302

 eigenvalue-minimisations  :   572
 total energy-change (2. order) :-0.3288037E+03  (-0.3190721E+03)
 number of electron      58.0000000 magnetization 
 augmentation part       58.0000000 magnetization 

 Free energy of the ion-electron system (eV)
  ---------------------------------------------------
  alpha Z        PSCENC =         0.51957394
  Ewald energy   TEWEN  =      6128.16915496
  -Hartree energ DENC   =     -7870.93968230
  -exchange      EXHF   =         0.00000000
  -V(xc)+E(xc)   XCENC  =       202.00931275
  PAW double counting   =      1779.70502452    -1789.20730229
  entropy T*S    EENTRO =        -0.45448844
  eigenvalues    EBANDS =      -623.19170108
  atomic energy  EATOM  =      2425.98333211
  Solvation  Ediel_sol  =         0.00000000
  ---------------------------------------------------
  free energy    TOTEN  =       252.59322416 eV

  energy without entropy =      253.04771260  energy(sigma->0) =      252.82046838


--------------------------------------------------------------------------------------------------------




----------------------------------------- Iteration    1(   3)  ---------------------------------------


     EDDAV:  cpu time  299.0545: real time  298.8074
       DOS:  cpu time    0.0000: real time    0.0006
    --------------------------------------------
      LOOP:  cpu time  299.0565: real time  298.8109

 eigenvalue-minimisations  :   488
 total energy-change (2. order) :-0.2993546E+03  (-0.2910646E+03)
 number of electron      58.0000000 magnetization 
 augmentation part       58.0000000 magnetization 

 Free energy of the ion-electron system (eV)
  ---------------------------------------------------
  alpha Z        PSCENC =         0.51957394
  Ewald energy   TEWEN  =      6128.16915496
  -Hartree energ DENC   =     -7870.93968230
  -exchange      EXHF   =         0.00000000
  -V(xc)+E(xc)   XCENC  =       202.00931275
  PAW double counting   =      1779.70502452    -1789.20730229
  entropy T*S    EENTRO =        -0.00092430
  eigenvalues    EBANDS =      -922.99989934
  atomic energy  EATOM  =      2425.98333211
  Solvation  Ediel_sol  =         0.00000000
  ---------------------------------------------------
  free energy    TOTEN  =       -46.76140995 eV

  energy without entropy =      -46.76048566  energy(sigma->0) =      -46.76094781


--------------------------------------------------------------------------------------------------------




----------------------------------------- Iteration    1(   4)  ---------------------------------------


     EDDAV:  cpu time  251.8487: real time  251.6403
       DOS:  cpu time    0.0000: real time    0.0005
    --------------------------------------------
      LOOP:  cpu time  251.8497: real time  251.6439

 eigenvalue-minimisations  :   395
 total energy-change (2. order) :-0.8996061E+02  (-0.8977704E+02)
 number of electron      58.0000000 magnetization 
 augmentation part       58.0000000 magnetization 

 Free energy of the ion-electron system (eV)
  ---------------------------------------------------
  alpha Z        PSCENC =         0.51957394
  Ewald energy   TEWEN  =      6128.16915496
  -Hartree energ DENC   =     -7870.93968230
  -exchange      EXHF   =         0.00000000
  -V(xc)+E(xc)   XCENC  =       202.00931275
  PAW double counting   =      1779.70502452    -1789.20730229
  entropy T*S    EENTRO =         0.00000000
  eigenvalues    EBANDS =     -1012.96143392
  atomic energy  EATOM  =      2425.98333211
  Solvation  Ediel_sol  =         0.00000000
  ---------------------------------------------------
  free energy    TOTEN  =      -136.72202023 eV

  energy without entropy =     -136.72202023  energy(sigma->0) =     -136.72202023


--------------------------------------------------------------------------------------------------------




----------------------------------------- Iteration    1(   5)  ---------------------------------------


     EDDAV:  cpu time  287.0184: real time  286.7819
       DOS:  cpu time    0.0000: real time    0.0005
    CHARGE:  cpu time   16.4875: real time   16.4745
    MIXING:  cpu time    0.5929: real time    0.5915
    --------------------------------------------
      LOOP:  cpu time  304.1008: real time  303.8515

 eigenvalue-minimisations  :   464
 total energy-change (2. order) :-0.5142309E+01  (-0.5131704E+01)
 number of electron      57.9999947 magnetization 
 augmentation part        2.9726857 magnetization 

 Broyden mixing:
  rms(total) = 0.19562E+01    rms(broyden)= 0.19540E+01
  rms(prec ) = 0.20316E+01
  weight for this iteration     100.00

 Free energy of the ion-electron system (eV)
  ---------------------------------------------------
  alpha Z        PSCENC =         0.51957394
  Ewald energy   TEWEN  =      6128.16915496
  -Hartree energ DENC   =     -7870.93968230
  -exchange      EXHF   =         0.00000000
  -V(xc)+E(xc)   XCENC  =       202.00931275
  PAW double counting   =      1779.70502452    -1789.20730229
  entropy T*S    EENTRO =         0.00000000
  eigenvalues    EBANDS =     -1018.10374332
  atomic energy  EATOM  =      2425.98333211
  Solvation  Ediel_sol  =         0.00000000
  ---------------------------------------------------
  free energy    TOTEN  =      -141.86432964 eV

  energy without entropy =     -141.86432964  energy(sigma->0) =     -141.86432964


--------------------------------------------------------------------------------------------------------




----------------------------------------- Iteration    1(   6)  ---------------------------------------


    POTLOK:  cpu time   18.3862: real time   18.3715
    SETDIJ:  cpu time    0.0280: real time    0.0283
     EDDAV:  cpu time  267.7323: real time  267.5093
       DOS:  cpu time    0.0000: real time    0.0005
    CHARGE:  cpu time   16.4745: real time   16.4617
    MIXING:  cpu time    0.6269: real time    0.6258
    --------------------------------------------
      LOOP:  cpu time  303.2499: real time  303.3213

 eigenvalue-minimisations  :   424
 total energy-change (2. order) : 0.1017060E+02  (-0.2366093E+01)
 number of electron      57.9999958 magnetization 
 augmentation part        2.6321950 magnetization 

 Broyden mixing:
  rms(total) = 0.99824E+00    rms(broyden)= 0.99779E+00
  rms(prec ) = 0.10266E+01
  weight for this iteration     100.00

 eigenvalues of (default mixing * dielectric matrix)
  average eigenvalue GAMMA=   1.2784
  1.2784

 Free energy of the ion-electron system (eV)
  ---------------------------------------------------
  alpha Z        PSCENC =         0.51957394
  Ewald energy   TEWEN  =      6128.16915496
  -Hartree energ DENC   =     -7986.28932521
  -exchange      EXHF   =         0.00000000
  -V(xc)+E(xc)   XCENC  =       208.10076038
  PAW double counting   =      2776.16821064    -2787.02927916
  entropy T*S    EENTRO =         0.00000000
  eigenvalues    EBANDS =      -897.31615306
  atomic energy  EATOM  =      2425.98333211
  Solvation  Ediel_sol  =         0.00000000
  ---------------------------------------------------
  free energy    TOTEN  =      -131.69372540 eV

  energy without entropy =     -131.69372540  energy(sigma->0) =     -131.69372540


--------------------------------------------------------------------------------------------------------




----------------------------------------- Iteration    1(   7)  ---------------------------------------


    POTLOK:  cpu time   18.2752: real time   18.2604
    SETDIJ:  cpu time    0.0280: real time    0.0282
     EDDAV:  cpu time  272.0046: real time  271.7780
       DOS:  cpu time    0.0000: real time    0.0005
    CHARGE:  cpu time   16.4145: real time   16.4007
    MIXING:  cpu time    0.6649: real time    0.6644
    --------------------------------------------
      LOOP:  cpu time  307.3893: real time  307.1359

 eigenvalue-minimisations  :   432
 total energy-change (2. order) : 0.1755359E+01  (-0.4651066E+00)
 number of electron      57.9999956 magnetization 
 augmentation part        2.6204947 magnetization 

 Broyden mixing:
  rms(total) = 0.51654E+00    rms(broyden)= 0.51642E+00
  rms(prec ) = 0.52915E+00
  weight for this iteration     100.00

 eigenvalues of (default mixing * dielectric matrix)
  average eigenvalue GAMMA=   1.5634
  1.1026  2.0241

 Free energy of the ion-electron system (eV)
  ---------------------------------------------------
  alpha Z        PSCENC =         0.51957394
  Ewald energy   TEWEN  =      6128.16915496
  -Hartree energ DENC   =     -8048.57922867
  -exchange      EXHF   =         0.00000000
  -V(xc)+E(xc)   XCENC  =       211.13426438
  PAW double counting   =      3745.71638434    -3756.85243470
  entropy T*S    EENTRO =         0.00000000
  eigenvalues    EBANDS =      -836.02941228
  atomic energy  EATOM  =      2425.98333211
  Solvation  Ediel_sol  =         0.00000000
  ---------------------------------------------------
  free energy    TOTEN  =      -129.93836592 eV

  energy without entropy =     -129.93836592  energy(sigma->0) =     -129.93836592


--------------------------------------------------------------------------------------------------------




----------------------------------------- Iteration    1(   8)  ---------------------------------------


    POTLOK:  cpu time   18.3562: real time   18.3414
    SETDIJ:  cpu time    0.0280: real time    0.0283
     EDDAV:  cpu time  271.8127: real time  271.5859
       DOS:  cpu time    0.0000: real time    0.0005
    CHARGE:  cpu time   16.4205: real time   16.4074
    MIXING:  cpu time    0.6949: real time    0.6937
    --------------------------------------------
      LOOP:  cpu time  307.3133: real time  307.0610

 eigenvalue-minimisations  :   432
 total energy-change (2. order) : 0.4891046E+00  (-0.8325091E-01)
 number of electron      57.9999957 magnetization 
 augmentation part        2.5922528 magnetization 

 Broyden mixing:
  rms(total) = 0.15448E+00    rms(broyden)= 0.15441E+00
  rms(prec ) = 0.16214E+00
  weight for this iteration     100.00

 eigenvalues of (default mixing * dielectric matrix)
  average eigenvalue GAMMA=   1.5419
  2.3885  0.9437  1.2934

 Free energy of the ion-electron system (eV)
  ---------------------------------------------------
  alpha Z        PSCENC =         0.51957394
  Ewald energy   TEWEN  =      6128.16915496
  -Hartree energ DENC   =     -8088.79038963
  -exchange      EXHF   =         0.00000000
  -V(xc)+E(xc)   XCENC  =       213.24077800
  PAW double counting   =      4561.76614576    -4573.08452223
  entropy T*S    EENTRO =         0.00000000
  eigenvalues    EBANDS =      -797.25333425
  atomic energy  EATOM  =      2425.98333211
  Solvation  Ediel_sol  =         0.00000000
  ---------------------------------------------------
  free energy    TOTEN  =      -129.44926134 eV

  energy without entropy =     -129.44926134  energy(sigma->0) =     -129.44926134


--------------------------------------------------------------------------------------------------------




----------------------------------------- Iteration    1(   9)  ---------------------------------------


    POTLOK:  cpu time   18.3192: real time   18.3049
    SETDIJ:  cpu time    0.0280: real time    0.0282
     EDDAV:  cpu time  276.2440: real time  276.0138
       DOS:  cpu time    0.0000: real time    0.0005
    CHARGE:  cpu time   16.4155: real time   16.4015
    MIXING:  cpu time    0.7149: real time    0.7147
    --------------------------------------------
      LOOP:  cpu time  311.7236: real time  311.4673

 eigenvalue-minimisations  :   440
 total energy-change (2. order) : 0.6856658E-01  (-0.1047010E-01)
 number of electron      57.9999957 magnetization 
 augmentation part        2.5842652 magnetization 

 Broyden mixing:
  rms(total) = 0.56734E-01    rms(broyden)= 0.56704E-01
  rms(prec ) = 0.65301E-01
  weight for this iteration     100.00

 eigenvalues of (default mixing * dielectric matrix)
  average eigenvalue GAMMA=   1.5130
  2.1985  1.0456  1.0456  1.7623

 Free energy of the ion-electron system (eV)
  ---------------------------------------------------
  alpha Z        PSCENC =         0.51957394
  Ewald energy   TEWEN  =      6128.16915496
  -Hartree energ DENC   =     -8102.75542846
  -exchange      EXHF   =         0.00000000
  -V(xc)+E(xc)   XCENC  =       213.81077872
  PAW double counting   =      4801.19661442    -4812.48743491
  entropy T*S    EENTRO =         0.00000000
  eigenvalues    EBANDS =      -783.81728553
  atomic energy  EATOM  =      2425.98333211
  Solvation  Ediel_sol  =         0.00000000
  ---------------------------------------------------
  free energy    TOTEN  =      -129.38069475 eV

  energy without entropy =     -129.38069475  energy(sigma->0) =     -129.38069475


--------------------------------------------------------------------------------------------------------




----------------------------------------- Iteration    1(  10)  ---------------------------------------


    POTLOK:  cpu time   18.3222: real time   18.3082
    SETDIJ:  cpu time    0.0290: real time    0.0285
     EDDAV:  cpu time  280.4004: real time  280.1669
       DOS:  cpu time    0.0000: real time    0.0005
    CHARGE:  cpu time   16.4685: real time   16.4546
    MIXING:  cpu time    0.7609: real time    0.7606
    --------------------------------------------
      LOOP:  cpu time  315.9830: real time  315.7228

 eigenvalue-minimisations  :   448
 total energy-change (2. order) : 0.1095037E-01  (-0.2508124E-02)
 number of electron      57.9999957 magnetization 
 augmentation part        2.5906205 magnetization 

 Broyden mixing:
  rms(total) = 0.25840E-01    rms(broyden)= 0.25819E-01
  rms(prec ) = 0.35869E-01
  weight for this iteration     100.00

 eigenvalues of (default mixing * dielectric matrix)
  average eigenvalue GAMMA=   1.4848
  2.1661  2.1661  0.9634  0.9634  1.1650

 Free energy of the ion-electron system (eV)
  ---------------------------------------------------
  alpha Z        PSCENC =         0.51957394
  Ewald energy   TEWEN  =      6128.16915496
  -Hartree energ DENC   =     -8107.71730336
  -exchange      EXHF   =         0.00000000
  -V(xc)+E(xc)   XCENC  =       213.81957038
  PAW double counting   =      4792.28954270    -4803.53177193
  entropy T*S    EENTRO =         0.00000000
  eigenvalues    EBANDS =      -778.90184317
  atomic energy  EATOM  =      2425.98333211
  Solvation  Ediel_sol  =         0.00000000
  ---------------------------------------------------
  free energy    TOTEN  =      -129.36974438 eV

  energy without entropy =     -129.36974438  energy(sigma->0) =     -129.36974438


--------------------------------------------------------------------------------------------------------




----------------------------------------- Iteration    1(  11)  ---------------------------------------


    POTLOK:  cpu time   18.3592: real time   18.3442
    SETDIJ:  cpu time    0.0280: real time    0.0282
     EDDAV:  cpu time  259.7545: real time  259.5393
       DOS:  cpu time    0.0000: real time    0.0005
    CHARGE:  cpu time   16.3685: real time   16.3551
    MIXING:  cpu time    0.8029: real time    0.8023
    --------------------------------------------
      LOOP:  cpu time  295.3161: real time  295.0729

 eigenvalue-minimisations  :   408
 total energy-change (2. order) : 0.5226069E-02  (-0.7917485E-03)
 number of electron      57.9999957 magnetization 
 augmentation part        2.5865423 magnetization 

 Broyden mixing:
  rms(total) = 0.16238E-01    rms(broyden)= 0.16233E-01
  rms(prec ) = 0.25004E-01
  weight for this iteration     100.00

 eigenvalues of (default mixing * dielectric matrix)
  average eigenvalue GAMMA=   1.5505
  2.4807  2.4807  0.9539  0.9539  1.2170  1.2170

 Free energy of the ion-electron system (eV)
  ---------------------------------------------------
  alpha Z        PSCENC =         0.51957394
  Ewald energy   TEWEN  =      6128.16915496
  -Hartree energ DENC   =     -8113.62244641
  -exchange      EXHF   =         0.00000000
  -V(xc)+E(xc)   XCENC  =       213.92595737
  PAW double counting   =      4795.91978795    -4807.16090893
  entropy T*S    EENTRO =         0.00000000
  eigenvalues    EBANDS =      -773.09896929
  atomic energy  EATOM  =      2425.98333211
  Solvation  Ediel_sol  =         0.00000000
  ---------------------------------------------------
  free energy    TOTEN  =      -129.36451831 eV

  energy without entropy =     -129.36451831  energy(sigma->0) =     -129.36451831


--------------------------------------------------------------------------------------------------------




----------------------------------------- Iteration    1(  12)  ---------------------------------------


    POTLOK:  cpu time   18.3262: real time   18.3118
    SETDIJ:  cpu time    0.0280: real time    0.0283
     EDDAV:  cpu time  260.4984: real time  260.2827
       DOS:  cpu time    0.0000: real time    0.0005
    CHARGE:  cpu time   16.5425: real time   16.5292
    MIXING:  cpu time    0.8589: real time    0.8572
    --------------------------------------------
      LOOP:  cpu time  296.2570: real time  296.0136

 eigenvalue-minimisations  :   408
 total energy-change (2. order) :-0.8821288E-03  (-0.6045561E-03)
 number of electron      57.9999957 magnetization 
 augmentation part        2.5857791 magnetization 

 Broyden mixing:
  rms(total) = 0.98354E-02    rms(broyden)= 0.98302E-02
  rms(prec ) = 0.15898E-01
  weight for this iteration     100.00

 eigenvalues of (default mixing * dielectric matrix)
  average eigenvalue GAMMA=   1.6234
  2.8816  2.6122  1.4871  1.2111  1.2111  0.9804  0.9804

 Free energy of the ion-electron system (eV)
  ---------------------------------------------------
  alpha Z        PSCENC =         0.51957394
  Ewald energy   TEWEN  =      6128.16915496
  -Hartree energ DENC   =     -8120.49773550
  -exchange      EXHF   =         0.00000000
  -V(xc)+E(xc)   XCENC  =       214.01323445
  PAW double counting   =      4790.94361622    -4802.17441009
  entropy T*S    EENTRO =         0.00000000
  eigenvalues    EBANDS =      -766.32216653
  atomic energy  EATOM  =      2425.98333211
  Solvation  Ediel_sol  =         0.00000000
  ---------------------------------------------------
  free energy    TOTEN  =      -129.36540044 eV

  energy without entropy =     -129.36540044  energy(sigma->0) =     -129.36540044


--------------------------------------------------------------------------------------------------------




----------------------------------------- Iteration    1(  13)  ---------------------------------------


    POTLOK:  cpu time   18.3922: real time   18.3778
    SETDIJ:  cpu time    0.0280: real time    0.0282
     EDDAV:  cpu time  256.1071: real time  255.8940
       DOS:  cpu time    0.0000: real time    0.0005
    CHARGE:  cpu time   16.4575: real time   16.4448
    MIXING:  cpu time    0.8959: real time    0.8943
    --------------------------------------------
      LOOP:  cpu time  291.8826: real time  291.6431

 eigenvalue-minimisations  :   400
 total energy-change (2. order) :-0.6636299E-02  (-0.4673370E-03)
 number of electron      57.9999957 magnetization 
 augmentation part        2.5846032 magnetization 

 Broyden mixing:
  rms(total) = 0.56741E-02    rms(broyden)= 0.56689E-02
  rms(prec ) = 0.92121E-02
  weight for this iteration     100.00

 eigenvalues of (default mixing * dielectric matrix)
  average eigenvalue GAMMA=   1.7219
  4.1418  2.4981  1.6976  1.3765  1.0309  1.0309  0.9997  0.9997

 Free energy of the ion-electron system (eV)
  ---------------------------------------------------
  alpha Z        PSCENC =         0.51957394
  Ewald energy   TEWEN  =      6128.16915496
  -Hartree energ DENC   =     -8126.48163407
  -exchange      EXHF   =         0.00000000
  -V(xc)+E(xc)   XCENC  =       214.08492499
  PAW double counting   =      4785.85116740    -4797.08177065
  entropy T*S    EENTRO =         0.00000000
  eigenvalues    EBANDS =      -760.41678541
  atomic energy  EATOM  =      2425.98333211
  Solvation  Ediel_sol  =         0.00000000
  ---------------------------------------------------
  free energy    TOTEN  =      -129.37203674 eV

  energy without entropy =     -129.37203674  energy(sigma->0) =     -129.37203674


--------------------------------------------------------------------------------------------------------




----------------------------------------- Iteration    1(  14)  ---------------------------------------


    POTLOK:  cpu time   18.4112: real time   18.3964
    SETDIJ:  cpu time    0.0280: real time    0.0283
     EDDAV:  cpu time  256.5300: real time  256.3166
       DOS:  cpu time    0.0010: real time    0.0005
    CHARGE:  cpu time   16.4555: real time   16.4421
    MIXING:  cpu time    0.9669: real time    0.9662
    --------------------------------------------
      LOOP:  cpu time  292.3936: real time  292.1533

 eigenvalue-minimisations  :   400
 total energy-change (2. order) :-0.6507624E-02  (-0.1761486E-03)
 number of electron      57.9999957 magnetization 
 augmentation part        2.5839462 magnetization 

 Broyden mixing:
  rms(total) = 0.38011E-02    rms(broyden)= 0.37974E-02
  rms(prec ) = 0.57718E-02
  weight for this iteration     100.00

 eigenvalues of (default mixing * dielectric matrix)
  average eigenvalue GAMMA=   1.8042
  4.9600  2.4128  2.0909  1.2326  1.2326  1.2361  1.1139  0.9794  0.9794

 Free energy of the ion-electron system (eV)
  ---------------------------------------------------
  alpha Z        PSCENC =         0.51957394
  Ewald energy   TEWEN  =      6128.16915496
  -Hartree energ DENC   =     -8129.80354278
  -exchange      EXHF   =         0.00000000
  -V(xc)+E(xc)   XCENC  =       214.10515541
  PAW double counting   =      4779.81095531    -4791.03914094
  entropy T*S    EENTRO =         0.00000000
  eigenvalues    EBANDS =      -757.12403237
  atomic energy  EATOM  =      2425.98333211
  Solvation  Ediel_sol  =         0.00000000
  ---------------------------------------------------
  free energy    TOTEN  =      -129.37854436 eV

  energy without entropy =     -129.37854436  energy(sigma->0) =     -129.37854436


--------------------------------------------------------------------------------------------------------




----------------------------------------- Iteration    1(  15)  ---------------------------------------


    POTLOK:  cpu time   18.4472: real time   18.4325
    SETDIJ:  cpu time    0.0280: real time    0.0283
     EDDAV:  cpu time  254.2254: real time  254.0121
       DOS:  cpu time    0.0000: real time    0.0005
    CHARGE:  cpu time   16.4135: real time   16.4006
    MIXING:  cpu time    1.0098: real time    1.0090
    --------------------------------------------
      LOOP:  cpu time  290.1239: real time  289.8862

 eigenvalue-minimisations  :   394
 total energy-change (2. order) :-0.7202684E-02  (-0.6965673E-04)
 number of electron      57.9999957 magnetization 
 augmentation part        2.5836647 magnetization 

 Broyden mixing:
  rms(total) = 0.24515E-02    rms(broyden)= 0.24501E-02
  rms(prec ) = 0.36510E-02
  weight for this iteration     100.00

 eigenvalues of (default mixing * dielectric matrix)
  average eigenvalue GAMMA=   1.9115
  5.6637  2.8314  2.4042  1.6442  1.4393  1.0430  1.0430  0.9883  1.0289  1.0289

 Free energy of the ion-electron system (eV)
  ---------------------------------------------------
  alpha Z        PSCENC =         0.51957394
  Ewald energy   TEWEN  =      6128.16915496
  -Hartree energ DENC   =     -8131.34889386
  -exchange      EXHF   =         0.00000000
  -V(xc)+E(xc)   XCENC  =       214.10536298
  PAW double counting   =      4779.53623667    -4790.76301701
  entropy T*S    EENTRO =         0.00000000
  eigenvalues    EBANDS =      -755.58749683
  atomic energy  EATOM  =      2425.98333211
  Solvation  Ediel_sol  =         0.00000000
  ---------------------------------------------------
  free energy    TOTEN  =      -129.38574705 eV

  energy without entropy =     -129.38574705  energy(sigma->0) =     -129.38574705


--------------------------------------------------------------------------------------------------------




----------------------------------------- Iteration    1(  16)  ---------------------------------------


    POTLOK:  cpu time   18.5792: real time   18.5631
    SETDIJ:  cpu time    0.0280: real time    0.0282
     EDDAV:  cpu time  223.1621: real time  222.9775
       DOS:  cpu time    0.0000: real time    0.0005
    CHARGE:  cpu time   16.4145: real time   16.4002
    MIXING:  cpu time    1.0768: real time    1.0764
    --------------------------------------------
      LOOP:  cpu time  259.2626: real time  259.0489

 eigenvalue-minimisations  :   334
 total energy-change (2. order) :-0.6275178E-02  (-0.5164971E-04)
 number of electron      57.9999957 magnetization 
 augmentation part        2.5838279 magnetization 

 Broyden mixing:
  rms(total) = 0.13971E-02    rms(broyden)= 0.13964E-02
  rms(prec ) = 0.20557E-02
  weight for this iteration     100.00

 eigenvalues of (default mixing * dielectric matrix)
  average eigenvalue GAMMA=   1.9462
  6.2948  3.1642  2.3027  1.8997  1.3145  1.3145  1.0349  1.0349  1.0032  1.0226
  1.0226

 Free energy of the ion-electron system (eV)
  ---------------------------------------------------
  alpha Z        PSCENC =         0.51957394
  Ewald energy   TEWEN  =      6128.16915496
  -Hartree energ DENC   =     -8132.09999818
  -exchange      EXHF   =         0.00000000
  -V(xc)+E(xc)   XCENC  =       214.09540733
  PAW double counting   =      4779.43095758    -4790.65696616
  entropy T*S    EENTRO =         0.00000000
  eigenvalues    EBANDS =      -754.83348380
  atomic energy  EATOM  =      2425.98333211
  Solvation  Ediel_sol  =         0.00000000
  ---------------------------------------------------
  free energy    TOTEN  =      -129.39202223 eV

  energy without entropy =     -129.39202223  energy(sigma->0) =     -129.39202223


--------------------------------------------------------------------------------------------------------




----------------------------------------- Iteration    1(  17)  ---------------------------------------


    POTLOK:  cpu time   18.5482: real time   18.5329
    SETDIJ:  cpu time    0.0280: real time    0.0283
     EDDAV:  cpu time  224.7958: real time  224.6091
       DOS:  cpu time    0.0000: real time    0.0005
    CHARGE:  cpu time   16.4195: real time   16.4055
    MIXING:  cpu time    1.1168: real time    1.1166
    --------------------------------------------
      LOOP:  cpu time  260.9093: real time  260.6962

 eigenvalue-minimisations  :   336
 total energy-change (2. order) :-0.2674997E-02  (-0.1297596E-04)
 number of electron      57.9999957 magnetization 
 augmentation part        2.5837068 magnetization 

 Broyden mixing:
  rms(total) = 0.88826E-03    rms(broyden)= 0.88784E-03
  rms(prec ) = 0.13179E-02
  weight for this iteration     100.00

 eigenvalues of (default mixing * dielectric matrix)
  average eigenvalue GAMMA=   2.0329
  7.0831  3.6040  2.3044  2.3044  1.5197  1.5197  1.0559  1.0559  1.0267  1.0267
  0.9471  0.9471

 Free energy of the ion-electron system (eV)
  ---------------------------------------------------
  alpha Z        PSCENC =         0.51957394
  Ewald energy   TEWEN  =      6128.16915496
  -Hartree energ DENC   =     -8132.40021276
  -exchange      EXHF   =         0.00000000
  -V(xc)+E(xc)   XCENC  =       214.09128436
  PAW double counting   =      4779.25508022    -4790.48110660
  entropy T*S    EENTRO =         0.00000000
  eigenvalues    EBANDS =      -754.53180345
  atomic energy  EATOM  =      2425.98333211
  Solvation  Ediel_sol  =         0.00000000
  ---------------------------------------------------
  free energy    TOTEN  =      -129.39469722 eV

  energy without entropy =     -129.39469722  energy(sigma->0) =     -129.39469722


--------------------------------------------------------------------------------------------------------




----------------------------------------- Iteration    1(  18)  ---------------------------------------


    POTLOK:  cpu time   18.5172: real time   18.5013
    SETDIJ:  cpu time    0.0280: real time    0.0282
     EDDAV:  cpu time  190.2211: real time  190.0626
       DOS:  cpu time    0.0000: real time    0.0005
    CHARGE:  cpu time   16.4485: real time   16.4359
    MIXING:  cpu time    1.2008: real time    1.1987
    --------------------------------------------
      LOOP:  cpu time  226.4166: real time  226.2300

 eigenvalue-minimisations  :   268
 total energy-change (2. order) :-0.1927719E-02  (-0.1329383E-04)
 number of electron      57.9999957 magnetization 
 augmentation part        2.5836615 magnetization 

 Broyden mixing:
  rms(total) = 0.55947E-03    rms(broyden)= 0.55928E-03
  rms(prec ) = 0.79035E-03
  weight for this iteration     100.00

 eigenvalues of (default mixing * dielectric matrix)
  average eigenvalue GAMMA=   2.0698
  7.5423  4.1706  2.4612  2.2613  1.7151  1.3298  1.3298  1.0643  1.0643  0.9778
  0.9778  1.0068  1.0068

 Free energy of the ion-electron system (eV)
  ---------------------------------------------------
  alpha Z        PSCENC =         0.51957394
  Ewald energy   TEWEN  =      6128.16915496
  -Hartree energ DENC   =     -8132.59333311
  -exchange      EXHF   =         0.00000000
  -V(xc)+E(xc)   XCENC  =       214.08837406
  PAW double counting   =      4779.61202639    -4790.83792423
  entropy T*S    EENTRO =         0.00000000
  eigenvalues    EBANDS =      -754.33782906
  atomic energy  EATOM  =      2425.98333211
  Solvation  Ediel_sol  =         0.00000000
  ---------------------------------------------------
  free energy    TOTEN  =      -129.39662494 eV

  energy without entropy =     -129.39662494  energy(sigma->0) =     -129.39662494


--------------------------------------------------------------------------------------------------------




----------------------------------------- Iteration    1(  19)  ---------------------------------------


    POTLOK:  cpu time   18.3752: real time   18.3603
    SETDIJ:  cpu time    0.0280: real time    0.0284
     EDDAV:  cpu time  208.5043: real time  208.3302
       DOS:  cpu time    0.0000: real time    0.0005
    CHARGE:  cpu time   16.4235: real time   16.4095
    MIXING:  cpu time    1.2598: real time    1.2593
    --------------------------------------------
      LOOP:  cpu time  244.5918: real time  244.3909

 eigenvalue-minimisations  :   304
 total energy-change (2. order) :-0.8518330E-03  (-0.5044665E-05)
 number of electron      57.9999957 magnetization 
 augmentation part        2.5836369 magnetization 

 Broyden mixing:
  rms(total) = 0.34199E-03    rms(broyden)= 0.34182E-03
  rms(prec ) = 0.48768E-03
  weight for this iteration     100.00

 eigenvalues of (default mixing * dielectric matrix)
  average eigenvalue GAMMA=   2.1397
  8.1260  4.7093  2.6072  2.6072  1.6183  1.6183  1.4888  1.0812  1.0812  1.0398
  1.0398  0.9421  0.9981  0.9981

 Free energy of the ion-electron system (eV)
  ---------------------------------------------------
  alpha Z        PSCENC =         0.51957394
  Ewald energy   TEWEN  =      6128.16915496
  -Hartree energ DENC   =     -8132.67136565
  -exchange      EXHF   =         0.00000000
  -V(xc)+E(xc)   XCENC  =       214.08788886
  PAW double counting   =      4779.93721609    -4791.16315641
  entropy T*S    EENTRO =         0.00000000
  eigenvalues    EBANDS =      -754.26012068
  atomic energy  EATOM  =      2425.98333211
  Solvation  Ediel_sol  =         0.00000000
  ---------------------------------------------------
  free energy    TOTEN  =      -129.39747677 eV

  energy without entropy =     -129.39747677  energy(sigma->0) =     -129.39747677


--------------------------------------------------------------------------------------------------------




----------------------------------------- Iteration    1(  20)  ---------------------------------------


    POTLOK:  cpu time   18.3372: real time   18.3217
    SETDIJ:  cpu time    0.0280: real time    0.0283
     EDDAV:  cpu time  198.4098: real time  198.2446
       DOS:  cpu time    0.0010: real time    0.0005
    CHARGE:  cpu time   16.4465: real time   16.4334
    MIXING:  cpu time    1.3428: real time    1.3419
    --------------------------------------------
      LOOP:  cpu time  234.5663: real time  234.3768

 eigenvalue-minimisations  :   284
 total energy-change (2. order) :-0.5277170E-03  (-0.2373183E-05)
 number of electron      57.9999957 magnetization 
 augmentation part        2.5836468 magnetization 

 Broyden mixing:
  rms(total) = 0.23723E-03    rms(broyden)= 0.23714E-03
  rms(prec ) = 0.30849E-03
  weight for this iteration     100.00

 eigenvalues of (default mixing * dielectric matrix)
  average eigenvalue GAMMA=   2.1381
  8.2496  5.1714  2.8492  2.4484  2.0400  1.5527  1.2457  1.2457  1.0389  1.0389
  1.1661  0.9626  1.0285  1.0173  1.0173

 Free energy of the ion-electron system (eV)
  ---------------------------------------------------
  alpha Z        PSCENC =         0.51957394
  Ewald energy   TEWEN  =      6128.16915496
  -Hartree energ DENC   =     -8132.68717102
  -exchange      EXHF   =         0.00000000
  -V(xc)+E(xc)   XCENC  =       214.08616257
  PAW double counting   =      4779.52183351    -4790.74763148
  entropy T*S    EENTRO =         0.00000000
  eigenvalues    EBANDS =      -754.24325908
  atomic energy  EATOM  =      2425.98333211
  Solvation  Ediel_sol  =         0.00000000
  ---------------------------------------------------
  free energy    TOTEN  =      -129.39800449 eV

  energy without entropy =     -129.39800449  energy(sigma->0) =     -129.39800449


--------------------------------------------------------------------------------------------------------




----------------------------------------- Iteration    1(  21)  ---------------------------------------


    POTLOK:  cpu time   18.3362: real time   18.3214
    SETDIJ:  cpu time    0.0280: real time    0.0282
     EDDAV:  cpu time  234.0934: real time  233.8998
       DOS:  cpu time    0.0000: real time    0.0005
    CHARGE:  cpu time   16.4485: real time   16.4346
    MIXING:  cpu time    1.3768: real time    1.3768
    --------------------------------------------
      LOOP:  cpu time  270.2859: real time  270.0646

 eigenvalue-minimisations  :   352
 total energy-change (2. order) :-0.1931102E-03  (-0.8834656E-06)
 number of electron      57.9999957 magnetization 
 augmentation part        2.5836189 magnetization 

 Broyden mixing:
  rms(total) = 0.13877E-03    rms(broyden)= 0.13869E-03
  rms(prec ) = 0.18888E-03
  weight for this iteration     100.00

 eigenvalues of (default mixing * dielectric matrix)
  average eigenvalue GAMMA=   2.1952
  8.4565  5.7069  3.2668  2.4681  2.4681  1.5753  1.5753  1.4309  1.1341  1.1341
  1.0319  1.0319  0.9722  0.9722  1.0242  0.8739

 Free energy of the ion-electron system (eV)
  ---------------------------------------------------
  alpha Z        PSCENC =         0.51957394
  Ewald energy   TEWEN  =      6128.16915496
  -Hartree energ DENC   =     -8132.70463005
  -exchange      EXHF   =         0.00000000
  -V(xc)+E(xc)   XCENC  =       214.08637615
  PAW double counting   =      4779.65952882    -4790.88541508
  entropy T*S    EENTRO =         0.00000000
  eigenvalues    EBANDS =      -754.22611845
  atomic energy  EATOM  =      2425.98333211
  Solvation  Ediel_sol  =         0.00000000
  ---------------------------------------------------
  free energy    TOTEN  =      -129.39819760 eV

  energy without entropy =     -129.39819760  energy(sigma->0) =     -129.39819760


--------------------------------------------------------------------------------------------------------




----------------------------------------- Iteration    1(  22)  ---------------------------------------


    POTLOK:  cpu time   18.4022: real time   18.3876
    SETDIJ:  cpu time    0.0280: real time    0.0283
     EDDAV:  cpu time  182.3313: real time  182.1805
       DOS:  cpu time    0.0000: real time    0.0005
    CHARGE:  cpu time   16.4925: real time   16.4788
    MIXING:  cpu time    1.5178: real time    1.5174
    --------------------------------------------
      LOOP:  cpu time  218.7747: real time  218.5967

 eigenvalue-minimisations  :   252
 total energy-change (2. order) :-0.1477516E-03  (-0.4482216E-06)
 number of electron      57.9999957 magnetization 
 augmentation part        2.5836186 magnetization 

 Broyden mixing:
  rms(total) = 0.12949E-03    rms(broyden)= 0.12944E-03
  rms(prec ) = 0.14884E-03
  weight for this iteration     100.00

 eigenvalues of (default mixing * dielectric matrix)
  average eigenvalue GAMMA=   2.2084
  8.5671  6.1114  3.6107  2.4597  2.4597  1.9358  1.6000  1.3420  1.3420  1.0434
  1.0434  1.0815  1.0815  0.9896  0.9896  0.9673  0.9184

 Free energy of the ion-electron system (eV)
  ---------------------------------------------------
  alpha Z        PSCENC =         0.51957394
  Ewald energy   TEWEN  =      6128.16915496
  -Hartree energ DENC   =     -8132.71407158
  -exchange      EXHF   =         0.00000000
  -V(xc)+E(xc)   XCENC  =       214.08600556
  PAW double counting   =      4779.57352406    -4790.79942842
  entropy T*S    EENTRO =         0.00000000
  eigenvalues    EBANDS =      -754.21643598
  atomic energy  EATOM  =      2425.98333211
  Solvation  Ediel_sol  =         0.00000000
  ---------------------------------------------------
  free energy    TOTEN  =      -129.39834535 eV

  energy without entropy =     -129.39834535  energy(sigma->0) =     -129.39834535


--------------------------------------------------------------------------------------------------------




----------------------------------------- Iteration    1(  23)  ---------------------------------------


    POTLOK:  cpu time   18.4312: real time   18.4168
    SETDIJ:  cpu time    0.0280: real time    0.0286
     EDDAV:  cpu time  233.6785: real time  233.4832
       DOS:  cpu time    0.0000: real time    0.0005
    --------------------------------------------
      LOOP:  cpu time  252.1397: real time  251.9323

 eigenvalue-minimisations  :   352
 total energy-change (2. order) :-0.5181197E-04  (-0.1324378E-06)
 number of electron      57.9999957 magnetization 
 augmentation part        2.5836186 magnetization 

 Free energy of the ion-electron system (eV)
  ---------------------------------------------------
  alpha Z        PSCENC =         0.51957394
  Ewald energy   TEWEN  =      6128.16915496
  -Hartree energ DENC   =     -8132.72086943
  -exchange      EXHF   =         0.00000000
  -V(xc)+E(xc)   XCENC  =       214.08582327
  PAW double counting   =      4779.56454004    -4790.79039907
  entropy T*S    EENTRO =         0.00000000
  eigenvalues    EBANDS =      -754.20955297
  atomic energy  EATOM  =      2425.98333211
  Solvation  Ediel_sol  =         0.00000000
  ---------------------------------------------------
  free energy    TOTEN  =      -129.39839716 eV

  energy without entropy =     -129.39839716  energy(sigma->0) =     -129.39839716


--------------------------------------------------------------------------------------------------------




 average (electrostatic) potential at core
  the test charge radii are     0.5201  0.6991  0.7089  0.7215
  (the norm of the test charge is              1.0000)
       1 -42.2914       2 -42.5233       3 -42.5354       4 -44.7345       5 -42.3407
       6 -41.8957       7 -41.7556       8 -41.8981       9 -43.5386      10 -41.7147
      11 -41.7107      12 -42.0595      13 -59.0468      14 -61.4318      15 -59.9676
      16 -58.5809      17 -60.7623      18 -59.1233      19 -74.7127      20 -73.9795
      21 -79.9298      22 -79.3103
 
 
 
 E-fermi :  -4.5051     XC(G=0):  -0.1530     alpha+bet : -0.0465


 k-point     1 :       0.2500    0.2500    0.2500
  band No.  band energies     occupation 
      1     -26.2013      2.00000
      2     -25.6012      2.00000
      3     -23.3653      2.00000
      4     -22.6510      2.00000
      5     -19.5442      2.00000
      6     -18.2360      2.00000
      7     -17.2830      2.00000
      8     -16.1242      2.00000
      9     -14.7086      2.00000
     10     -13.9875      2.00000
     11     -13.2505      2.00000
     12     -12.4939      2.00000
     13     -11.5588      2.00000
     14     -11.3112      2.00000
     15     -10.8736      2.00000
     16     -10.7649      2.00000
     17     -10.2846      2.00000
     18     -10.1194      2.00000
     19      -9.9576      2.00000
     20      -9.8849      2.00000
     21      -9.3925      2.00000
     22      -9.1487      2.00000
     23      -9.0010      2.00000
     24      -8.6294      2.00000
     25      -8.5283      2.00000
     26      -6.7619      2.00000
     27      -6.1611      2.00000
     28      -5.8479      2.00000
     29      -5.4323      2.00000
     30      -1.0941      0.00000
     31      -0.9553      0.00000
     32      -0.4384      0.00000
     33      -0.2883      0.00000
     34      -0.2154      0.00000
     35      -0.0460      0.00000
     36       0.0239      0.00000
     37       0.0911      0.00000
     38       0.1057      0.00000
     39       0.1137      0.00000
     40       0.1650      0.00000
     41       0.1740      0.00000

 k-point     2 :      -0.2500    0.2500    0.2500
  band No.  band energies     occupation 
      1     -26.2013      2.00000
      2     -25.6012      2.00000
      3     -23.3653      2.00000
      4     -22.6510      2.00000
      5     -19.5442      2.00000
      6     -18.2360      2.00000
      7     -17.2830      2.00000
      8     -16.1242      2.00000
      9     -14.7086      2.00000
     10     -13.9875      2.00000
     11     -13.2505      2.00000
     12     -12.4939      2.00000
     13     -11.5588      2.00000
     14     -11.3112      2.00000
     15     -10.8736      2.00000
     16     -10.7649      2.00000
     17     -10.2846      2.00000
     18     -10.1194      2.00000
     19      -9.9576      2.00000
     20      -9.8850      2.00000
     21      -9.3925      2.00000
     22      -9.1487      2.00000
     23      -9.0010      2.00000
     24      -8.6293      2.00000
     25      -8.5283      2.00000
     26      -6.7619      2.00000
     27      -6.1611      2.00000
     28      -5.8479      2.00000
     29      -5.4323      2.00000
     30      -1.0940      0.00000
     31      -0.9553      0.00000
     32      -0.4384      0.00000
     33      -0.2883      0.00000
     34      -0.2154      0.00000
     35      -0.0457      0.00000
     36       0.0230      0.00000
     37       0.0862      0.00000
     38       0.1098      0.00000
     39       0.1207      0.00000
     40       0.1561      0.00000
     41       0.1748      0.00000

 k-point     3 :       0.2500   -0.2500    0.2500
  band No.  band energies     occupation 
      1     -26.2013      2.00000
      2     -25.6012      2.00000
      3     -23.3653      2.00000
      4     -22.6510      2.00000
      5     -19.5442      2.00000
      6     -18.2360      2.00000
      7     -17.2830      2.00000
      8     -16.1242      2.00000
      9     -14.7086      2.00000
[...]
 augmentation part        2.5814527 magnetization 

 Free energy of the ion-electron system (eV)
  ---------------------------------------------------
  alpha Z        PSCENC =         0.51957394
  Ewald energy   TEWEN  =      6126.94910035
  -Hartree energ DENC   =     -8130.60090051
  -exchange      EXHF   =         0.00000000
  -V(xc)+E(xc)   XCENC  =       214.08299507
  PAW double counting   =      4777.24565400    -4788.46460180
  entropy T*S    EENTRO =         0.00000000
  eigenvalues    EBANDS =      -755.14409966
  atomic energy  EATOM  =      2425.98333211
  Solvation  Ediel_sol  =         0.00000000
  ---------------------------------------------------
  free energy    TOTEN  =      -129.42894649 eV

  energy without entropy =     -129.42894649  energy(sigma->0) =     -129.42894649


--------------------------------------------------------------------------------------------------------




 average (electrostatic) potential at core
  the test charge radii are     0.5201  0.6991  0.7089  0.7215
  (the norm of the test charge is              1.0000)
       1 -42.3174       2 -42.5429       3 -42.5697       4 -44.7794       5 -42.3662
       6 -41.9141       7 -41.7690       8 -41.9165       9 -43.4811      10 -41.7479
      11 -41.7472      12 -42.0696      13 -59.0813      14 -61.4756      15 -59.9816
      16 -58.5892      17 -60.7604      18 -59.1542      19 -74.7620      20 -73.9667
      21 -79.9592      22 -79.2833
 
 
 
 E-fermi :  -4.4873     XC(G=0):  -0.1335     alpha+bet : -0.0465


 k-point     1 :       0.2500    0.2500    0.2500
  band No.  band energies     occupation 
      1     -26.1871      2.00000
      2     -25.5281      2.00000
      3     -23.4304      2.00000
      4     -22.6809      2.00000
      5     -19.5852      2.00000
      6     -18.2555      2.00000
      7     -17.3539      2.00000
      8     -16.1604      2.00000
      9     -14.7104      2.00000
     10     -13.9760      2.00000
     11     -13.2673      2.00000
     12     -12.5465      2.00000
     13     -11.5721      2.00000
     14     -11.3235      2.00000
     15     -10.8744      2.00000
     16     -10.7969      2.00000
     17     -10.3222      2.00000
     18     -10.1294      2.00000
     19      -9.9708      2.00000
     20      -9.8879      2.00000
     21      -9.3972      2.00000
     22      -9.1375      2.00000
     23      -9.0109      2.00000
     24      -8.6797      2.00000
     25      -8.5275      2.00000
     26      -6.7941      2.00000
     27      -6.1948      2.00000
     28      -5.8502      2.00000
     29      -5.4213      2.00000
     30      -1.1543      0.00000
     31      -0.9694      0.00000
     32      -0.4505      0.00000
     33      -0.2974      0.00000
     34      -0.2187      0.00000
     35      -0.0511      0.00000
     36       0.0455      0.00000
     37       0.1129      0.00000
     38       0.1264      0.00000
     39       0.1355      0.00000
     40       0.1870      0.00000
     41       0.1963      0.00000

 k-point     2 :      -0.2500    0.2500    0.2500
  band No.  band energies     occupation 
      1     -26.1871      2.00000
      2     -25.5281      2.00000
      3     -23.4304      2.00000
      4     -22.6809      2.00000
      5     -19.5852      2.00000
      6     -18.2555      2.00000
      7     -17.3539      2.00000
      8     -16.1604      2.00000
      9     -14.7104      2.00000
     10     -13.9760      2.00000
     11     -13.2673      2.00000
     12     -12.5465      2.00000
     13     -11.5721      2.00000
     14     -11.3235      2.00000
     15     -10.8744      2.00000
     16     -10.7969      2.00000
     17     -10.3222      2.00000
     18     -10.1294      2.00000
     19      -9.9708      2.00000
     20      -9.8879      2.00000
     21      -9.3972      2.00000
     22      -9.1375      2.00000
     23      -9.0109      2.00000
     24      -8.6796      2.00000
     25      -8.5275      2.00000
     26      -6.7941      2.00000
     27      -6.1948      2.00000
     28      -5.8502      2.00000
     29      -5.4213      2.00000
     30      -1.1543      0.00000
     31      -0.9694      0.00000
     32      -0.4505      0.00000
     33      -0.2974      0.00000
     34      -0.2187      0.00000
     35      -0.0509      0.00000
     36       0.0450      0.00000
     37       0.1083      0.00000
     38       0.1305      0.00000
     39       0.1430      0.00000
     40       0.1766      0.00000
     41       0.1962      0.00000

 k-point     3 :       0.2500   -0.2500    0.2500
  band No.  band energies     occupation 
      1     -26.1871      2.00000
      2     -25.5281      2.00000
      3     -23.4304      2.00000
      4     -22.6809      2.00000
      5     -19.5852      2.00000
      6     -18.2555      2.00000
      7     -17.3539      2.00000
      8     -16.1604      2.00000
      9     -14.7104      2.00000
     10     -13.9760      2.00000
     11     -13.2673      2.00000
     12     -12.5465      2.00000
     13     -11.5721      2.00000
     14     -11.3235      2.00000
     15     -10.8744      2.00000
     16     -10.7969      2.00000
     17     -10.3222      2.00000
     18     -10.1294      2.00000
     19      -9.9708      2.00000
     20      -9.8880      2.00000
     21      -9.3972      2.00000
     22      -9.1375      2.00000
     23      -9.0109      2.00000
     24      -8.6797      2.00000
     25      -8.5275      2.00000
     26      -6.7941      2.00000
     27      -6.1948      2.00000
     28      -5.8502      2.00000
     29      -5.4213      2.00000
     30      -1.1543      0.00000
     31      -0.9694      0.00000
     32      -0.4505      0.00000
     33      -0.2973      0.00000
     34      -0.2187      0.00000
     35      -0.0512      0.00000
     36       0.0446      0.00000
     37       0.1124      0.00000
     38       0.1244      0.00000
     39       0.1457      0.00000
     40       0.1802      0.00000
     41       0.1961      0.00000

 k-point     4 :      -0.2500   -0.2500    0.2500
  band No.  band energies     occupation 
      1     -26.1871      2.00000
      2     -25.5281      2.00000
      3     -23.4304      2.00000
      4     -22.6809      2.00000
      5     -19.5852      2.00000
      6     -18.2555      2.00000
      7     -17.3539      2.00000
      8     -16.1604      2.00000
      9     -14.7104      2.00000
     10     -13.9760      2.00000
     11     -13.2673      2.00000
     12     -12.5465      2.00000
     13     -11.5721      2.00000
     14     -11.3235      2.00000
     15     -10.8744      2.00000
     16     -10.7969      2.00000
     17     -10.3222      2.00000
     18     -10.1294      2.00000
     19      -9.9708      2.00000
     20      -9.8879      2.00000
     21      -9.3972      2.00000
     22      -9.1375      2.00000
     23      -9.0109      2.00000
     24      -8.6796      2.00000
     25      -8.5275      2.00000
     26      -6.7941      2.00000
     27      -6.1948      2.00000
     28      -5.8502      2.00000
     29      -5.4213      2.00000
     30      -1.1543      0.00000
     31      -0.9694      0.00000
     32      -0.4505      0.00000
     33      -0.2974      0.00000
     34      -0.2187      0.00000
     35      -0.0511      0.00000
     36       0.0445      0.00000
     37       0.1158      0.00000
     38       0.1284      0.00000
     39       0.1354      0.00000
     40       0.1811      0.00000
     41       0.1938      0.00000


--------------------------------------------------------------------------------------------------------


 soft charge-density along one line, spin component           1
         0         1         2         3         4         5         6         7         8         9
 total charge-density along one line
 
 pseudopotential strength for first ion, spin component:           1
 -2.352  -4.055   0.002   0.000  -0.001
 -4.055  -6.905   0.005   0.001  -0.002
  0.002   0.005  -0.332   0.001  -0.002
  0.000   0.001   0.001  -0.336   0.000
 -0.001  -0.002  -0.002   0.000  -0.335
 total augmentation occupancy for first ion, spin component:           1
  3.530  -0.636  -0.398  -0.058   0.183
 -0.636   0.129   0.073   0.011  -0.033
 -0.398   0.073   0.047   0.006  -0.018
 -0.058   0.011   0.006   0.010  -0.002
  0.183  -0.033  -0.018  -0.002   0.016


------------------------ aborting loop because EDIFF is reached ----------------------------------------


    CHARGE:  cpu time   16.3965: real time   16.3831
    FORLOC:  cpu time    5.7971: real time    5.7916
    FORNL :  cpu time   60.3048: real time   60.2546
    STRESS:  cpu time  183.1422: real time  182.9890
    FORCOR:  cpu time   23.7494: real time   23.7306
    FORHAR:  cpu time   10.5454: real time   10.5356
    MIXING:  cpu time    0.7589: real time    0.7581
    OFIELD:  cpu time    0.0000: real time    0.0000

  FORCE on cell =-STRESS in cart. coord.  units (eV):
  Direction    XX          YY          ZZ          XY          YZ          ZX
  --------------------------------------------------------------------------------------
  Alpha Z     0.51957     0.51957     0.51957
  Ewald    2737.21877  2019.77802  1369.95096  -137.46357   183.45793   854.14005
  Hartree  3331.07738  2539.44094  2260.08213  -115.78344   212.22559   680.34523
  E(xc)    -230.22437  -229.41339  -231.45636    -0.19206    -0.39545     0.81929
  Local   -6680.56921 -5136.27887 -4264.01700   249.63998  -414.58986 -1518.22759
  n-local  -132.27188  -135.79122  -131.78687     0.66619     1.46136    -1.05577
  augment    14.77389    14.00176    14.65033    -0.15546     0.85798    -0.18165
  Kinetic   955.67550   924.30915   978.17916     3.20332    16.91736   -15.71384
  Fock        0.00000     0.00000     0.00000     0.00000     0.00000     0.00000
  -------------------------------------------------------------------------------------
  Total      -3.80036    -3.43404    -3.87809    -0.08503    -0.06509     0.12573
  in kB      -0.22551    -0.20378    -0.23013    -0.00505    -0.00386     0.00746
  external pressure =       -0.22 kB  Pullay stress =        0.00 kB


 VOLUME and BASIS-vectors are now :
 -----------------------------------------------------------------------------
  energy-cutoff  :      400.00
  volume of cell :    27000.00
      direct lattice vectors                 reciprocal lattice vectors
    30.000000000  0.000000000  0.000000000     0.033333333  0.000000000  0.000000000
     0.000000000 30.000000000  0.000000000     0.000000000  0.033333333  0.000000000
     0.000000000  0.000000000 30.000000000     0.000000000  0.000000000  0.033333333

  length of vectors
    30.000000000 30.000000000 30.000000000     0.033333333  0.033333333  0.033333333


 FORCES acting on ions
    electron-ion (+dipol)            ewald-force                    non-local-force                 convergence-correction
 -----------------------------------------------------------------------------------------------
   0.644E+02 -.574E+02 -.848E+01   -.667E+02 0.625E+02 0.922E+01   0.236E+01 -.510E+01 -.734E+00   -.777E-07 -.688E-05 0.259E-05
   0.576E+02 0.253E+02 0.592E+02   -.595E+02 -.274E+02 -.640E+02   0.190E+01 0.206E+01 0.471E+01   0.307E-06 0.397E-05 0.145E-04
   0.573E+02 0.391E+02 -.486E+02   -.590E+02 -.424E+02 0.527E+02   0.165E+01 0.328E+01 -.407E+01   0.562E-06 0.537E-05 0.243E-05
   0.589E+02 0.984E+02 -.231E+02   -.627E+02 -.104E+03 0.250E+02   0.383E+01 0.611E+01 -.186E+01   -.173E-04 0.756E-05 0.646E-05
   -.160E+02 0.102E+03 -.268E+00   0.172E+02 -.108E+03 0.119E+01   -.114E+01 0.558E+01 -.924E+00   -.184E-04 0.264E-06 0.644E-06
   -.818E+02 0.153E+02 0.367E+02   0.873E+02 -.160E+02 -.367E+02   -.549E+01 0.649E+00 0.400E-02   -.688E-05 0.469E-05 -.109E-05
   -.139E+02 -.567E+02 0.619E+02   0.127E+02 0.621E+02 -.632E+02   0.115E+01 -.538E+01 0.127E+01   -.116E-04 0.568E-06 0.431E-05
   0.678E+01 0.460E+02 0.795E+02   -.885E+01 -.491E+02 -.835E+02   0.206E+01 0.315E+01 0.399E+01   -.605E-05 0.109E-05 0.110E-05
   0.255E+02 -.751E+02 0.281E+02   -.303E+02 0.784E+02 -.325E+02   0.479E+01 -.323E+01 0.437E+01   -.121E-04 0.130E-06 0.121E-04
   0.455E+01 -.863E+01 -.869E+02   -.614E+01 0.710E+01 0.920E+02   0.158E+01 0.153E+01 -.512E+01   -.500E-05 0.657E-05 -.412E-05
   -.847E+02 -.173E+02 -.179E+02   0.902E+02 0.163E+02 0.176E+02   -.552E+01 0.101E+01 0.297E+00   -.121E-04 0.109E-04 0.324E-05
   -.578E+01 -.864E+02 -.133E+02   0.486E+01 0.920E+02 0.127E+02   0.916E+00 -.554E+01 0.640E+00   -.393E-05 -.772E-05 0.572E-05
   0.229E+03 0.744E+01 0.367E+01   -.230E+03 -.653E+01 -.346E+01   0.819E+00 -.913E+00 -.218E+00   -.169E-04 0.785E-05 0.185E-04
   0.186E+03 0.154E+02 0.162E+02   -.191E+03 -.153E+02 -.159E+02   0.500E+01 -.766E-01 -.305E+00   -.531E-04 0.122E-04 0.249E-04
   -.523E+02 0.159E+03 0.527E+02   0.580E+02 -.160E+03 -.528E+02   -.569E+01 0.930E+00 0.142E+00   -.687E-04 0.449E-04 0.171E-04
   -.108E+03 0.355E+02 0.213E+03   0.108E+03 -.348E+02 -.214E+03   -.192E+00 -.712E+00 0.986E+00   -.387E-04 0.108E-04 0.116E-04
   -.316E+02 0.439E+02 -.104E+02   0.293E+02 -.459E+02 0.745E+01   0.232E+01 0.200E+01 0.293E+01   -.110E-03 0.101E-03 -.222E-04
   -.108E+03 -.162E+03 -.151E+03   0.111E+03 0.164E+03 0.155E+03   -.289E+01 -.219E+01 -.395E+01   -.284E-04 0.178E-04 0.482E-05
   0.126E+03 0.214E+03 -.871E+01   -.123E+03 -.214E+03 0.788E+01   -.262E+01 0.178E+00 0.831E+00   -.956E-04 0.585E-04 0.454E-04
   -.405E+02 -.200E+03 -.403E+02   0.404E+02 0.204E+03 0.383E+02   0.115E+00 -.340E+01 0.205E+01   -.803E-04 0.464E-04 0.242E-04
   0.467E+02 -.385E+03 0.137E+03   -.282E+02 0.431E+03 -.148E+03   -.185E+02 -.468E+02 0.109E+02   -.789E-04 -.273E-04 0.580E-04
   -.276E+03 0.264E+03 -.264E+03   0.307E+03 -.293E+03 0.295E+03   -.309E+02 0.297E+02 -.312E+02   -.116E-03 0.138E-03 -.507E-04
 -----------------------------------------------------------------------------------------------
   0.444E+02 0.172E+02 0.153E+02   0.114E-12 0.000E+00 0.000E+00   -.444E+02 -.172E+02 -.153E+02   -.779E-03 0.437E-03 0.180E-03
 
 
 POSITION                                       TOTAL-FORCE (eV/Angst)
 -----------------------------------------------------------------------------------
     11.37740     15.98094     14.70403         0.006837      0.000930      0.001072
     11.46437     14.57606     13.61105        -0.001192      0.015116     -0.008149
     11.52381     14.32454     15.37140        -0.002316     -0.002533     -0.006625
     13.53011     13.18865     14.95658         0.000685      0.004660      0.007808
     15.70025     12.78854     14.78870        -0.000839      0.001001      0.001510
     17.18151     14.11469     13.26607        -0.005654     -0.014793     -0.007960
     15.86962     15.29666     13.01226         0.005700      0.000601      0.002412
     15.67046     13.61003     12.46527        -0.011902     -0.000083      0.001134
     15.47731     16.33515     15.27716        -0.016494     -0.009647      0.017584
     16.54216     16.31503     17.93193        -0.007735      0.004383     -0.003485
     17.94752     16.42278     16.85339        -0.005477      0.009658      0.006826
     16.67590     17.68362     16.78309        -0.003136      0.001822     -0.000678
     11.83550     14.99664     14.55824         0.003009      0.000146     -0.003192
     13.34227     15.16036     14.49457         0.004164      0.000550     -0.000507
     15.51862     13.85909     14.62275         0.002345      0.000424      0.000828
     16.09042     14.25003     13.25487        -0.003420     -0.002264     -0.001862
     16.29197     14.53096     15.78539         0.010071     -0.004388     -0.000391
     16.86581     16.61242     16.92173        -0.004624      0.002256     -0.001309
     14.05648     14.01938     14.70307         0.003198      0.001819      0.005815
     16.15593     15.87234     15.89510         0.004596     -0.004300     -0.001554
     13.87339     16.25966     14.25426         0.005227     -0.001841     -0.000891
     17.02232     13.85242     16.52190         0.016956     -0.003518     -0.008387
 -----------------------------------------------------------------------------------
    total drift:                               -0.008469     -0.010683     -0.002606


--------------------------------------------------------------------------------------------------------



  FREE ENERGIE OF THE ION-ELECTRON SYSTEM (eV)
  ---------------------------------------------------
  free  energy   TOTEN  =      -129.42894649 eV

  energy  without entropy=     -129.42894649  energy(sigma->0) =     -129.42894649
 
 d Force = 0.1550342E-04[ 0.153E-04, 0.157E-04]  d Energy = 0.1596631E-04-0.463E-06
 d Force = 0.4403933E-02[ 0.441E-02, 0.440E-02]  d Ewald  = 0.4403933E-02-0.546E-10


--------------------------------------------------------------------------------------------------------


    POTLOK:  cpu time   21.7457: real time   21.7279


--------------------------------------------------------------------------------------------------------


 NEB: the previous image is higher in energy: T
 NEB: the next image is higher in energy    : F
 NEB: only prev energy greater

 NEB: Tangent
 ----------------------------------------------
      0.02875      0.00086     -0.08053
      0.04410     -0.01273     -0.06569
      0.03738      0.00831     -0.06319
      0.04513     -0.00141     -0.09363
      0.05298      0.01478     -0.16409
      0.04897      0.13408     -0.06589
      0.05062      0.15814      0.01953
      0.04853      0.19672     -0.11028
      0.04275     -0.00152      0.03272
     -0.47592      0.02337      0.20916
     -0.04714     -0.36820      0.50634
      0.12053     -0.04885     -0.00517
      0.03554      0.00243     -0.06899
      0.03479      0.00978     -0.05949
      0.03977      0.02759     -0.08852
      0.04935      0.13702     -0.05738
     -0.02062     -0.04223      0.00056
     -0.10564     -0.11358      0.19730
      0.03682      0.00331     -0.09588
      0.00987     -0.04045      0.04020
      0.03464      0.01820     -0.02385
     -0.10833     -0.09004      0.05257

 NEB: forces: par spring, perp REAL, dneb     0.004805    0.051322    0.000000
 NEB: distance to prev, next image, angle between     1.133716    1.134677  128.963517
 NEB: projections on to tangent (spring, REAL)     0.004805   -0.001611

 stress matrix after NEB project (eV)
     -3.80036     -0.08503      0.12573
     -0.08503     -3.43404     -0.06509
      0.12573     -0.06509     -3.87809
  FORCES: max atom, RMS     0.025941    0.010990
  FORCE total and by dimension    0.051547    0.017794
  Stress total and by dimension    6.428797    3.878085
 OPT: skip step - force has converged


--------------------------------------------------------------------------------------------------------


  
 reached required accuracy - stopping structural energy minimisation
     LOOP+:  cpu time 1817.2127: real time 1815.7287
    4ORBIT:  cpu time    0.0000: real time    0.0000

 total amount of memory used by VASP on root node  4333710. kBytes
========================================================================

   base      :      30000. kBytes
   nonlr-proj:       2405. kBytes
   fftplans  :     924480. kBytes
   grid      :    2089440. kBytes
   one-center:         67. kBytes
   wavefun   :    1287318. kBytes
 
  
  
 General timing and accounting informations for this job:
 ========================================================
  
                  Total CPU time used (sec):   123685.977
                            User time (sec):   122914.633
                          System time (sec):      771.345
                         Elapsed time (sec):   123693.197
  
                   Maximum memory used (kb):     5901228.
                   Average memory used (kb):           0.
  
                          Minor page faults:    182232522
                          Major page faults:            7
                 Voluntary context switches:         8152
