unknown system                          
           1
    30.000000    0.000000    0.000000
     0.000000   30.000000    0.000000
     0.000000    0.000000   30.000000
   H    C    N    O 
  12   6   2   2
Direct configuration=     1
   0.37918850  0.53263677  0.49016797
   0.38080328  0.48456946  0.45466793
   0.38390620  0.47772989  0.51337265
   0.45075961  0.43848064  0.49714622
   0.52408911  0.42696187  0.49372217
   0.57335509  0.47203749  0.44337021
   0.52854002  0.50990548  0.43330523
   0.52396705  0.45369572  0.41545795
   0.51728639  0.54686540  0.50764435
   0.55219515  0.54198945  0.59730543
   0.59859265  0.54542868  0.56111940
   0.55801807  0.58940975  0.56144167
   0.39380477  0.49945433  0.48557996
   0.44397272  0.50448327  0.48259493
   0.51698170  0.46232953  0.48738800
   0.53681111  0.47539294  0.44205871
   0.54184532  0.48559503  0.52610224
   0.56290541  0.55329912  0.56406689
   0.46805267  0.46660045  0.48949276
   0.53827503  0.53045427  0.52918077
   0.46162212  0.54107569  0.47414552
   0.56546178  0.46325858  0.55175411
Direct configuration=     2
   0.37918639  0.53263186  0.49016482
   0.38080100  0.48457482  0.45466660
   0.38390357  0.47772921  0.51337532
   0.45076296  0.43848381  0.49714869
   0.52408359  0.42696136  0.49371911
   0.57334808  0.47203490  0.44336904
   0.52854162  0.50990743  0.43330826
   0.52396757  0.45369039  0.41546006
   0.51728332  0.54685777  0.50765348
   0.55219463  0.54199145  0.59730471
   0.59859567  0.54543523  0.56112029
   0.55801357  0.58940999  0.56143532
   0.39380810  0.49945021  0.48558129
   0.44398254  0.50449336  0.48259243
   0.51698369  0.46233227  0.48738637
   0.53680760  0.47539317  0.44205673
   0.54185104  0.48558976  0.52610860
   0.56290637  0.55329995  0.56406601
   0.46805590  0.46659977  0.48948955
   0.53827818  0.53045381  0.52918300
   0.46162214  0.54107317  0.47414777
   0.56545621  0.46326007  0.55174756
Direct configuration=     3
   0.37918226  0.53262198  0.49015843
   0.38079657  0.48458544  0.45466389
   0.38389848  0.47772785  0.51338048
   0.45076965  0.43849006  0.49715374
   0.52407270  0.42696047  0.49371263
   0.57333432  0.47202991  0.44336650
   0.52854481  0.50991157  0.43331427
   0.52396849  0.45368008  0.41546403
   0.51727722  0.54684273  0.50767166
   0.55219287  0.54199560  0.59730368
   0.59860166  0.54544792  0.56112296
   0.55800471  0.58941037  0.56142267
   0.39381479  0.49944229  0.48558372
   0.44400066  0.50451065  0.48258796
   0.51698761  0.46233734  0.48738313
   0.53680064  0.47539384  0.44205281
   0.54186074  0.48558084  0.52611923
   0.56290817  0.55330167  0.56406468
   0.46806253  0.46659906  0.48948292
   0.53828480  0.53045236  0.52918758
   0.46162341  0.54107040  0.47415159
   0.56544662  0.46326126  0.55173640
Direct configuration=     4
   0.37917622  0.53260701  0.49014871
   0.38079027  0.48460115  0.45465970
   0.38389124  0.47772580  0.51338785
   0.45077961  0.43849929  0.49716148
   0.52405674  0.42695940  0.49370223
   0.57331437  0.47202276  0.44336230
   0.52854955  0.50991831  0.43332309
   0.52396953  0.45366525  0.41546950
   0.51726796  0.54682062  0.50769868
   0.55218898  0.54200214  0.59730286
   0.59861049  0.54546623  0.56112859
   0.55799170  0.58941072  0.56140380
   0.39382500  0.49943129  0.48558685
   0.44402406  0.50452983  0.48258261
   0.51699329  0.46234396  0.48737840
   0.53679028  0.47539531  0.44204707
   0.54187118  0.48557134  0.52613026
   0.56291069  0.55330438  0.56406354
   0.46807288  0.46659972  0.48947255
   0.53829542  0.53044880  0.52919471
   0.46162818  0.54107144  0.47415584
   0.56543604  0.46325889  0.55172428
Direct configuration=     5
   0.37916861  0.53258709  0.49013578
   0.38078260  0.48462143  0.45465406
   0.38388241  0.47772309  0.51339685
   0.45079269  0.43851135  0.49717192
   0.52403635  0.42695844  0.49368753
   0.57328936  0.47201380  0.44335617
   0.52855565  0.50992795  0.43333433
   0.52397029  0.45364667  0.41547592
   0.51725539  0.54679234  0.50773379
   0.55218211  0.54201126  0.59730282
   0.59862184  0.54548939  0.56113837
   0.55797494  0.58941087  0.56137906
   0.39383865  0.49941817  0.48559023
   0.44404889  0.50454501  0.48257768
   0.51700039  0.46235113  0.48737236
   0.53677675  0.47539782  0.44203987
   0.54187889  0.48556448  0.52613742
   0.56291382  0.55330821  0.56406340
   0.46808705  0.46660326  0.48945829
   0.53831042  0.53044195  0.52920441
   0.46163871  0.54108045  0.47415929
   0.56542790  0.46324944  0.55171530
Direct configuration=     6
   0.37915986  0.53256271  0.49012000
   0.38077420  0.48464550  0.45464713
   0.38387267  0.47771980  0.51340677
   0.45080871  0.43852617  0.49718489
   0.52401241  0.42695780  0.49366845
   0.57326082  0.47200338  0.44334794
   0.52856281  0.50994063  0.43334741
   0.52397028  0.45362524  0.41548274
   0.51723936  0.54675908  0.50777587
   0.55217176  0.54202312  0.59730395
   0.59863520  0.54551656  0.56115312
   0.55795493  0.58941067  0.56134905
   0.39385526  0.49940401  0.48559341
   0.44407222  0.50455288  0.48257393
   0.51700858  0.46235823  0.48736521
   0.53676048  0.47540147  0.44203157
   0.54188218  0.48556147  0.52613840
   0.56291752  0.55331316  0.56406507
   0.46810456  0.46661056  0.48944035
   0.53832970  0.53043118  0.52921632
   0.46165598  0.54109907  0.47416137
   0.56542423  0.46323095  0.55171193
Direct configuration=     7
   0.37915039  0.53253436  0.49010176
   0.38076573  0.48467267  0.45463909
   0.38386269  0.47771604  0.51341681
   0.45082781  0.43854407  0.49720026
   0.52398570  0.42695758  0.49364496
   0.57323021  0.47199169  0.44333745
   0.52857065  0.50995639  0.43336179
   0.52396897  0.45360174  0.41548953
   0.51721944  0.54672185  0.50782410
   0.55215768  0.54203796  0.59730653
   0.59865005  0.54554732  0.56117354
   0.55793190  0.58941005  0.56131407
   0.39387425  0.49938955  0.48559599
   0.44409317  0.50455458  0.48257107
   0.51701733  0.46236481  0.48735695
   0.53674199  0.47540624  0.44202250
   0.54188224  0.48556051  0.52613394
   0.56292191  0.55331913  0.56406927
   0.46812457  0.46662161  0.48941915
   0.53835296  0.53041648  0.52922983
   0.46167937  0.54112568  0.47416244
   0.56542473  0.46320350  0.55171402
Direct configuration=     8
   0.37913955  0.53249900  0.49007913
   0.38075709  0.48470566  0.45462905
   0.38385219  0.47771145  0.51342698
   0.45085311  0.43856834  0.49722001
   0.52395364  0.42695774  0.49361364
   0.57319544  0.47197732  0.44332289
   0.52857967  0.50997747  0.43337865
   0.52396522  0.45357407  0.41549668
   0.51719204  0.54667682  0.50788429
   0.55213749  0.54205847  0.59731138
   0.59866767  0.54558557  0.56120362
   0.55790285  0.58940883  0.56126949
   0.39389707  0.49937342  0.48559784
   0.44411486  0.50455546  0.48256762
   0.51702710  0.46237171  0.48734627
   0.53671973  0.47541264  0.44201153
   0.54188327  0.48555622  0.52612711
   0.56292776  0.55332674  0.56407766
   0.46814826  0.46663730  0.48939247
   0.53838284  0.53039618  0.52924564
   0.46170979  0.54115879  0.47416389
   0.56542714  0.46316484  0.55171943
Direct configuration=     9
   0.37912768  0.53245701  0.49005226
   0.38074952  0.48474428  0.45461692
   0.38384238  0.47770616  0.51343561
   0.45088630  0.43860113  0.49724483
   0.52391644  0.42695794  0.49357316
   0.57315802  0.47195988  0.44330322
   0.52858941  0.51000442  0.43339754
   0.52395745  0.45354290  0.41550393
   0.51715485  0.54662378  0.50795807
   0.55211016  0.54208647  0.59731932
   0.59868779  0.54563277  0.56124600
   0.55786669  0.58940692  0.56121374
   0.39392302  0.49935526  0.48559851
   0.44414056  0.50456648  0.48256115
   0.51703727  0.46237946  0.48733228
   0.53669447  0.47542063  0.44199811
   0.54189357  0.48553888  0.52612562
   0.56293519  0.55333577  0.56409144
   0.46817388  0.46665671  0.48936057
   0.53841945  0.53037063  0.52926246
   0.46174357  0.54118950  0.47416846
   0.56542619  0.46311748  0.55172249
Direct configuration=    10
   0.37911511  0.53241043  0.49002222
   0.38074480  0.48478715  0.45460258
   0.38383520  0.47770029  0.51344040
   0.45092794  0.43864358  0.49727540
   0.52387511  0.42695721  0.49352266
   0.57312037  0.47193916  0.44327750
   0.52859913  0.51003656  0.43341743
   0.52394381  0.45350999  0.41551108
   0.51710604  0.54656299  0.50804638
   0.55207519  0.54212378  0.59733152
   0.59870989  0.54568997  0.56130276
   0.55782284  0.58940426  0.56114619
   0.39395038  0.49933572  0.48559711
   0.44417250  0.50459648  0.48254986
   0.51704708  0.46238850  0.48731450
   0.53666819  0.47543008  0.44198164
   0.54191988  0.48550095  0.52613587
   0.56294330  0.55334578  0.56411051
   0.46819934  0.46667944  0.48932444
   0.53846270  0.53033974  0.52927871
   0.46177682  0.54121030  0.47417861
   0.56541838  0.46306271  0.55171898
Direct configuration=    11
   0.37910161  0.53236277  0.48999072
   0.38074568  0.48483198  0.45458519
   0.38383392  0.47769366  0.51343803
   0.45097744  0.43869620  0.49731357
   0.52383064  0.42695380  0.49345999
   0.57308577  0.47191474  0.44324393
   0.52860800  0.51007230  0.43343667
   0.52392122  0.45347828  0.41551808
   0.51704295  0.54649356  0.50815185
   0.55203167  0.54217380  0.59735013
   0.59873358  0.54575958  0.56137734
   0.55777014  0.58940061  0.56106562
   0.39397757  0.49931697  0.48559196
   0.44420729  0.50464125  0.48253516
   0.51705569  0.46239822  0.48729288
   0.53664363  0.47544121  0.44196111
   0.54196082  0.48544391  0.52615491
   0.56294965  0.55335671  0.56413390
   0.46822366  0.46670892  0.48928475
   0.53851441  0.53029997  0.52929346
   0.46181030  0.54122503  0.47419478
   0.56540851  0.46299245  0.55171319
Direct configuration=    12
   0.37908628  0.53231991  0.48996091
   0.38075515  0.48487451  0.45456315
   0.38384245  0.47768543  0.51342537
   0.45103095  0.43875680  0.49736144
   0.52378451  0.42694555  0.49338370
   0.57305828  0.47188653  0.44320096
   0.52861533  0.51010776  0.43345277
   0.52388669  0.45345225  0.41552509
   0.51696495  0.54641378  0.50827664
   0.55197998  0.54223981  0.59737719
   0.59875791  0.54584356  0.56147149
   0.55770827  0.58939558  0.56097256
   0.39400359  0.49930389  0.48558119
   0.44423291  0.50467775  0.48252279
   0.51706364  0.46240615  0.48726895
   0.53662423  0.47545419  0.44193608
   0.54200181  0.48538371  0.52616743
   0.56294977  0.55336841  0.56415757
   0.46824800  0.46675081  0.48924305
   0.53857723  0.53024560  0.52930703
   0.46185071  0.54125450  0.47421347
   0.56541173  0.46289058  0.55171951
Direct configuration=    13
   0.37906793  0.53228956  0.48993724
   0.38077573  0.48490952  0.45453441
   0.38386434  0.47767420  0.51339989
   0.45108359  0.43882367  0.49742126
   0.52373767  0.42693032  0.49329417
   0.57304157  0.47185371  0.44314757
   0.52862057  0.51013708  0.43346244
   0.52383732  0.45343645  0.41553286
   0.51687312  0.54631975  0.50842323
   0.55192432  0.54232556  0.59741211
   0.59878063  0.54594628  0.56158265
   0.55763590  0.58938919  0.56086782
   0.39402699  0.49930202  0.48556312
   0.44424460  0.50469816  0.48251625
   0.51707332  0.46241113  0.48724464
   0.53661285  0.47546723  0.44190692
   0.54203952  0.48532215  0.52617083
   0.56294056  0.55338081  0.56417675
   0.46827284  0.46680351  0.48920393
   0.53865194  0.53017564  0.52931919
   0.46189698  0.54130856  0.47423446
   0.56543234  0.46275379  0.55173789
Direct configuration=    14
   0.37904581  0.53228074  0.48992483
   0.38081021  0.48493147  0.45449660
   0.38390282  0.47765835  0.51335842
   0.45113101  0.43889719  0.49749513
   0.52369059  0.42690637  0.49319287
   0.57303873  0.47181493  0.44308219
   0.52862337  0.51015384  0.43346142
   0.52376989  0.45343606  0.41554178
   0.51676908  0.54620477  0.50859459
   0.55187023  0.54243597  0.59745161
   0.59879688  0.54607360  0.56170619
   0.55754996  0.58938183  0.56075129
   0.39404463  0.49931553  0.48553635
   0.44425840  0.50474036  0.48250993
   0.51708996  0.46241468  0.48722055
   0.53661217  0.47547630  0.44187638
   0.54209677  0.48523141  0.52619036
   0.56292200  0.55339352  0.56418965
   0.46829585  0.46685316  0.48917613
   0.53873610  0.53009546  0.52932840
   0.46192933  0.54136276  0.47426661
   0.56545111  0.46260127  0.55173968
Direct configuration=    15
   0.37901919  0.53229865  0.48992797
   0.38086065  0.48493800  0.45444953
   0.38395934  0.47763743  0.51329892
   0.45116549  0.43897394  0.49758563
   0.52364326  0.42687360  0.49308308
   0.57305009  0.47176848  0.44300370
   0.52862494  0.51015281  0.43344579
   0.52368282  0.45345303  0.41555154
   0.51665443  0.54606218  0.50878884
   0.55182526  0.54257415  0.59748996
   0.59880251  0.54623131  0.56183143
   0.55744674  0.58937431  0.56062329
   0.39405548  0.49934715  0.48550036
   0.44428462  0.50481874  0.48250409
   0.51711689  0.46241134  0.48719902
   0.53662230  0.47547645  0.44184927
   0.54217373  0.48510948  0.52622650
   0.56289707  0.55341078  0.56419706
   0.46831712  0.46689689  0.48916633
   0.53882870  0.53000198  0.52933782
   0.46193627  0.54140883  0.47431541
   0.56546817  0.46244105  0.55171642
Direct configuration=    16
   0.37898752  0.53234110  0.48994861
   0.38092930  0.48493221  0.45439566
   0.38403403  0.47761296  0.51322013
   0.45117657  0.43904912  0.49769583
   0.52359648  0.42683022  0.49296942
   0.57307297  0.47171205  0.44291069
   0.52862904  0.51013065  0.43341316
   0.52357634  0.45348507  0.41556081
   0.51653108  0.54588530  0.50899991
   0.55179596  0.54274057  0.59752390
   0.59879886  0.54642440  0.56194304
   0.55732140  0.58936942  0.56048374
   0.39406458  0.49939972  0.48545517
   0.44429702  0.50486760  0.48251837
   0.51714954  0.46238941  0.48718516
   0.53663964  0.47546339  0.44183185
   0.54222947  0.48500246  0.52623183
   0.56286810  0.55344138  0.56419847
   0.46834126  0.46695337  0.48917602
   0.53893042  0.52988260  0.52935584
   0.46194145  0.54150253  0.47437166
   0.56552416  0.46224551  0.55170318
Direct configuration=    17
   0.37895498  0.53239854  0.48998581
   0.38101971  0.48492473  0.45433942
   0.38412326  0.47758915  0.51311910
   0.45116544  0.43913811  0.49782417
   0.52355256  0.42676676  0.49286338
   0.57309966  0.47164023  0.44280122
   0.52864185  0.51008478  0.43336486
   0.52345191  0.45352636  0.41556800
   0.51640155  0.54566381  0.50921896
   0.55178750  0.54293386  0.59755513
   0.59879366  0.54665909  0.56201946
   0.55716217  0.58937629  0.56032734
   0.39407777  0.49946620  0.48540503
   0.44431236  0.50493488  0.48254825
   0.51717634  0.46235206  0.48717912
   0.53665675  0.47543333  0.44182282
   0.54231176  0.48486039  0.52625131
   0.56283828  0.55348887  0.56419089
   0.46835780  0.46700566  0.48921711
   0.53902419  0.52975397  0.52938503
   0.46193039  0.54161028  0.47445010
   0.56559515  0.46205313  0.55165535
Direct configuration=    18
   0.37893045  0.53244463  0.49002907
   0.38113214  0.48493614  0.45428410
   0.38421480  0.47756841  0.51300322
   0.45113371  0.43924847  0.49796764
   0.52351097  0.42667754  0.49277591
   0.57311284  0.47154760  0.44267704
   0.52867119  0.51002459  0.43331180
   0.52331716  0.45356321  0.41556964
   0.51626261  0.54540233  0.50942166
   0.55179567  0.54314469  0.59759447
   0.59880248  0.54693084  0.56204448
   0.55696168  0.58940419  0.56014996
   0.39410277  0.49953853  0.48535916
   0.44434595  0.50505747  0.48258854
   0.51718531  0.46230087  0.48718226
   0.53665906  0.47538571  0.44181015
   0.54241191  0.48471668  0.52627592
   0.56280494  0.55355337  0.56416681
   0.46836438  0.46706285  0.48928905
   0.53909926  0.52960778  0.52943560
   0.46190310  0.54169380  0.47456397
   0.56571231  0.46184888  0.55158950
Direct configuration=    19
   0.37891333  0.53246517  0.49006491
   0.38126324  0.48498445  0.45422548
   0.38429546  0.47754694  0.51289093
   0.45107863  0.43937411  0.49812319
   0.52346555  0.42658015  0.49270923
   0.57309377  0.47143270  0.44254349
   0.52871934  0.50997199  0.43326764
   0.52317775  0.45357978  0.41555512
   0.51612431  0.54511334  0.50959355
   0.55180986  0.54336418  0.59764093
   0.59882061  0.54722335  0.56202401
   0.55672481  0.58944499  0.55995161
   0.39415349  0.49960710  0.48531985
   0.44432852  0.50505884  0.48267637
   0.51718693  0.46222996  0.48719848
   0.53663981  0.47532832  0.44179192
   0.54251735  0.48457184  0.52629342
   0.56276910  0.55363395  0.56414082
   0.46837392  0.46716850  0.48937162
   0.53913720  0.52945551  0.52950431
   0.46195184  0.54188742  0.47467883
   0.56588929  0.46163320  0.55152136
Direct configuration=    20
   0.37891593  0.53246153  0.49006185
   0.38126553  0.48499192  0.45422309
   0.38429078  0.47754601  0.51289330
   0.45108082  0.43938190  0.49812214
   0.52346264  0.42658031  0.49271249
   0.57308720  0.47142866  0.44254295
   0.52872160  0.50997625  0.43327189
   0.52317760  0.45357609  0.41555142
   0.51612269  0.54511255  0.50958423
   0.55180842  0.54336488  0.59764134
   0.59881828  0.54722333  0.56202014
   0.55672053  0.58944441  0.55994877
   0.39415354  0.49960038  0.48532280
   0.44435684  0.50511688  0.48266673
   0.51719012  0.46223354  0.48719783
   0.53663458  0.47532744  0.44179037
   0.54252516  0.48456642  0.52630139
   0.56276826  0.55363459  0.56414221
   0.46837242  0.46715422  0.48937731
   0.53913242  0.52945223  0.52950951
   0.46193646  0.54184329  0.47469200
   0.56589226  0.46163885  0.55151323
Direct configuration=    21
   0.37892054  0.53245325  0.49005548
   0.38127089  0.48500790  0.45421777
   0.38428150  0.47754375  0.51289868
   0.45108155  0.43939424  0.49812163
   0.52345704  0.42658106  0.49271925
   0.57307325  0.47141999  0.44254154
   0.52872669  0.50998498  0.43328070
   0.52317699  0.45356846  0.41554367
   0.51612192  0.54510939  0.50956624
   0.55180544  0.54336658  0.59764257
   0.59881353  0.54722346  0.56201160
   0.55671125  0.58944327  0.55994274
   0.39415634  0.49958994  0.48532809
   0.44439363  0.50518466  0.48265847
   0.51719496  0.46223767  0.48719789
   0.53662362  0.47532573  0.44178680
   0.54253663  0.48455894  0.52631149
   0.56276572  0.55363644  0.56414473
   0.46837283  0.46713933  0.48938591
   0.53912026  0.52944683  0.52951960
   0.46192509  0.54179339  0.47471060
   0.56590442  0.46164635  0.55150143
Direct configuration=    22
   0.37892071  0.53245234  0.49005490
   0.38127163  0.48500950  0.45421712
   0.38428080  0.47754345  0.51289925
   0.45108046  0.43939420  0.49812209
   0.52345669  0.42658125  0.49271985
   0.57307187  0.47141908  0.44254129
   0.52872728  0.50998571  0.43328153
   0.52317680  0.45356783  0.41554293
   0.51612272  0.54510858  0.50956501
   0.55180513  0.54336683  0.59764281
   0.59881308  0.54722348  0.56201070
   0.55671025  0.58944320  0.55994213
   0.39415750  0.49959011  0.48532830
   0.44438990  0.50517413  0.48266149
   0.51719479  0.46223701  0.48719833
   0.53662258  0.47532564  0.44178644
   0.54253623  0.48455952  0.52631044
   0.56276516  0.55363664  0.56414480
   0.46837405  0.46714252  0.48938569
   0.53911848  0.52944674  0.52952035
   0.46193059  0.54180205  0.47470951
   0.56590739  0.46164575  0.55150189
Direct configuration=    23
   0.37892111  0.53245056  0.49005376
   0.38127311  0.48501273  0.45421582
   0.38427935  0.47754285  0.51290035
   0.45107842  0.43939431  0.49812294
   0.52345595  0.42658159  0.49272106
   0.57306912  0.47141723  0.44254079
   0.52872846  0.50998717  0.43328321
   0.52317642  0.45356659  0.41554146
   0.51612421  0.54510699  0.50956245
   0.55180450  0.54336733  0.59764329
   0.59881214  0.54722351  0.56200889
   0.55670824  0.58944306  0.55994089
   0.39415974  0.49959033  0.48532877
   0.44438345  0.50515532  0.48266707
   0.51719452  0.46223583  0.48719917
   0.53662049  0.47532547  0.44178570
   0.54253565  0.48456054  0.52630860
   0.56276400  0.55363703  0.56414494
   0.46837633  0.46714834  0.48938543
   0.53911496  0.52944648  0.52952192
   0.46194074  0.54181755  0.47470776
   0.56591315  0.46164474  0.55150259
Direct configuration=    24
   0.37892184  0.53244787  0.49005199
   0.38127543  0.48501774  0.45421381
   0.38427705  0.47754197  0.51290195
   0.45107570  0.43939497  0.49812410
   0.52345475  0.42658202  0.49272298
   0.57306484  0.47141432  0.44254001
   0.52873025  0.50998942  0.43328585
   0.52317581  0.45356468  0.41553918
   0.51612626  0.54510463  0.50955826
   0.55180352  0.54336813  0.59764404
   0.59881062  0.54722355  0.56200608
   0.55670507  0.58944286  0.55993896
   0.39416297  0.49959029  0.48532959
   0.44437622  0.50513256  0.48267435
   0.51719429  0.46223433  0.48720032
   0.53661725  0.47532518  0.44178456
   0.54253538  0.48456172  0.52630648
   0.56276218  0.55363756  0.56414512
   0.46837942  0.46715568  0.48938550
   0.53910964  0.52944585  0.52952449
   0.46195399  0.54183650  0.47470619
   0.56592158  0.46164368  0.55150299
Direct configuration=    25
   0.37892311  0.53244426  0.49004951
   0.38127876  0.48502485  0.45421099
   0.38427366  0.47754080  0.51290400
   0.45107271  0.43939686  0.49812540
   0.52345294  0.42658243  0.49272576
   0.57305880  0.47141010  0.44253891
   0.52873272  0.50999257  0.43328967
   0.52317489  0.45356209  0.41553598
   0.51612868  0.54510146  0.50955190
   0.55180209  0.54336929  0.59764512
   0.59880837  0.54722358  0.56200212
   0.55670053  0.58944259  0.55993622
   0.39416700  0.49958949  0.48533098
   0.44437139  0.50511304  0.48268196
   0.51719432  0.46223286  0.48720164
   0.53661271  0.47532470  0.44178295
   0.54253620  0.48456261  0.52630483
   0.56275952  0.55363817  0.56414529
   0.46838287  0.46716270  0.48938659
   0.53910243  0.52944451  0.52952845
   0.46196787  0.54185336  0.47470622
   0.56593249  0.46164317  0.55150225
Direct configuration=    26
   0.37892321  0.53244411  0.49004939
   0.38127895  0.48502521  0.45421085
   0.38427347  0.47754075  0.51290406
   0.45107271  0.43939713  0.49812542
   0.52345284  0.42658241  0.49272591
   0.57305850  0.47140987  0.44253885
   0.52873284  0.50999271  0.43328988
   0.52317482  0.45356198  0.41553582
   0.51612872  0.54510132  0.50955150
   0.55180201  0.54336936  0.59764518
   0.59880823  0.54722358  0.56200192
   0.55670028  0.58944258  0.55993607
   0.39416711  0.49958932  0.48533108
   0.44437208  0.50511424  0.48268188
   0.51719438  0.46223290  0.48720165
   0.53661248  0.47532466  0.44178287
   0.54253645  0.48456251  0.52630499
   0.56275936  0.55363818  0.56414529
   0.46838289  0.46716246  0.48938682
   0.53910212  0.52944436  0.52952870
   0.46196774  0.54185249  0.47470661
   0.56593287  0.46164332  0.55150198
Direct configuration=    27
   0.37892343  0.53244381  0.49004915
   0.38127932  0.48502594  0.45421057
   0.38427308  0.47754067  0.51290418
   0.45107270  0.43939765  0.49812544
   0.52345262  0.42658238  0.49272621
   0.57305790  0.47140941  0.44253874
   0.52873306  0.50999301  0.43329029
   0.52317470  0.45356176  0.41553550
   0.51612880  0.54510106  0.50955070
   0.55180185  0.54336950  0.59764530
   0.59880795  0.54722357  0.56200153
   0.55669979  0.58944256  0.55993578
   0.39416734  0.49958898  0.48533130
   0.44437343  0.50511657  0.48268174
   0.51719451  0.46223298  0.48720168
   0.53661204  0.47532459  0.44178271
   0.54253696  0.48456233  0.52630529
   0.56275905  0.55363820  0.56414531
   0.46838293  0.46716201  0.48938728
   0.53910149  0.52944406  0.52952921
   0.46196749  0.54185082  0.47470739
   0.56593363  0.46164361  0.55150144
Direct configuration=    28
   0.37892375  0.53244337  0.49004880
   0.38127988  0.48502704  0.45421015
   0.38427251  0.47754053  0.51290436
   0.45107268  0.43939842  0.49812548
   0.52345229  0.42658233  0.49272666
   0.57305699  0.47140871  0.44253856
   0.52873341  0.50999346  0.43329092
   0.52317451  0.45356144  0.41553501
   0.51612894  0.54510065  0.50954951
   0.55180160  0.54336971  0.59764547
   0.59880752  0.54722355  0.56200094
   0.55669905  0.58944253  0.55993534
   0.39416768  0.49958849  0.48533161
   0.44437539  0.50511992  0.48268155
   0.51719469  0.46223308  0.48720173
   0.53661137  0.47532448  0.44178247
   0.54253771  0.48456206  0.52630573
   0.56275857  0.55363823  0.56414533
   0.46838300  0.46716137  0.48938795
   0.53910054  0.52944362  0.52952997
   0.46196718  0.54184843  0.47470853
   0.56593480  0.46164404  0.55150064
Direct configuration=    29
   0.37892417  0.53244277  0.49004832
   0.38128064  0.48502851  0.45420959
   0.38427175  0.47754035  0.51290459
   0.45107262  0.43939942  0.49812555
   0.52345186  0.42658226  0.49272726
   0.57305577  0.47140777  0.44253831
   0.52873387  0.50999407  0.43329176
   0.52317425  0.45356102  0.41553437
   0.51612913  0.54510010  0.50954792
   0.55180125  0.54336999  0.59764572
   0.59880695  0.54722352  0.56200016
   0.55669806  0.58944248  0.55993476
   0.39416817  0.49958785  0.48533202
   0.44437789  0.50512410  0.48268138
   0.51719493  0.46223320  0.48720181
   0.53661047  0.47532433  0.44178215
   0.54253869  0.48456172  0.52630628
   0.56275793  0.55363827  0.56414537
   0.46838312  0.46716060  0.48938884
   0.53909925  0.52944304  0.52953099
   0.46196689  0.54184547  0.47471000
   0.56593640  0.46164460  0.55149959
Direct configuration=    30
   0.37892470  0.53244201  0.49004771
   0.38128161  0.48503037  0.45420886
   0.38427079  0.47754012  0.51290489
   0.45107252  0.43940066  0.49812565
   0.52345133  0.42658219  0.49272802
   0.57305424  0.47140659  0.44253799
   0.52873446  0.50999483  0.43329282
   0.52317392  0.45356050  0.41553354
   0.51612941  0.54509939  0.50954593
   0.55180080  0.54337036  0.59764604
   0.59880622  0.54722347  0.56199919
   0.55669680  0.58944242  0.55993402
   0.39416880  0.49958708  0.48533253
   0.44438082  0.50512885  0.48268127
   0.51719522  0.46223333  0.48720191
   0.53660932  0.47532413  0.44178173
   0.54253989  0.48456131  0.52630691
   0.56275712  0.55363832  0.56414542
   0.46838330  0.46715976  0.48938993
   0.53909761  0.52944231  0.52953226
   0.46196672  0.54184215  0.47471177
   0.56593846  0.46164526  0.55149831
Direct configuration=    31
   0.37892533  0.53244109  0.49004698
   0.38128281  0.48503264  0.45420798
   0.38426965  0.47753984  0.51290523
   0.45107234  0.43940210  0.49812580
   0.52345069  0.42658210  0.49272892
   0.57305239  0.47140516  0.44253760
   0.52873517  0.50999576  0.43329410
   0.52317350  0.45355989  0.41553254
   0.51612979  0.54509849  0.50954353
   0.55180024  0.54337081  0.59764643
   0.59880531  0.54722340  0.56199803
   0.55669528  0.58944235  0.55993312
   0.39416961  0.49958621  0.48533312
   0.44438405  0.50513385  0.48268131
   0.51719554  0.46223344  0.48720205
   0.53660793  0.47532390  0.44178123
   0.54254128  0.48456085  0.52630761
   0.56275611  0.55363838  0.56414548
   0.46838358  0.46715896  0.48939120
   0.53909559  0.52944146  0.52953380
   0.46196681  0.54183872  0.47471380
   0.56594105  0.46164602  0.55149682
Direct configuration=    32
   0.37892615  0.53243989  0.49004601
   0.38128442  0.48503561  0.45420680
   0.38426816  0.47753947  0.51290568
   0.45107202  0.43940390  0.49812603
   0.52344987  0.42658199  0.49273010
   0.57304996  0.47140327  0.44253706
   0.52873612  0.50999698  0.43329579
   0.52317293  0.45355912  0.41553122
   0.51613035  0.54509728  0.50954041
   0.55179946  0.54337141  0.59764697
   0.59880410  0.54722329  0.56199653
   0.55669326  0.58944224  0.55993193
   0.39417073  0.49958515  0.48533387
   0.44438777  0.50513923  0.48268165
   0.51719593  0.46223351  0.48720227
   0.53660611  0.47532359  0.44178057
   0.54254302  0.48456030  0.52630839
   0.56275477  0.55363846  0.56414558
   0.46838405  0.46715824  0.48939280
   0.53909289  0.52944037  0.52953581
   0.46196741  0.54183516  0.47471625
   0.56594456  0.46164693  0.55149495
Direct configuration=    33
   0.37892718  0.53243834  0.49004479
   0.38128653  0.48503944  0.45420526
   0.38426628  0.47753898  0.51290624
   0.45107149  0.43940608  0.49812637
   0.52344884  0.42658186  0.49273159
   0.57304685  0.47140084  0.44253634
   0.52873735  0.50999854  0.43329795
   0.52317217  0.45355817  0.41552951
   0.51613116  0.54509567  0.50953645
   0.55179843  0.54337221  0.59764767
   0.59880251  0.54722313  0.56199463
   0.55669066  0.58944210  0.55993040
   0.39417227  0.49958393  0.48533478
   0.44439181  0.50514443  0.48268247
   0.51719638  0.46223350  0.48720259
   0.53660377  0.47532321  0.44177973
   0.54254512  0.48455968  0.52630921
   0.56275303  0.55363857  0.56414571
   0.46838477  0.46715777  0.48939476
   0.53908935  0.52943901  0.52953836
   0.46196883  0.54183195  0.47471912
   0.56594926  0.46164798  0.55149269
Direct configuration=    34
   0.37892845  0.53243642  0.49004326
   0.38128924  0.48504424  0.45420330
   0.38426396  0.47753835  0.51290690
   0.45107068  0.43940864  0.49812689
   0.52344759  0.42658169  0.49273343
   0.57304297  0.47139777  0.44253540
   0.52873890  0.51000048  0.43330066
   0.52317117  0.45355704  0.41552737
   0.51613230  0.54509356  0.50953156
   0.55179708  0.54337324  0.59764859
   0.59880045  0.54722289  0.56199229
   0.55668738  0.58944190  0.55992847
   0.39417430  0.49958258  0.48533587
   0.44439592  0.50514873  0.48268401
   0.51719688  0.46223337  0.48720305
   0.53660086  0.47532273  0.44177870
   0.54254757  0.48455900  0.52630997
   0.56275080  0.55363872  0.56414590
   0.46838584  0.46715780  0.48939710
   0.53908484  0.52943737  0.52954152
   0.46197148  0.54182968  0.47472235
   0.56595538  0.46164914  0.55149003
Direct configuration=    35
   0.37892997  0.53243410  0.49004142
   0.38129267  0.48505014  0.45420086
   0.38426116  0.47753758  0.51290766
   0.45106949  0.43941158  0.49812761
   0.52344610  0.42658148  0.49273567
   0.57303824  0.47139398  0.44253421
   0.52874080  0.51000284  0.43330398
   0.52316986  0.45355574  0.41552473
   0.51613385  0.54509087  0.50952562
   0.55179537  0.54337455  0.59764975