   6   6   0   0
  0.4500000E+04  0.3000000E-08  0.3000000E-08  0.3000000E-08  0.0000000E+00
  1.000000000000000E-004
  CAR 
 unknown system                          
      2.03027228    -26.21622442  301     -6.34915395      1.00000000
    -26.216  0.0000E+00  0.0000E+00
    -26.122  0.0000E+00  0.0000E+00
    -26.028  0.0000E+00  0.0000E+00
    -25.934  0.0000E+00  0.0000E+00
    -25.840  0.0000E+00  0.0000E+00
    -25.745  0.0000E+00  0.0000E+00
    -25.651  0.0000E+00  0.0000E+00
    -25.557  0.0000E+00  0.0000E+00
    -25.463  0.0000E+00  0.0000E+00
    -25.369  0.1179E-16  0.1110E-17
    -25.275  0.2533E-14  0.2396E-15
    -25.181  0.3229E-12  0.3064E-13
    -25.086  0.2662E-10  0.2537E-11
    -24.992  0.1420E-08  0.1362E-09
    -24.898  0.4905E-07  0.4755E-08
    -24.804  0.1099E-05  0.1082E-06
    -24.710  0.1597E-04  0.1612E-05
    -24.616  0.1508E-03  0.1581E-04
    -24.521  0.9265E-03  0.1030E-03
    -24.427  0.3706E-02  0.4520E-03
    -24.333  0.9660E-02  0.1362E-02
    -24.239  0.1642E-01  0.2907E-02
    -24.145  0.1820E-01  0.4621E-02
    -24.051  0.1317E-01  0.5861E-02
    -23.957  0.6211E-02  0.6446E-02
    -23.862  0.1910E-02  0.6626E-02
    -23.768  0.3825E-03  0.6662E-02
    -23.674  0.4987E-04  0.6666E-02
    -23.580  0.4226E-05  0.6667E-02
    -23.486  0.2325E-06  0.6667E-02
    -23.392  0.8300E-08  0.6667E-02
    -23.297  0.1920E-09  0.6667E-02
    -23.203  0.2874E-11  0.6667E-02
    -23.109  0.2783E-13  0.6667E-02
    -23.015  0.1729E-15  0.6667E-02
    -22.921  0.0000E+00  0.6667E-02
    -22.827  0.0000E+00  0.6667E-02
    -22.732  0.0000E+00  0.6667E-02
    -22.638  0.0000E+00  0.6667E-02
    -22.544  0.0000E+00  0.6667E-02
    -22.450  0.0000E+00  0.6667E-02
    -22.356  0.0000E+00  0.6667E-02
    -22.262  0.0000E+00  0.6667E-02
    -22.168  0.0000E+00  0.6667E-02
    -22.073  0.0000E+00  0.6667E-02
    -21.979  0.0000E+00  0.6667E-02
    -21.885  0.0000E+00  0.6667E-02
    -21.791  0.0000E+00  0.6667E-02
    -21.697  0.0000E+00  0.6667E-02
    -21.603  0.0000E+00  0.6667E-02
    -21.508  0.0000E+00  0.6667E-02
    -21.414  0.0000E+00  0.6667E-02
    -21.320  0.0000E+00  0.6667E-02
    -21.226  0.0000E+00  0.6667E-02
    -21.132  0.0000E+00  0.6667E-02
    -21.038  0.0000E+00  0.6667E-02
    -20.944  0.0000E+00  0.6667E-02
    -20.849  0.0000E+00  0.6667E-02
    -20.755  0.0000E+00  0.6667E-02
    -20.661  0.0000E+00  0.6667E-02
    -20.567  0.0000E+00  0.6667E-02
    -20.473  0.0000E+00  0.6667E-02
    -20.379  0.0000E+00  0.6667E-02
    -20.284  0.0000E+00  0.6667E-02
    -20.190  0.0000E+00  0.6667E-02
    -20.096  0.0000E+00  0.6667E-02
    -20.002  0.0000E+00  0.6667E-02
    -19.908  0.0000E+00  0.6667E-02
    -19.814  0.0000E+00  0.6667E-02
    -19.720  0.0000E+00  0.6667E-02
    -19.625  0.0000E+00  0.6667E-02
    -19.531  0.0000E+00  0.6667E-02
    -19.437  0.0000E+00  0.6667E-02
    -19.343  0.0000E+00  0.6667E-02
    -19.249  0.3930E-17  0.6667E-02
    -19.155  0.6446E-15  0.6667E-02
    -19.060  0.9231E-13  0.6667E-02
    -18.966  0.8550E-11  0.6667E-02
    -18.872  0.5122E-09  0.6667E-02
    -18.778  0.1987E-07  0.6667E-02
    -18.684  0.4996E-06  0.6667E-02
    -18.590  0.8150E-05  0.6667E-02
    -18.496  0.8636E-04  0.6676E-02
    -18.401  0.5950E-03  0.6732E-02
    -18.307  0.2669E-02  0.6983E-02
    -18.213  0.7799E-02  0.7717E-02
    -18.119  0.1486E-01  0.9116E-02
    -18.025  0.1846E-01  0.1085E-01
    -17.931  0.1497E-01  0.1226E-01
    -17.836  0.7915E-02  0.1301E-01
    -17.742  0.2729E-02  0.1327E-01
    -17.648  0.6130E-03  0.1332E-01
    -17.554  0.8963E-04  0.1333E-01
    -17.460  0.8522E-05  0.1333E-01
    -17.366  0.5263E-06  0.1333E-01
    -17.272  0.2109E-07  0.1333E-01
    -17.177  0.5478E-09  0.1333E-01
    -17.083  0.9213E-11  0.1333E-01
    -16.989  0.1002E-12  0.1333E-01
    -16.895  0.7075E-15  0.1333E-01
    -16.801  0.0000E+00  0.1333E-01
    -16.707  0.0000E+00  0.1333E-01
    -16.612  0.0000E+00  0.1333E-01
    -16.518  0.0000E+00  0.1333E-01
    -16.424  0.0000E+00  0.1333E-01
    -16.330  0.0000E+00  0.1333E-01
    -16.236  0.0000E+00  0.1333E-01
    -16.142  0.0000E+00  0.1333E-01
    -16.047  0.0000E+00  0.1333E-01
    -15.953  0.0000E+00  0.1333E-01
    -15.859  0.0000E+00  0.1333E-01
    -15.765  0.0000E+00  0.1333E-01
    -15.671  0.0000E+00  0.1333E-01
    -15.577  0.0000E+00  0.1333E-01
    -15.483  0.0000E+00  0.1333E-01
    -15.388  0.0000E+00  0.1333E-01
    -15.294  0.0000E+00  0.1333E-01
    -15.200  0.0000E+00  0.1333E-01
    -15.106  0.0000E+00  0.1333E-01
    -15.012  0.0000E+00  0.1333E-01
    -14.918  0.0000E+00  0.1333E-01
    -14.823  0.0000E+00  0.1333E-01
    -14.729  0.0000E+00  0.1333E-01
    -14.635  0.0000E+00  0.1333E-01
    -14.541  0.0000E+00  0.1333E-01
    -14.447  0.0000E+00  0.1333E-01
    -14.353  0.0000E+00  0.1333E-01
    -14.259  0.0000E+00  0.1333E-01
    -14.164  0.1179E-16  0.1333E-01
    -14.070  0.2154E-14  0.1333E-01
    -13.976  0.2788E-12  0.1333E-01
    -13.882  0.2330E-10  0.1333E-01
    -13.788  0.1260E-08  0.1333E-01
    -13.694  0.4414E-07  0.1333E-01
    -13.599  0.1002E-05  0.1333E-01
    -13.505  0.1477E-04  0.1333E-01
    -13.411  0.1414E-03  0.1335E-01
    -13.317  0.8805E-03  0.1343E-01
    -13.223  0.3570E-02  0.1377E-01
    -13.129  0.9433E-02  0.1466E-01
    -13.035  0.1625E-01  0.1619E-01
    -12.940  0.1826E-01  0.1791E-01
    -12.846  0.1339E-01  0.1917E-01
    -12.752  0.6402E-02  0.1977E-01
    -12.658  0.1996E-02  0.1996E-01
    -12.564  0.4052E-03  0.1999E-01
    -12.470  0.5354E-04  0.2000E-01
    -12.375  0.4600E-05  0.2000E-01
    -12.281  0.2571E-06  0.2000E-01
    -12.187  0.2778E-07  0.2000E-01
    -12.093  0.4726E-06  0.2000E-01
    -11.999  0.7866E-05  0.2000E-01
    -11.905  0.8571E-04  0.2001E-01
    -11.811  0.6150E-03  0.2007E-01
    -11.716  0.2931E-02  0.2034E-01
    -11.622  0.9393E-02  0.2123E-01
    -11.528  0.2055E-01  0.2316E-01
    -11.434  0.3118E-01  0.2610E-01
    -11.340  0.3318E-01  0.2922E-01
    -11.246  0.2481E-01  0.3156E-01
    -11.151  0.1292E-01  0.3277E-01
    -11.057  0.4622E-02  0.3321E-01
    -10.963  0.1117E-02  0.3331E-01
    -10.869  0.1801E-03  0.3333E-01
    -10.775  0.1917E-04  0.3333E-01
    -10.681  0.1338E-05  0.3333E-01
    -10.586  0.6093E-07  0.3333E-01
    -10.492  0.1805E-08  0.3333E-01
    -10.398  0.3468E-10  0.3333E-01
    -10.304  0.4317E-12  0.3333E-01
    -10.210  0.3522E-14  0.3333E-01
    -10.116  0.8450E-14  0.3333E-01
    -10.022  0.9686E-12  0.3333E-01
     -9.927  0.7192E-10  0.3333E-01
     -9.833  0.3456E-08  0.3333E-01
     -9.739  0.1076E-06  0.3333E-01
     -9.645  0.2172E-05  0.3333E-01
     -9.551  0.2847E-04  0.3334E-01
     -9.457  0.2425E-03  0.3336E-01
     -9.362  0.1344E-02  0.3349E-01
     -9.268  0.4849E-02  0.3394E-01
     -9.174  0.1141E-01  0.3502E-01
     -9.080  0.1750E-01  0.3666E-01
     -8.986  0.1751E-01  0.3831E-01
     -8.892  0.1143E-01  0.3939E-01
     -8.798  0.4876E-02  0.3985E-01
     -8.703  0.1453E-02  0.3998E-01
     -8.609  0.9282E-03  0.4007E-01
     -8.515  0.2991E-02  0.4035E-01
     -8.421  0.8360E-02  0.4114E-01
     -8.327  0.1537E-01  0.4259E-01
     -8.233  0.1844E-01  0.4432E-01
     -8.138  0.1444E-01  0.4568E-01
     -8.044  0.7369E-02  0.4638E-01
     -7.950  0.2453E-02  0.4661E-01
     -7.856  0.5381E-03  0.4666E-01
     -7.762  0.1444E-03  0.4667E-01
     -7.668  0.5061E-03  0.4672E-01
     -7.574  0.2339E-02  0.4694E-01
     -7.479  0.7135E-02  0.4761E-01
     -7.385  0.1419E-01  0.4895E-01
     -7.291  0.1842E-01  0.5068E-01
     -7.197  0.1559E-01  0.5215E-01
     -7.103  0.8608E-02  0.5296E-01
     -7.009  0.3099E-02  0.5325E-01
     -6.914  0.7269E-03  0.5332E-01
     -6.820  0.1110E-03  0.5333E-01
     -6.726  0.1103E-04  0.5333E-01
     -6.632  0.7113E-06  0.5333E-01
     -6.538  0.2978E-07  0.5333E-01
     -6.444  0.8083E-09  0.5333E-01
     -6.350  0.1420E-10  0.5333E-01
     -6.255  0.1615E-12  0.5333E-01
     -6.161  0.1195E-14  0.5333E-01
     -6.067  0.0000E+00  0.5333E-01
     -5.973  0.0000E+00  0.5333E-01
     -5.879  0.0000E+00  0.5333E-01
     -5.785  0.0000E+00  0.5333E-01
     -5.690  0.0000E+00  0.5333E-01
     -5.596  0.0000E+00  0.5333E-01
     -5.502  0.0000E+00  0.5333E-01
     -5.408  0.0000E+00  0.5333E-01
     -5.314  0.0000E+00  0.5333E-01
     -5.220  0.0000E+00  0.5333E-01
     -5.126  0.0000E+00  0.5333E-01
     -5.031  0.0000E+00  0.5333E-01
     -4.937  0.0000E+00  0.5333E-01
     -4.843  0.0000E+00  0.5333E-01
     -4.749  0.0000E+00  0.5333E-01
     -4.655  0.0000E+00  0.5333E-01
     -4.561  0.0000E+00  0.5333E-01
     -4.466  0.0000E+00  0.5333E-01
     -4.372  0.0000E+00  0.5333E-01
     -4.278  0.0000E+00  0.5333E-01
     -4.184  0.0000E+00  0.5333E-01
     -4.090  0.0000E+00  0.5333E-01
     -3.996  0.0000E+00  0.5333E-01
     -3.901  0.0000E+00  0.5333E-01
     -3.807  0.1965E-16  0.5333E-01
     -3.713  0.3966E-14  0.5333E-01
     -3.619  0.4863E-12  0.5333E-01
     -3.525  0.3857E-10  0.5333E-01
     -3.431  0.1979E-08  0.5333E-01
     -3.337  0.6579E-07  0.5333E-01
     -3.242  0.1418E-05  0.5333E-01
     -3.148  0.1984E-04  0.5334E-01
     -3.054  0.1803E-03  0.5335E-01
     -2.960  0.1066E-02  0.5345E-01
     -2.866  0.4106E-02  0.5384E-01
     -2.772  0.1030E-01  0.5481E-01
     -2.677  0.1686E-01  0.5640E-01
     -2.583  0.1800E-01  0.5809E-01
     -2.489  0.1253E-01  0.5927E-01
     -2.395  0.5691E-02  0.5981E-01
     -2.301  0.1685E-02  0.5997E-01
     -2.207  0.3248E-03  0.6000E-01
     -2.113  0.4076E-04  0.6000E-01
     -2.018  0.3324E-05  0.6000E-01
     -1.924  0.1763E-06  0.6000E-01
     -1.830  0.1770E-07  0.6000E-01
     -1.736  0.3132E-06  0.6000E-01
     -1.642  0.5458E-05  0.6000E-01
     -1.548  0.6180E-04  0.6001E-01
     -1.453  0.4549E-03  0.6005E-01
     -1.359  0.2179E-02  0.6025E-01
     -1.265  0.6801E-02  0.6089E-01
     -1.171  0.1384E-01  0.6220E-01
     -1.077  0.1836E-01  0.6393E-01
     -0.983  0.1590E-01  0.6542E-01
     -0.889  0.8992E-02  0.6627E-01
     -0.794  0.3463E-02  0.6660E-01
     -0.700  0.1756E-02  0.6676E-01
     -0.606  0.3936E-02  0.6713E-01
     -0.512  0.9851E-02  0.6806E-01
     -0.418  0.1660E-01  0.6962E-01
     -0.324  0.1855E-01  0.7137E-01
     -0.229  0.1495E-01  0.7278E-01
     -0.135  0.1239E-01  0.7394E-01
     -0.041  0.1514E-01  0.7537E-01
      0.053  0.1860E-01  0.7712E-01
      0.147  0.1637E-01  0.7866E-01
      0.241  0.9532E-02  0.7956E-01
      0.335  0.3627E-02  0.7990E-01
      0.430  0.8998E-03  0.7998E-01
      0.524  0.1453E-03  0.8000E-01
      0.618  0.1527E-04  0.8000E-01
      0.712  0.1043E-05  0.8000E-01
      0.806  0.4620E-07  0.8000E-01
      0.900  0.1327E-08  0.8000E-01
      0.995  0.2470E-10  0.8000E-01
      1.089  0.2974E-12  0.8000E-01
      1.183  0.2311E-14  0.8000E-01
      1.277  0.1572E-16  0.8000E-01
      1.371  0.0000E+00  0.8000E-01
      1.465  0.0000E+00  0.8000E-01
      1.559  0.0000E+00  0.8000E-01
      1.654  0.0000E+00  0.8000E-01
      1.748  0.0000E+00  0.8000E-01
      1.842  0.0000E+00  0.8000E-01
      1.936  0.0000E+00  0.8000E-01
      2.030  0.0000E+00  0.8000E-01
