    6    6  300    1
  0.4500000E+04  0.3000000E-08  0.3000000E-08  0.3000000E-08  0.0000000E+00
  1.000000000000000E-004
  CAR 
 unknown system                          
     16      4     12
 
  0.2500000E+00  0.2500000E+00  0.2500000E+00  0.2500000E+00
    1      -24.216224   1.000000
    2      -18.071000   1.000000
    3      -13.008797   1.000000
    4      -11.477962   1.000000
    5      -11.356598   1.000000
    6       -9.079868   1.000000
    7       -8.286627   1.000000
    8       -7.327810   1.000000
    9       -2.663094   0.000000
   10       -1.108636   0.000000
   11       -0.397282   0.000000
   12        0.025983   0.000000
 
 -0.2500000E+00  0.2500000E+00  0.2500000E+00  0.2500000E+00
    1      -24.216224   1.000000
    2      -18.070999   1.000000
    3      -13.008801   1.000000
    4      -11.477961   1.000000
    5      -11.356602   1.000000
    6       -9.079867   1.000000
    7       -8.286633   1.000000
    8       -7.327814   1.000000
    9       -2.663090   0.000000
   10       -1.108635   0.000000
   11       -0.397282   0.000000
   12        0.029477   0.000000
 
  0.2500000E+00 -0.2500000E+00  0.2500000E+00  0.2500000E+00
    1      -24.216224   1.000000
    2      -18.071000   1.000000
    3      -13.008796   1.000000
    4      -11.477961   1.000000
    5      -11.356600   1.000000
    6       -9.079861   1.000000
    7       -8.286627   1.000000
    8       -7.327810   1.000000
    9       -2.663090   0.000000
   10       -1.108644   0.000000
   11       -0.397282   0.000000
   12        0.028409   0.000000
 
 -0.2500000E+00 -0.2500000E+00  0.2500000E+00  0.2500000E+00
    1      -24.216223   1.000000
    2      -18.071002   1.000000
    3      -13.008793   1.000000
    4      -11.477965   1.000000
    5      -11.356599   1.000000
    6       -9.079859   1.000000
    7       -8.286631   1.000000
    8       -7.327808   1.000000
    9       -2.663090   0.000000
   10       -1.108636   0.000000
   11       -0.397281   0.000000
   12        0.030272   0.000000
