       N       E                     dE             d eps       ncg     rms          rms(c)
DAV:   1     0.109546784348E+03    0.10955E+03   -0.21370E+03   160   0.366E+02
DAV:   2    -0.306432274044E+01   -0.11261E+03   -0.10946E+03   192   0.103E+02
DAV:   3    -0.344290418515E+02   -0.31365E+02   -0.31231E+02   128   0.885E+01
DAV:   4    -0.376477277447E+02   -0.32187E+01   -0.31724E+01   112   0.304E+01
DAV:   5    -0.377481124723E+02   -0.10038E+00   -0.99210E-01   132   0.530E+00    0.107E+01
DAV:   6    -0.352106896923E+02    0.25374E+01   -0.44926E+00   128   0.156E+01    0.572E+00
DAV:   7    -0.346007528212E+02    0.60994E+00   -0.13356E+00   128   0.857E+00    0.247E+00
DAV:   8    -0.345103337783E+02    0.90419E-01   -0.23988E-01   128   0.367E+00    0.919E-01
DAV:   9    -0.344949653004E+02    0.15368E-01   -0.30337E-02   120   0.146E+00    0.228E-01
DAV:  10    -0.344946162273E+02    0.34907E-03   -0.38357E-03   128   0.537E-01    0.119E-01
DAV:  11    -0.344962557606E+02   -0.16395E-02   -0.11579E-03    96   0.263E-01    0.671E-02
DAV:  12    -0.344997026379E+02   -0.34469E-02   -0.14610E-03   112   0.257E-01    0.387E-02
DAV:  13    -0.345038536355E+02   -0.41510E-02   -0.97126E-04   144   0.176E-01    0.260E-02
DAV:  14    -0.345077603808E+02   -0.39067E-02   -0.49292E-04   128   0.113E-01    0.145E-02
DAV:  15    -0.345095397984E+02   -0.17794E-02   -0.15284E-04   120   0.602E-02    0.955E-03
DAV:  16    -0.345115444441E+02   -0.20046E-02   -0.20492E-04   128   0.650E-02    0.546E-03
DAV:  17    -0.345121833623E+02   -0.63892E-03   -0.27942E-05    96   0.290E-02    0.296E-03
DAV:  18    -0.345125639086E+02   -0.38055E-03   -0.30385E-05    92   0.264E-02    0.242E-03
DAV:  19    -0.345127274533E+02   -0.16354E-03   -0.10899E-05    96   0.169E-02    0.104E-03
DAV:  20    -0.345128011983E+02   -0.73745E-04   -0.42705E-06    88   0.130E-02
   1 F= -.34512801E+02 E0= -.34512801E+02  d E =-.345128E+02
       N       E                     dE             d eps       ncg     rms          rms(c)
DAV:   1    -0.345184972403E+02   -0.57698E-02   -0.14625E-02   104   0.117E+00    0.420E-02
DAV:   2    -0.345184804220E+02    0.16818E-04   -0.15356E-04   128   0.960E-02    0.237E-02
DAV:   3    -0.345185059876E+02   -0.25566E-04   -0.10498E-05    84   0.340E-02    0.582E-03
DAV:   4    -0.345185128808E+02   -0.68932E-05   -0.28291E-06    88   0.155E-02    0.256E-03
DAV:   5    -0.345185177301E+02   -0.48493E-05   -0.68249E-07    76   0.675E-03    0.961E-04
DAV:   6    -0.345185216533E+02   -0.39233E-05   -0.21234E-07    72   0.358E-03
   2 F= -.34518522E+02 E0= -.34518522E+02  d E =-.572045E-02
       N       E                     dE             d eps       ncg     rms          rms(c)
DAV:   1    -0.345293214174E+02   -0.10804E-01   -0.55988E-02    96   0.230E+00    0.816E-02
DAV:   2    -0.345292353164E+02    0.86101E-04   -0.55195E-04   116   0.188E-01    0.451E-02
DAV:   3    -0.345292765357E+02   -0.41219E-04   -0.36446E-05    84   0.551E-02    0.112E-02
DAV:   4    -0.345292869961E+02   -0.10460E-04   -0.91974E-06    80   0.257E-02    0.436E-03
DAV:   5    -0.345292901566E+02   -0.31605E-05   -0.20693E-06    80   0.118E-02    0.155E-03
DAV:   6    -0.345292920206E+02   -0.18640E-05   -0.77025E-07    80   0.648E-03
   3 F= -.34529292E+02 E0= -.34529292E+02  d E =-.107704E-01
       N       E                     dE             d eps       ncg     rms          rms(c)
DAV:   1    -0.345440741959E+02   -0.14784E-01   -0.10763E-01    96   0.319E+00    0.114E-01
DAV:   2    -0.345439054663E+02    0.16873E-03   -0.10532E-03    96   0.265E-01    0.627E-02
DAV:   3    -0.345439653690E+02   -0.59903E-04   -0.84646E-05    92   0.839E-02    0.167E-02
DAV:   4    -0.345439862573E+02   -0.20888E-04   -0.19650E-05    96   0.395E-02    0.640E-03
DAV:   5    -0.345439921931E+02   -0.59357E-05   -0.37185E-06    88   0.181E-02    0.190E-03
DAV:   6    -0.345439951659E+02   -0.29728E-05   -0.14479E-06    72   0.930E-03
   4 F= -.34543995E+02 E0= -.34543995E+02  d E =-.147031E-01
       N       E                     dE             d eps       ncg     rms          rms(c)
DAV:   1    -0.345610424145E+02   -0.17050E-01   -0.13628E-01    96   0.355E+00    0.132E-01
DAV:   2    -0.345608320076E+02    0.21041E-03   -0.12809E-03   112   0.284E-01    0.717E-02
DAV:   3    -0.345609173725E+02   -0.85365E-04   -0.78356E-05    80   0.831E-02    0.170E-02
DAV:   4    -0.345609403402E+02   -0.22968E-04   -0.20534E-05    64   0.381E-02    0.662E-03
DAV:   5    -0.345609479561E+02   -0.76159E-05   -0.47204E-06    60   0.174E-02    0.226E-03
DAV:   6    -0.345609526919E+02   -0.47358E-05   -0.17456E-06    52   0.904E-03
   5 F= -.34560953E+02 E0= -.34560953E+02  d E =-.169575E-01
       N       E                     dE             d eps       ncg     rms          rms(c)
DAV:   1    -0.345776830058E+02   -0.16735E-01   -0.14223E-01    96   0.361E+00    0.140E-01
DAV:   2    -0.345774262204E+02    0.25679E-03   -0.12723E-03   112   0.295E-01    0.742E-02
DAV:   3    -0.345775141911E+02   -0.87971E-04   -0.10009E-04    80   0.939E-02    0.189E-02
DAV:   4    -0.345775430056E+02   -0.28814E-04   -0.23706E-05    64   0.434E-02    0.739E-03
DAV:   5    -0.345775530513E+02   -0.10046E-04   -0.44373E-06    76   0.198E-02    0.195E-03
DAV:   6    -0.345775580680E+02   -0.50167E-05   -0.16835E-06    56   0.976E-03
   6 F= -.34577558E+02 E0= -.34577558E+02  d E =-.166054E-01
       N       E                     dE             d eps       ncg     rms          rms(c)
DAV:   1    -0.345907899248E+02   -0.13237E-01   -0.10668E-01    96   0.308E+00    0.127E-01
DAV:   2    -0.345905615877E+02    0.22834E-03   -0.89280E-04   112   0.252E-01    0.659E-02
DAV:   3    -0.345906432803E+02   -0.81693E-04   -0.78792E-05    80   0.845E-02    0.166E-02
DAV:   4    -0.345906671659E+02   -0.23886E-04   -0.18567E-05    64   0.387E-02    0.683E-03
DAV:   5    -0.345906768579E+02   -0.96921E-05   -0.34396E-06    64   0.175E-02    0.166E-03
DAV:   6    -0.345906819180E+02   -0.50601E-05   -0.12723E-06    48   0.839E-03
   7 F= -.34590682E+02 E0= -.34590682E+02  d E =-.131239E-01
       N       E                     dE             d eps       ncg     rms          rms(c)
DAV:   1    -0.345901965194E+02    0.48034E-03   -0.16208E-04    64   0.128E-01    0.378E-03
DAV:   2    -0.345901993133E+02   -0.27938E-05   -0.67917E-06    48   0.262E-02    0.191E-03
DAV:   3    -0.345902020341E+02   -0.27208E-05   -0.94270E-07    64   0.842E-03    0.110E-03
DAV:   4    -0.345902052123E+02   -0.31783E-05   -0.36093E-07    64   0.419E-03    0.389E-04
DAV:   5    -0.345902072216E+02   -0.20093E-05   -0.15844E-07    48   0.221E-03    0.249E-04
DAV:   6    -0.345902099814E+02   -0.27598E-05   -0.17196E-07    96   0.166E-03
   8 F= -.34590210E+02 E0= -.34590210E+02  d E =0.471937E-03
       N       E                     dE             d eps       ncg     rms          rms(c)
DAV:   1    -0.345895940952E+02    0.61313E-03   -0.36325E-04    96   0.188E-01    0.528E-03
DAV:   2    -0.345895944956E+02   -0.40038E-06   -0.38038E-06    48   0.184E-02    0.294E-03
DAV:   3    -0.345895952171E+02   -0.72152E-06   -0.54861E-07    52   0.672E-03    0.136E-03
DAV:   4    -0.345895959774E+02   -0.76026E-06   -0.18465E-07    88   0.366E-03    0.313E-04
DAV:   5    -0.345895962922E+02   -0.31483E-06   -0.56050E-08    52   0.171E-03    0.212E-04
DAV:   6    -0.345895966749E+02   -0.38275E-06   -0.33995E-08    52   0.103E-03
   9 F= -.34589597E+02 E0= -.34589597E+02  d E =0.613306E-03
       N       E                     dE             d eps       ncg     rms          rms(c)
DAV:   1    -0.345898494905E+02   -0.25320E-03   -0.30056E-05    48   0.549E-02    0.196E-03
DAV:   2    -0.345898496258E+02   -0.13537E-06   -0.12295E-06    48   0.117E-02    0.105E-03
DAV:   3    -0.345898498135E+02   -0.18770E-06   -0.18871E-07    48   0.383E-03    0.388E-04
DAV:   4    -0.345898499468E+02   -0.13325E-06   -0.63907E-08    84   0.175E-03    0.185E-04
DAV:   5    -0.345898500851E+02   -0.13834E-06   -0.34399E-08    68   0.866E-04    0.621E-05
DAV:   6    -0.345898501578E+02   -0.72641E-07   -0.24627E-08    48   0.499E-04
  10 F= -.34589850E+02 E0= -.34589850E+02  d E =-.253483E-03
       N       E                     dE             d eps       ncg     rms          rms(c)
DAV:   1    -0.345907017285E+02   -0.85164E-03   -0.32656E-04    96   0.178E-01    0.607E-03
DAV:   2    -0.345907012690E+02    0.45953E-06   -0.41470E-06    64   0.175E-02    0.346E-03
DAV:   3    -0.345907015733E+02   -0.30436E-06   -0.10122E-06    92   0.908E-03    0.101E-03
DAV:   4    -0.345907016410E+02   -0.67722E-07   -0.26311E-07    48   0.414E-03    0.597E-04
DAV:   5    -0.345907016849E+02   -0.43835E-07   -0.90536E-08    48   0.211E-03    0.158E-04
DAV:   6    -0.345907017132E+02   -0.28313E-07   -0.45235E-08    48   0.107E-03
  11 F= -.34590702E+02 E0= -.34590702E+02  d E =-.851555E-03
       N       E                     dE             d eps       ncg     rms          rms(c)
DAV:   1    -0.345925331394E+02   -0.18315E-02   -0.14772E-03    96   0.378E-01    0.127E-02
DAV:   2    -0.345925312401E+02    0.18993E-05   -0.18658E-05    64   0.371E-02    0.728E-03
DAV:   3    -0.345925324205E+02   -0.11804E-05   -0.44339E-06    64   0.191E-02    0.212E-03
DAV:   4    -0.345925326233E+02   -0.20281E-06   -0.11122E-06    48   0.869E-03    0.124E-03
DAV:   5    -0.345925326867E+02   -0.63368E-07   -0.32380E-07    48   0.441E-03    0.348E-04
DAV:   6    -0.345925327361E+02   -0.49474E-07   -0.12158E-07    48   0.229E-03
  12 F= -.34592533E+02 E0= -.34592533E+02  d E =-.183102E-02
       N       E                     dE             d eps       ncg     rms          rms(c)
DAV:   1    -0.345953361068E+02   -0.28034E-02   -0.34570E-03    96   0.579E-01    0.193E-02
DAV:   2    -0.345953319017E+02    0.42051E-05   -0.42572E-05    64   0.559E-02    0.110E-02
DAV:   3    -0.345953347096E+02   -0.28079E-05   -0.99092E-06    72   0.283E-02    0.313E-03
DAV:   4    -0.345953351691E+02   -0.45950E-06   -0.24737E-06    48   0.128E-02    0.184E-03
DAV:   5    -0.345953353361E+02   -0.16699E-06   -0.71003E-07    52   0.655E-03    0.530E-04
DAV:   6    -0.345953354595E+02   -0.12340E-06   -0.24590E-07    48   0.344E-03
  13 F= -.34595335E+02 E0= -.34595335E+02  d E =-.280272E-02
       N       E                     dE             d eps       ncg     rms          rms(c)
DAV:   1    -0.345991001004E+02   -0.37648E-02   -0.62571E-03    96   0.779E-01    0.257E-02
DAV:   2    -0.345990927012E+02    0.73992E-05   -0.74026E-05    72   0.734E-02    0.146E-02
DAV:   3    -0.345990978942E+02   -0.51930E-05   -0.16725E-05    64   0.363E-02    0.400E-03
DAV:   4    -0.345990987060E+02   -0.81180E-06   -0.41833E-06    48   0.163E-02    0.234E-03
DAV:   5    -0.345990990305E+02   -0.32446E-06   -0.12211E-06    56   0.842E-03    0.702E-04
DAV:   6    -0.345990992592E+02   -0.22877E-06   -0.41314E-07    48   0.445E-03
  14 F= -.34599099E+02 E0= -.34599099E+02  d E =-.376380E-02
       N       E                     dE             d eps       ncg     rms          rms(c)
DAV:   1    -0.346038150434E+02   -0.47160E-02   -0.98882E-03    96   0.979E-01    0.321E-02
DAV:   2    -0.346038054878E+02    0.95556E-05   -0.13183E-04   112   0.900E-02    0.189E-02
DAV:   3    -0.346038114513E+02   -0.59635E-05   -0.78211E-06    64   0.286E-02    0.544E-03
DAV:   4    -0.346038129738E+02   -0.15226E-05   -0.21268E-06    48   0.132E-02    0.213E-03
DAV:   5    -0.346038133899E+02   -0.41608E-06   -0.52725E-07    48   0.597E-03    0.843E-04
DAV:   6    -0.346038137762E+02   -0.38623E-06   -0.18546E-07    48   0.308E-03
  15 F= -.34603814E+02 E0= -.34603814E+02  d E =-.471452E-02
       N       E                     dE             d eps       ncg     rms          rms(c)
DAV:   1    -0.346101426635E+02   -0.63293E-02   -0.17996E-02    96   0.132E+00    0.430E-02
DAV:   2    -0.346101244035E+02    0.18260E-04   -0.22715E-04   104   0.118E-01    0.249E-02
DAV:   3    -0.346101352441E+02   -0.10841E-04   -0.11716E-05    64   0.340E-02    0.689E-03
DAV:   4    -0.346101379054E+02   -0.26613E-05   -0.34361E-06    48   0.159E-02    0.259E-03
DAV:   5    -0.346101386101E+02   -0.70467E-06   -0.86459E-07    48   0.733E-03    0.105E-03
DAV:   6    -0.346101393186E+02   -0.70856E-06   -0.30198E-07    48   0.371E-03
  16 F= -.34610139E+02 E0= -.34610139E+02  d E =-.632554E-02
       N       E                     dE             d eps       ncg     rms          rms(c)
DAV:   1    -0.346184620063E+02   -0.83234E-02   -0.31581E-02    96   0.175E+00    0.567E-02
DAV:   2    -0.346184290667E+02    0.32940E-04   -0.38309E-04    96   0.155E-01    0.326E-02
DAV:   3    -0.346184465668E+02   -0.17500E-04   -0.18832E-05    80   0.412E-02    0.891E-03
DAV:   4    -0.346184512713E+02   -0.47045E-05   -0.56967E-06    56   0.198E-02    0.317E-03
DAV:   5    -0.346184524389E+02   -0.11676E-05   -0.14244E-06    48   0.929E-03    0.126E-03
DAV:   6    -0.346184536026E+02   -0.11637E-05   -0.48531E-07    48   0.470E-03
  17 F= -.34618454E+02 E0= -.34618454E+02  d E =-.831428E-02
       N       E                     dE             d eps       ncg     rms          rms(c)
DAV:   1    -0.346292143674E+02   -0.10762E-01   -0.53652E-02    96   0.228E+00    0.738E-02
DAV:   2    -0.346291566946E+02    0.57673E-04   -0.63162E-04    96   0.200E-01    0.421E-02
DAV:   3    -0.346291834190E+02   -0.26724E-04   -0.33872E-05    80   0.535E-02    0.118E-02
DAV:   4    -0.346291917178E+02   -0.82987E-05   -0.98872E-06    64   0.266E-02    0.402E-03
DAV:   5    -0.346291937773E+02   -0.20595E-05   -0.23063E-06    48   0.124E-02    0.143E-03
DAV:   6    -0.346291954239E+02   -0.16466E-05   -0.76665E-07    56   0.631E-03
  18 F= -.34629195E+02 E0= -.34629195E+02  d E =-.107418E-01
       N       E                     dE             d eps       ncg     rms          rms(c)
DAV:   1    -0.346428582294E+02   -0.13664E-01   -0.87680E-02    96   0.292E+00    0.945E-02
DAV:   2    -0.346427615385E+02    0.96691E-04   -0.10074E-03    96   0.255E-01    0.535E-02
DAV:   3    -0.346427990366E+02   -0.37498E-04   -0.61088E-05    92   0.714E-02    0.156E-02
DAV:   4    -0.346428134514E+02   -0.14415E-04   -0.16910E-05    64   0.360E-02    0.523E-03
DAV:   5    -0.346428172160E+02   -0.37646E-05   -0.35881E-06    64   0.167E-02    0.162E-03
DAV:   6    -0.346428196172E+02   -0.24012E-05   -0.11723E-06    48   0.810E-03
  19 F= -.34642820E+02 E0= -.34642820E+02  d E =-.136242E-01
       N       E                     dE             d eps       ncg     rms          rms(c)
DAV:   1    -0.346598441528E+02   -0.17027E-01   -0.13710E-01    96   0.365E+00    0.119E-01
DAV:   2    -0.346596912229E+02    0.15293E-03   -0.15381E-03    96   0.318E-01    0.667E-02
DAV:   3    -0.346597445486E+02   -0.53326E-04   -0.12045E-04   128   0.917E-02    0.204E-02
DAV:   4    -0.346597650656E+02   -0.20517E-04   -0.10362E-05    64   0.306E-02    0.671E-03
DAV:   5    -0.346597712390E+02   -0.61733E-05   -0.23740E-06    64   0.144E-02    0.162E-03
DAV:   6    -0.346597750276E+02   -0.37886E-05   -0.70915E-07    48   0.643E-03
  20 F= -.34659775E+02 E0= -.34659775E+02  d E =-.169554E-01
       N       E                     dE             d eps       ncg     rms          rms(c)
DAV:   1    -0.346806012758E+02   -0.20830E-01   -0.20359E-01    96   0.445E+00    0.145E-01
DAV:   2    -0.346803755304E+02    0.22575E-03   -0.22022E-03    96   0.381E-01    0.812E-02
DAV:   3    -0.346804491800E+02   -0.73650E-04   -0.17042E-04   128   0.109E-01    0.243E-02
DAV:   4    -0.346804785715E+02   -0.29392E-04   -0.14848E-05    64   0.364E-02    0.809E-03
DAV:   5    -0.346804879467E+02   -0.93751E-05   -0.34225E-06    64   0.172E-02    0.195E-03
DAV:   6    -0.346804933764E+02   -0.54297E-05   -0.10252E-06    48   0.761E-03
  21 F= -.34680493E+02 E0= -.34680493E+02  d E =-.207183E-01
       N       E                     dE             d eps       ncg     rms          rms(c)
DAV:   1    -0.347054756061E+02   -0.24988E-01   -0.28639E-01    96   0.526E+00    0.174E-01
DAV:   2    -0.347051681974E+02    0.30741E-03   -0.29781E-03    96   0.440E-01    0.963E-02
DAV:   3    -0.347052692583E+02   -0.10106E-03   -0.21150E-04   128   0.121E-01    0.271E-02
DAV:   4    -0.347053071767E+02   -0.37918E-04   -0.19749E-05    64   0.408E-02    0.927E-03
DAV:   5    -0.347053201216E+02   -0.12945E-04   -0.45893E-06    64   0.193E-02    0.235E-03
DAV:   6    -0.347053267173E+02   -0.65957E-05   -0.13537E-06    48   0.849E-03
  22 F= -.34705327E+02 E0= -.34705327E+02  d E =-.248333E-01
       N       E                     dE             d eps       ncg     rms          rms(c)
DAV:   1    -0.347345419339E+02   -0.29222E-01   -0.38446E-01    96   0.608E+00    0.204E-01
DAV:   2    -0.347341360656E+02    0.40587E-03   -0.38129E-03    96   0.496E-01    0.112E-01
DAV:   3    -0.347342676846E+02   -0.13162E-03   -0.25192E-04   124   0.132E-01    0.296E-02
DAV:   4    -0.347343145581E+02   -0.46874E-04   -0.26311E-05    64   0.460E-02    0.105E-02
DAV:   5    -0.347343308833E+02   -0.16325E-04   -0.59077E-06    64   0.218E-02    0.297E-03
DAV:   6    -0.347343394586E+02   -0.85753E-05   -0.18713E-06    48   0.971E-03
  23 F= -.34734339E+02 E0= -.34734339E+02  d E =-.290127E-01
       N       E                     dE             d eps       ncg     rms          rms(c)
DAV:   1    -0.347671554168E+02   -0.32825E-01   -0.49286E-01    96   0.686E+00    0.235E-01
DAV:   2    -0.347665823302E+02    0.57309E-03   -0.45610E-03    96   0.550E-01    0.126E-01
DAV:   3    -0.347667455676E+02   -0.16324E-03   -0.32640E-04   128   0.151E-01    0.336E-02
DAV:   4    -0.347668072187E+02   -0.61651E-04   -0.32669E-05    64   0.515E-02    0.120E-02
DAV:   5    -0.347668287039E+02   -0.21485E-04   -0.74684E-06    64   0.244E-02    0.303E-03
DAV:   6    -0.347668394755E+02   -0.10772E-04   -0.22184E-06    48   0.105E-02
  24 F= -.34766839E+02 E0= -.34766839E+02  d E =-.325000E-01
       N       E                     dE             d eps       ncg     rms          rms(c)
DAV:   1    -0.348012168397E+02   -0.34388E-01   -0.57575E-01    96   0.739E+00    0.259E-01
DAV:   2    -0.348004202628E+02    0.79658E-03   -0.50094E-03   112   0.595E-01    0.136E-01
DAV:   3    -0.348005984369E+02   -0.17817E-03   -0.46673E-04   128   0.185E-01    0.397E-02
DAV:   4    -0.348006821105E+02   -0.83674E-04   -0.42759E-05    80   0.619E-02    0.147E-02
DAV:   5    -0.348007098801E+02   -0.27770E-04   -0.10165E-05    80   0.299E-02    0.336E-03
DAV:   6    -0.348007277512E+02   -0.17871E-04   -0.33528E-06    64   0.132E-02
  25 F= -.34800728E+02 E0= -.34800728E+02  d E =-.338883E-01
       N       E                     dE             d eps       ncg     rms          rms(c)
DAV:   1    -0.348005430367E+02    0.16684E-03   -0.52477E-05    80   0.712E-02    0.235E-03
DAV:   2    -0.348005516069E+02   -0.85702E-05   -0.31689E-06    52   0.167E-02    0.139E-03
DAV:   3    -0.348005613816E+02   -0.97747E-05   -0.97999E-07    64   0.679E-03    0.892E-04
DAV:   4    -0.348005722489E+02   -0.10867E-04   -0.77984E-07    96   0.405E-03    0.483E-04
DAV:   5    -0.348005822149E+02   -0.99660E-05   -0.64063E-07    64   0.319E-03    0.310E-04
DAV:   6    -0.348005926946E+02   -0.10480E-04   -0.93769E-07    84   0.323E-03
  26 F= -.34800593E+02 E0= -.34800593E+02  d E =0.135057E-03
       N       E                     dE             d eps       ncg     rms          rms(c)
DAV:   1    -0.348002732572E+02    0.30896E-03   -0.18134E-04    64   0.133E-01    0.387E-03
DAV:   2    -0.348002744588E+02   -0.12016E-05   -0.85936E-06    96   0.302E-02    0.197E-03
DAV:   3    -0.348002751875E+02   -0.72874E-06   -0.11349E-06    68   0.974E-03    0.123E-03
DAV:   4    -0.348002759123E+02   -0.72481E-06   -0.28406E-07    64   0.449E-03    0.474E-04
DAV:   5    -0.348002764245E+02   -0.51219E-06   -0.93589E-08    68   0.221E-03    0.183E-04
DAV:   6    -0.348002767760E+02   -0.35150E-06   -0.42326E-08    56   0.121E-03
  27 F= -.34800277E+02 E0= -.34800277E+02  d E =0.315919E-03
       N       E                     dE             d eps       ncg     rms          rms(c)
DAV:   1    -0.347999327431E+02    0.34368E-03   -0.36366E-04   112   0.184E-01    0.534E-03
DAV:   2    -0.347999326626E+02    0.80503E-07   -0.37050E-06    64   0.178E-02    0.299E-03
DAV:   3    -0.347999329241E+02   -0.26149E-06   -0.59898E-07    48   0.709E-03    0.114E-03
DAV:   4    -0.347999330975E+02   -0.17337E-06   -0.15043E-07    72   0.329E-03    0.358E-04
DAV:   5    -0.347999331897E+02   -0.92290E-07   -0.49710E-08    48   0.154E-03    0.156E-04
DAV:   6    -0.347999332571E+02   -0.67348E-07   -0.29037E-08    76   0.808E-04
  28 F= -.34799933E+02 E0= -.34799933E+02  d E =0.343519E-03
       N       E                     dE             d eps       ncg     rms          rms(c)
DAV:   1    -0.347996993463E+02    0.23384E-03   -0.55291E-04    96   0.226E-01    0.714E-03
DAV:   2    -0.347996988959E+02    0.45046E-06   -0.55112E-06    84   0.218E-02    0.389E-03
DAV:   3    -0.347996991568E+02   -0.26090E-06   -0.91246E-07    64   0.884E-03    0.143E-03
DAV:   4    -0.347996992840E+02   -0.12729E-06   -0.22140E-07    48   0.409E-03    0.476E-04
DAV:   5    -0.347996993312E+02   -0.47160E-07   -0.70618E-08    60   0.187E-03    0.194E-04
DAV:   6    -0.347996993737E+02   -0.42473E-07   -0.39785E-08    48   0.978E-04
  29 F= -.34799699E+02 E0= -.34799699E+02  d E =0.233883E-03
       N       E                     dE             d eps       ncg     rms          rms(c)
DAV:   1    -0.347995634545E+02    0.13588E-03   -0.78795E-04    96   0.268E-01    0.892E-03
DAV:   2    -0.347995626632E+02    0.79127E-06   -0.76609E-06    64   0.258E-02    0.481E-03
DAV:   3    -0.347995630478E+02   -0.38456E-06   -0.13091E-06    52   0.106E-02    0.165E-03
DAV:   4    -0.347995632041E+02   -0.15633E-06   -0.30498E-07    48   0.485E-03    0.587E-04
DAV:   5    -0.347995632597E+02   -0.55616E-07   -0.94877E-08    48   0.224E-03    0.220E-04
DAV:   6    -0.347995633120E+02   -0.52261E-07   -0.49110E-08    48   0.118E-03
  30 F= -.34799563E+02 E0= -.34799563E+02  d E =0.136062E-03
       N       E                     dE             d eps       ncg     rms          rms(c)
DAV:   1    -0.347995090809E+02    0.54179E-04   -0.10505E-03    96   0.308E-01    0.106E-02
DAV:   2    -0.347995079865E+02    0.10945E-05   -0.97737E-06    64   0.291E-02    0.569E-03
DAV:   3    -0.347995085611E+02   -0.57461E-06   -0.16882E-06    48   0.121E-02    0.180E-03
DAV:   4    -0.347995087567E+02   -0.19558E-06   -0.38244E-07    48   0.542E-03    0.678E-04
DAV:   5    -0.347995088296E+02   -0.72893E-07   -0.11684E-07    48   0.256E-03    0.250E-04
DAV:   6    -0.347995088949E+02   -0.65367E-07   -0.56008E-08    48   0.136E-03
  31 F= -.34799509E+02 E0= -.34799509E+02  d E =0.544171E-04
       N       E                     dE             d eps       ncg     rms          rms(c)
DAV:   1    -0.347995191911E+02   -0.10362E-04   -0.16541E-03    96   0.385E-01    0.136E-02
DAV:   2    -0.347995174504E+02    0.17408E-05   -0.14607E-05    64   0.357E-02    0.727E-03
DAV:   3    -0.347995184487E+02   -0.99831E-06   -0.25550E-06    52   0.150E-02    0.216E-03
DAV:   4    -0.347995187243E+02   -0.27558E-06   -0.57770E-07    48   0.666E-03    0.837E-04
DAV:   5    -0.347995188208E+02   -0.96537E-07   -0.16798E-07    48   0.320E-03    0.321E-04
DAV:   6    -0.347995189036E+02   -0.82816E-07   -0.72336E-08    48   0.171E-03
  32 F= -.34799519E+02 E0= -.34799519E+02  d E =-.100087E-04
       N       E                     dE             d eps       ncg     rms          rms(c)
DAV:   1    -0.347995694389E+02   -0.50618E-04   -0.25586E-03    96   0.477E-01    0.173E-02
DAV:   2    -0.347995666951E+02    0.27438E-05   -0.21828E-05    64   0.440E-02    0.918E-03
DAV:   3    -0.347995682942E+02   -0.15990E-05   -0.39964E-06    64   0.192E-02    0.265E-03
DAV:   4    -0.347995686864E+02   -0.39217E-06   -0.91830E-07    48   0.851E-03    0.105E-03
DAV:   5    -0.347995688180E+02   -0.13162E-06   -0.24341E-07    48   0.406E-03    0.399E-04
DAV:   6    -0.347995689256E+02   -0.10765E-06   -0.97563E-08    48   0.219E-03
  33 F= -.34799569E+02 E0= -.34799569E+02  d E =-.500220E-04
       N       E                     dE             d eps       ncg     rms          rms(c)
DAV:   1    -0.347995993665E+02   -0.30548E-04   -0.38798E-03    96   0.586E-01    0.214E-02
DAV:   2    -0.347995951701E+02    0.41964E-05   -0.32881E-05    64   0.544E-02    0.114E-02
DAV:   3    -0.347995975821E+02   -0.24120E-05   -0.63198E-06    64   0.244E-02    0.332E-03
DAV:   4    -0.347995981473E+02   -0.56527E-06   -0.14580E-06    52   0.109E-02    0.134E-03
DAV:   5    -0.347995983363E+02   -0.18894E-06   -0.35094E-07    52   0.512E-03    0.486E-04
DAV:   6    -0.347995984869E+02   -0.15061E-06   -0.13485E-07    48   0.277E-03
  34 F= -.34799598E+02 E0= -.34799598E+02  d E =-.295613E-04
       N       E                     dE             d eps       ncg     rms          rms(c)
DAV:   1    -0.347994818194E+02    0.11652E-03   -0.56900E-03    96   0.710E-01    0.256E-02
DAV:   2    -0.347994761732E+02    0.56463E-05   -0.48592E-05    64   0.661E-02    0.137E-02
DAV:   3    -0.347994796104E+02   -0.34373E-05   -0.91239E-06    64   0.292E-02    0.406E-03
DAV:   4    -0.347994804437E+02   -0.83325E-06   -0.20609E-06    60   0.130E-02    0.161E-03
DAV:   5    -0.347994807135E+02   -0.26981E-06   -0.49205E-07    48   0.613E-03    0.585E-04
DAV:   6    -0.347994809189E+02   -0.20543E-06   -0.18161E-07    48   0.329E-03
  35 F= -.34799481E+02 E0= -.34799481E+02  d E =0.117568E-03
       N       E                     dE             d eps       ncg     rms          rms(c)
DAV:   1    -0.347989699501E+02    0.51076E-03   -0.80306E-03    96   0.848E-01    0.292E-02
DAV:   2    -0.347989636885E+02    0.62616E-05   -0.71337E-05    64   0.793E-02    0.156E-02
DAV:   3    -0.347989682051E+02   -0.45166E-05   -0.11830E-05    64   0.328E-02    0.493E-03
DAV:   4    -0.347989694710E+02   -0.12659E-05   -0.25471E-06    56   0.144E-02    0.183E-03
DAV:   5    -0.347989698305E+02   -0.35954E-06   -0.65366E-07    56   0.691E-03    0.696E-04
DAV:   6    -0.347989700861E+02   -0.25560E-06   -0.22984E-07    48   0.362E-03
  36 F= -.34798970E+02 E0= -.34798970E+02  d E =0.510833E-03
       N       E                     dE             d eps       ncg     rms          rms(c)
DAV:   1    -0.347976473851E+02    0.13224E-02   -0.10974E-02    96   0.100E+00    0.319E-02
DAV:   2    -0.347976417349E+02    0.56502E-05   -0.10604E-04    64   0.959E-02    0.173E-02
DAV:   3    -0.347976468430E+02   -0.51082E-05   -0.15598E-05    80   0.373E-02    0.621E-03
DAV:   4    -0.347976487490E+02   -0.19059E-05   -0.33023E-06    64   0.166E-02    0.205E-03
DAV:   5    -0.347976491737E+02   -0.42472E-06   -0.84518E-07    48   0.783E-03    0.819E-04
DAV:   6    -0.347976494679E+02   -0.29426E-06   -0.28050E-07    48   0.401E-03
  37 F= -.34797649E+02 E0= -.34797649E+02  d E =0.132062E-02
       N       E                     dE             d eps       ncg     rms          rms(c)
DAV:   1    -0.347949978990E+02    0.26513E-02   -0.14124E-02    96   0.115E+00    0.335E-02
DAV:   2    -0.347949965215E+02    0.13775E-05   -0.16291E-04    96   0.111E-01    0.193E-02
DAV:   3    -0.347950000560E+02   -0.35345E-05   -0.56442E-06    56   0.238E-02    0.861E-03
DAV:   4    -0.347950029047E+02   -0.28487E-05   -0.25878E-06    64   0.147E-02    0.172E-03
DAV:   5    -0.347950031667E+02   -0.26195E-06   -0.56172E-07    48   0.677E-03    0.831E-04
DAV:   6    -0.347950033701E+02   -0.20338E-06   -0.13882E-07    48   0.289E-03
  38 F= -.34795003E+02 E0= -.34795003E+02  d E =0.264610E-02
       N       E                     dE             d eps       ncg     rms          rms(c)
DAV:   1    -0.347906276206E+02    0.43755E-02   -0.18149E-02    96   0.131E+00    0.351E-02
DAV:   2    -0.347906300429E+02   -0.24223E-05   -0.21637E-04    96   0.127E-01    0.213E-02
DAV:   3    -0.347906340667E+02   -0.40238E-05   -0.79752E-06    64   0.275E-02    0.967E-03
DAV:   4    -0.347906371756E+02   -0.31089E-05   -0.32511E-06    64   0.166E-02    0.191E-03
DAV:   5    -0.347906374186E+02   -0.24301E-06   -0.72708E-07    48   0.769E-03    0.114E-03
DAV:   6    -0.347906376605E+02   -0.24191E-06   -0.19323E-07    48   0.355E-03
  39 F= -.34790638E+02 E0= -.34790638E+02  d E =0.436571E-02
       N       E                     dE             d eps       ncg     rms          rms(c)
DAV:   1    -0.347840797218E+02    0.65577E-02   -0.26496E-02    96   0.160E+00    0.414E-02
DAV:   2    -0.347840824414E+02   -0.27196E-05   -0.31454E-04    96   0.151E-01    0.250E-02
DAV:   3    -0.347840873744E+02   -0.49330E-05   -0.12579E-05    64   0.332E-02    0.116E-02
DAV:   4    -0.347840913423E+02   -0.39678E-05   -0.50627E-06    64   0.206E-02    0.236E-03
DAV:   5    -0.347840916399E+02   -0.29763E-06   -0.11319E-06    48   0.970E-03    0.147E-03
DAV:   6    -0.347840919755E+02   -0.33565E-06   -0.29988E-07    48   0.451E-03
  40 F= -.34784092E+02 E0= -.34784092E+02  d E =0.654568E-02
       N       E                     dE             d eps       ncg     rms          rms(c)
DAV:   1    -0.347746332174E+02    0.94584E-02   -0.45911E-02    96   0.212E+00    0.573E-02
DAV:   2    -0.347746228311E+02    0.10386E-04   -0.52044E-04    96   0.190E-01    0.329E-02
DAV:   3    -0.347746313478E+02   -0.85167E-05   -0.22969E-05    80   0.439E-02    0.143E-02
DAV:   4    -0.347746377487E+02   -0.64009E-05   -0.93611E-06    64   0.277E-02    0.309E-03
DAV:   5    -0.347746382666E+02   -0.51786E-06   -0.19312E-06    48   0.129E-02    0.192E-03
DAV:   6    -0.347746389951E+02   -0.72853E-06   -0.53899E-07    48   0.638E-03
  41 F= -.34774639E+02 E0= -.34774639E+02  d E =0.945298E-02
       N       E                     dE             d eps       ncg     rms          rms(c)
DAV:   1    -0.347610505542E+02    0.13588E-01   -0.88529E-02    96   0.293E+00    0.849E-02
DAV:   2    -0.347610017444E+02    0.48810E-04   -0.96880E-04   112   0.253E-01    0.480E-02
DAV:   3    -0.347610251334E+02   -0.23389E-04   -0.46545E-05    80   0.622E-02    0.172E-02
DAV:   4    -0.347610366051E+02   -0.11472E-04   -0.15457E-05    64   0.350E-02    0.456E-03
DAV:   5    -0.347610382071E+02   -0.16021E-05   -0.32165E-06    48   0.162E-02    0.233E-03
DAV:   6    -0.347610399744E+02   -0.17673E-05   -0.95906E-07    64   0.801E-03
  42 F= -.34761040E+02 E0= -.34761040E+02  d E =0.135990E-01
       N       E                     dE             d eps       ncg     rms          rms(c)
DAV:   1    -0.347412727307E+02    0.19765E-01   -0.18355E-01    96   0.421E+00    0.130E-01
DAV:   2    -0.347411332984E+02    0.13943E-03   -0.19652E-03    96   0.355E-01    0.732E-02
DAV:   3    -0.347411996480E+02   -0.66350E-04   -0.11508E-04   112   0.892E-02    0.223E-02
DAV:   4    -0.347412198323E+02   -0.20184E-04   -0.13279E-05    64   0.336E-02    0.724E-03
DAV:   5    -0.347412239391E+02   -0.41068E-05   -0.25288E-06    56   0.159E-02    0.270E-03
DAV:   6    -0.347412273950E+02   -0.34559E-05   -0.84298E-07    56   0.711E-03
  43 F= -.34741227E+02 E0= -.34741227E+02  d E =0.198126E-01
       N       E                     dE             d eps       ncg     rms          rms(c)
DAV:   1    -0.347122893312E+02    0.28935E-01   -0.40600E-01    96   0.624E+00    0.203E-01
DAV:   2    -0.347119239207E+02    0.36541E-03   -0.42171E-03    96   0.524E-01    0.113E-01
DAV:   3    -0.347120554657E+02   -0.13155E-03   -0.25705E-04   128   0.133E-01    0.326E-02
DAV:   4    -0.347121053336E+02   -0.49868E-04   -0.27971E-05    68   0.481E-02    0.108E-02
DAV:   5    -0.347121165321E+02   -0.11199E-04   -0.56440E-06    68   0.228E-02    0.338E-03
DAV:   6    -0.347121228697E+02   -0.63376E-05   -0.17745E-06    48   0.101E-02
  44 F= -.34712123E+02 E0= -.34712123E+02  d E =0.291045E-01
       N       E                     dE             d eps       ncg     rms          rms(c)
DAV:   1    -0.346699082554E+02    0.42208E-01   -0.89638E-01    96   0.926E+00    0.312E-01
DAV:   2    -0.346690418210E+02    0.86643E-03   -0.92227E-03    96   0.783E-01    0.172E-01
DAV:   3    -0.346692739581E+02   -0.23214E-03   -0.61529E-04   128   0.206E-01    0.502E-02
DAV:   4    -0.346693958463E+02   -0.12189E-03   -0.61486E-05    80   0.720E-02    0.165E-02
DAV:   5    -0.346694247446E+02   -0.28898E-04   -0.13569E-05    72   0.346E-02    0.439E-03
DAV:   6    -0.346694363313E+02   -0.11587E-04   -0.38487E-06    64   0.149E-02
  45 F= -.34669436E+02 E0= -.34669436E+02  d E =0.426865E-01
       N       E                     dE             d eps       ncg     rms          rms(c)
DAV:   1    -0.346097864007E+02    0.59638E-01   -0.17789E+00    96   0.130E+01    0.451E-01
DAV:   2    -0.346081906470E+02    0.15958E-02   -0.18473E-02    96   0.110E+00    0.249E-01
DAV:   3    -0.346085975007E+02   -0.40685E-03   -0.11748E-03   160   0.282E-01    0.694E-02
DAV:   4    -0.346088024330E+02   -0.20493E-03   -0.11654E-04    80   0.972E-02    0.241E-02
DAV:   5    -0.346088617887E+02   -0.59356E-04   -0.23556E-05    72   0.473E-02    0.673E-03
DAV:   6    -0.346088871938E+02   -0.25405E-04   -0.68595E-06    88   0.205E-02
  46 F= -.34608887E+02 E0= -.34608887E+02  d E =0.605491E-01
       N       E                     dE             d eps       ncg     rms          rms(c)
DAV:   1    -0.345456845410E+02    0.63177E-01   -0.24123E+00    96   0.151E+01    0.552E-01
DAV:   2    -0.345426895559E+02    0.29950E-02   -0.24876E-02   112   0.133E+00    0.299E-01
DAV:   3    -0.345431354241E+02   -0.44587E-03   -0.24654E-03   128   0.414E-01    0.102E-01
DAV:   4    -0.345434851241E+02   -0.34970E-03   -0.21787E-04    96   0.139E-01    0.343E-02
DAV:   5    -0.345436077520E+02   -0.12263E-03   -0.34340E-05    80   0.587E-02    0.817E-03
DAV:   6    -0.345436557319E+02   -0.47980E-04   -0.10304E-05    80   0.277E-02
  47 F= -.34543656E+02 E0= -.34543656E+02  d E =0.652315E-01
       N       E                     dE             d eps       ncg     rms          rms(c)
DAV:   1    -0.345475783533E+02   -0.39706E-02   -0.41216E-02    96   0.198E+00    0.826E-02
DAV:   2    -0.345475207318E+02    0.57621E-04   -0.74926E-04   112   0.261E-01    0.434E-02
DAV:   3    -0.345475168647E+02    0.38672E-05   -0.11780E-04    80   0.112E-01    0.201E-02
DAV:   4    -0.345475516796E+02   -0.34815E-04   -0.68296E-05    80   0.816E-02    0.846E-03
DAV:   5    -0.345475669929E+02   -0.15313E-04   -0.11246E-05    88   0.339E-02    0.397E-03
DAV:   6    -0.345475811611E+02   -0.14168E-04   -0.34952E-06    76   0.182E-02
  48 F= -.34547581E+02 E0= -.34547581E+02  d E =-.392543E-02
       N       E                     dE             d eps       ncg     rms          rms(c)
DAV:   1    -0.345535059899E+02   -0.59390E-02   -0.54385E-02    96   0.231E+00    0.786E-02
DAV:   2    -0.345534212713E+02    0.84719E-04   -0.90899E-04   112   0.275E-01    0.468E-02
DAV:   3    -0.345534067124E+02    0.14559E-04   -0.10518E-04    96   0.104E-01    0.242E-02
DAV:   4    -0.345534246345E+02   -0.17922E-04   -0.67146E-05    64   0.807E-02    0.907E-03
DAV:   5    -0.345534285578E+02   -0.39233E-05   -0.10725E-05    92   0.355E-02    0.315E-03
DAV:   6    -0.345534312888E+02   -0.27310E-05   -0.21102E-06    64   0.137E-02
  49 F= -.34553431E+02 E0= -.34553431E+02  d E =-.585013E-02
       N       E                     dE             d eps       ncg     rms          rms(c)
DAV:   1    -0.345542303644E+02   -0.80181E-03   -0.14860E-03   120   0.360E-01    0.175E-02
DAV:   2    -0.345542269207E+02    0.34437E-05   -0.26040E-05    80   0.524E-02    0.922E-03
DAV:   3    -0.345542277658E+02   -0.84507E-06   -0.96302E-06    84   0.315E-02    0.378E-03
DAV:   4    -0.345542297067E+02   -0.19409E-05   -0.35076E-06    72   0.178E-02    0.176E-03
DAV:   5    -0.345542308560E+02   -0.11493E-05   -0.61382E-07    72   0.791E-03    0.742E-04
DAV:   6    -0.345542317553E+02   -0.89935E-06   -0.20497E-07    80   0.419E-03
  50 F= -.34554232E+02 E0= -.34554232E+02  d E =-.800466E-03
       N       E                     dE             d eps       ncg     rms          rms(c)
DAV:   1    -0.345556095734E+02   -0.13787E-02   -0.44288E-03    96   0.620E-01    0.301E-02
DAV:   2    -0.345555941449E+02    0.15429E-04   -0.78904E-05    64   0.904E-02    0.158E-02
DAV:   3    -0.345555922673E+02    0.18776E-05   -0.27934E-05    96   0.533E-02    0.663E-03
DAV:   4    -0.345555937394E+02   -0.14721E-05   -0.10215E-05    80   0.303E-02    0.305E-03
DAV:   5    -0.345555939617E+02   -0.22232E-06   -0.17413E-06    92   0.134E-02    0.132E-03
DAV:   6    -0.345555941567E+02   -0.19497E-06   -0.56189E-07    84   0.706E-03
  51 F= -.34555594E+02 E0= -.34555594E+02  d E =-.136240E-02
       N       E                     dE             d eps       ncg     rms          rms(c)
DAV:   1    -0.345573892953E+02   -0.17953E-02   -0.57844E-03    96   0.708E-01    0.336E-02
DAV:   2    -0.345573705826E+02    0.18713E-04   -0.11203E-04    64   0.105E-01    0.181E-02
DAV:   3    -0.345573678322E+02    0.27504E-05   -0.35796E-05    96   0.603E-02    0.780E-03
DAV:   4    -0.345573696174E+02   -0.17852E-05   -0.13430E-05    64   0.345E-02    0.359E-03
DAV:   5    -0.345573700321E+02   -0.41476E-06   -0.22613E-06    80   0.154E-02    0.155E-03
DAV:   6    -0.345573705734E+02   -0.54124E-06   -0.80702E-07    64   0.828E-03
  52 F= -.34557371E+02 E0= -.34557371E+02  d E =-.177642E-02
       N       E                     dE             d eps       ncg     rms          rms(c)
DAV:   1    -0.345574992102E+02   -0.12918E-03   -0.16989E-05    48   0.417E-02    0.136E-03
DAV:   2    -0.345574995883E+02   -0.37814E-06   -0.89301E-07    48   0.956E-03    0.838E-04
DAV:   3    -0.345574998960E+02   -0.30772E-06   -0.12604E-07    48   0.320E-03    0.526E-04
DAV:   4    -0.345575003903E+02   -0.49429E-06   -0.89262E-08    64   0.238E-03    0.196E-04
DAV:   5    -0.345575005610E+02   -0.17071E-06   -0.38552E-08    48   0.116E-03    0.141E-04
DAV:   6    -0.345575009147E+02   -0.35366E-06   -0.34478E-08    64   0.739E-04
  53 F= -.34557501E+02 E0= -.34557501E+02  d E =-.130341E-03
       N       E                     dE             d eps       ncg     rms          rms(c)
DAV:   1    -0.345577486994E+02   -0.24814E-03   -0.62949E-05    48   0.799E-02    0.244E-03
DAV:   2    -0.345577489599E+02   -0.26047E-06   -0.26707E-06    68   0.170E-02    0.139E-03
DAV:   3    -0.345577491167E+02   -0.15681E-06   -0.29730E-07    48   0.521E-03    0.871E-04
DAV:   4    -0.345577493315E+02   -0.21478E-06   -0.16435E-07    96   0.358E-03    0.306E-04
DAV:   5    -0.345577494015E+02   -0.70056E-07   -0.57918E-08    48   0.167E-03    0.225E-04
DAV:   6    -0.345577495277E+02   -0.12619E-06   -0.39197E-08    60   0.879E-04
  54 F= -.34557750E+02 E0= -.34557750E+02  d E =-.248613E-03
       N       E                     dE             d eps       ncg     rms          rms(c)
DAV:   1    -0.345581046736E+02   -0.35527E-03   -0.13091E-04    48   0.115E-01    0.352E-03
DAV:   2    -0.345581048949E+02   -0.22128E-06   -0.55369E-06    80   0.245E-02    0.200E-03
DAV:   3    -0.345581049649E+02   -0.70038E-07   -0.59975E-07    64   0.752E-03    0.126E-03
DAV:   4    -0.345581050365E+02   -0.71612E-07   -0.31899E-07    80   0.517E-03    0.441E-04
DAV:   5    -0.345581050615E+02   -0.24945E-07   -0.99482E-08    48   0.240E-03    0.324E-04
DAV:   6    -0.345581051012E+02   -0.39719E-07   -0.56247E-08    64   0.124E-03
  55 F= -.34558105E+02 E0= -.34558105E+02  d E =-.355573E-03
       N       E                     dE             d eps       ncg     rms          rms(c)
DAV:   1    -0.345585542562E+02   -0.44919E-03   -0.21622E-04    80   0.146E-01    0.473E-03
DAV:   2    -0.345585538043E+02    0.45188E-06   -0.31214E-06    64   0.165E-02    0.266E-03
DAV:   3    -0.345585537612E+02    0.43065E-07   -0.58516E-07    68   0.724E-03    0.144E-03
DAV:   4    -0.345585537832E+02   -0.21972E-07   -0.29350E-07    48   0.472E-03    0.572E-04
DAV:   5    -0.345585537947E+02   -0.11482E-07   -0.80933E-08    48   0.226E-03    0.250E-04
DAV:   6    -0.345585538174E+02   -0.22648E-07   -0.45394E-08    48   0.988E-04
  56 F= -.34558554E+02 E0= -.34558554E+02  d E =-.448716E-03
       N       E                     dE             d eps       ncg     rms          rms(c)
DAV:   1    -0.345590809730E+02   -0.52718E-03   -0.29399E-04    96   0.170E-01    0.543E-03
DAV:   2    -0.345590804070E+02    0.56597E-06   -0.41664E-06    64   0.190E-02    0.306E-03
DAV:   3    -0.345590803533E+02    0.53759E-07   -0.75044E-07    48   0.829E-03    0.164E-03
DAV:   4    -0.345590803859E+02   -0.32649E-07   -0.36453E-07    48   0.539E-03    0.652E-04
DAV:   5    -0.345590804027E+02   -0.16766E-07   -0.87769E-08    48   0.257E-03    0.284E-04
DAV:   6    -0.345590804359E+02   -0.33193E-07   -0.42048E-08    48   0.113E-03
  57 F= -.34559080E+02 E0= -.34559080E+02  d E =-.526619E-03
       N       E                     dE             d eps       ncg     rms          rms(c)
DAV:   1    -0.345596695805E+02   -0.58918E-03   -0.35542E-04    96   0.187E-01    0.590E-03
DAV:   2    -0.345596689517E+02    0.62882E-06   -0.48796E-06    64   0.206E-02    0.330E-03
DAV:   3    -0.345596689062E+02    0.45426E-07   -0.86594E-07    48   0.890E-03    0.174E-03
DAV:   4    -0.345596689553E+02   -0.49060E-07   -0.41094E-07    48   0.575E-03    0.681E-04
DAV:   5    -0.345596689803E+02   -0.25012E-07   -0.94478E-08    48   0.275E-03    0.297E-04
DAV:   6    -0.345596690244E+02   -0.44085E-07   -0.42308E-08    48   0.123E-03
  58 F= -.34559669E+02 E0= -.34559669E+02  d E =-.588589E-03
       N       E                     dE             d eps       ncg     rms          rms(c)
DAV:   1    -0.345603713915E+02   -0.70241E-03   -0.47294E-04    96   0.216E-01    0.671E-03
DAV:   2    -0.345603706337E+02    0.75776E-06   -0.60893E-06    64   0.230E-02    0.370E-03
DAV:   3    -0.345603706116E+02    0.22168E-07   -0.10759E-06    48   0.987E-03    0.184E-03
DAV:   4    -0.345603706834E+02   -0.71837E-07   -0.48923E-07    48   0.628E-03    0.689E-04
DAV:   5    -0.345603707138E+02   -0.30409E-07   -0.10943E-07    48   0.303E-03    0.306E-04
DAV:   6    -0.345603707680E+02   -0.54179E-07   -0.46680E-08    48   0.141E-03
  59 F= -.34560371E+02 E0= -.34560371E+02  d E =-.701744E-03
       N       E                     dE             d eps       ncg     rms          rms(c)
DAV:   1    -0.345611692597E+02   -0.79855E-03   -0.53959E-04    96   0.230E-01    0.709E-03
DAV:   2    -0.345611685292E+02    0.73055E-06   -0.60873E-06    64   0.232E-02    0.376E-03
DAV:   3    -0.345611685865E+02   -0.57313E-07   -0.10997E-06    48   0.969E-03    0.168E-03
DAV:   4    -0.345611686832E+02   -0.96725E-07   -0.44288E-07    48   0.584E-03    0.555E-04
DAV:   5    -0.345611687218E+02   -0.38577E-07   -0.10694E-07    48   0.281E-03    0.262E-04
DAV:   6    -0.345611687844E+02   -0.62631E-07   -0.48163E-08    48   0.142E-03
  60 F= -.34561169E+02 E0= -.34561169E+02  d E =-.798016E-03
       N       E                     dE             d eps       ncg     rms          rms(c)
DAV:   1    -0.345620581557E+02   -0.88943E-03   -0.54856E-04    96   0.231E-01    0.686E-03
DAV:   2    -0.345620575973E+02    0.55848E-06   -0.53742E-06    52   0.213E-02    0.366E-03
DAV:   3    -0.345620578022E+02   -0.20493E-06   -0.99082E-07    48   0.846E-03    0.150E-03
DAV:   4    -0.345620579238E+02   -0.12164E-06   -0.32221E-07    48   0.454E-03    0.437E-04
DAV:   5    -0.345620579701E+02   -0.46298E-07   -0.99352E-08    48   0.226E-03    0.237E-04
DAV:   6    -0.345620580377E+02   -0.67581E-07   -0.49311E-08    48   0.124E-03
  61 F= -.34562058E+02 E0= -.34562058E+02  d E =-.889253E-03
       N       E                     dE             d eps       ncg     rms          rms(c)
DAV:   1    -0.345630353527E+02   -0.97738E-03   -0.56278E-04    96   0.232E-01    0.662E-03
DAV:   2    -0.345630349698E+02    0.38293E-06   -0.53611E-06    48   0.202E-02    0.384E-03
DAV:   3    -0.345630353586E+02   -0.38879E-06   -0.10202E-06    48   0.826E-03    0.121E-03
DAV:   4    -0.345630354674E+02   -0.10882E-06   -0.29997E-07    48   0.385E-03    0.485E-04
DAV:   5    -0.345630355056E+02   -0.38208E-07   -0.10998E-07    48   0.209E-03    0.268E-04
DAV:   6    -0.345630355715E+02   -0.65894E-07   -0.57612E-08    48   0.118E-03
  62 F= -.34563036E+02 E0= -.34563036E+02  d E =-.977534E-03
       N       E                     dE             d eps       ncg     rms          rms(c)
DAV:   1    -0.345640998994E+02   -0.10644E-02   -0.63844E-04    96   0.244E-01    0.738E-03
DAV:   2    -0.345640995770E+02    0.32244E-06   -0.70230E-06    48   0.230E-02    0.452E-03
DAV:   3    -0.345641000648E+02   -0.48782E-06   -0.16435E-06    64   0.118E-02    0.139E-03
DAV:   4    -0.345641001643E+02   -0.99544E-07   -0.47398E-07    48   0.550E-03    0.776E-04
DAV:   5    -0.345641002024E+02   -0.38086E-07   -0.13832E-07    48   0.267E-03    0.347E-04
DAV:   6    -0.345641002460E+02   -0.43583E-07   -0.80050E-08    48   0.176E-03
  63 F= -.34564100E+02 E0= -.34564100E+02  d E =-.106467E-02
       N       E                     dE             d eps       ncg     rms          rms(c)
DAV:   1    -0.345652575680E+02   -0.11574E-02   -0.80755E-04    96   0.271E-01    0.883E-03
DAV:   2    -0.345652571082E+02    0.45985E-06   -0.10136E-05    64   0.281E-02    0.547E-03
DAV:   3    -0.345652576131E+02   -0.50496E-06   -0.25962E-06    64   0.156E-02    0.187E-03
DAV:   4    -0.345652577632E+02   -0.15011E-06   -0.78029E-07    48   0.744E-03    0.104E-03
DAV:   5    -0.345652577982E+02   -0.34923E-07   -0.18739E-07    48   0.354E-03    0.459E-04
DAV:   6    -0.345652578401E+02   -0.41942E-07   -0.11605E-07    48   0.240E-03
  64 F= -.34565258E+02 E0= -.34565258E+02  d E =-.115759E-02
       N       E                     dE             d eps       ncg     rms          rms(c)
DAV:   1    -0.345665142610E+02   -0.12565E-02   -0.10345E-03    96   0.307E-01    0.960E-03
DAV:   2    -0.345665137597E+02    0.50128E-06   -0.12045E-05    64   0.305E-02    0.594E-03
DAV:   3    -0.345665144368E+02   -0.67709E-06   -0.29390E-06    48   0.163E-02    0.193E-03
DAV:   4    -0.345665145794E+02   -0.14263E-06   -0.85191E-07    48   0.768E-03    0.107E-03
DAV:   5    -0.345665146156E+02   -0.36164E-07   -0.21519E-07    48   0.368E-03    0.483E-04
DAV:   6    -0.345665146610E+02   -0.45384E-07   -0.12397E-07    48   0.247E-03
  65 F= -.34566515E+02 E0= -.34566515E+02  d E =-.125682E-02
       N       E                     dE             d eps       ncg     rms          rms(c)
DAV:   1    -0.345678340997E+02   -0.13195E-02   -0.12915E-03    96   0.348E-01    0.981E-03
DAV:   2    -0.345678335725E+02    0.52722E-06   -0.12759E-05    64   0.314E-02    0.586E-03
DAV:   3    -0.345678343955E+02   -0.82301E-06   -0.23930E-06    48   0.132E-02    0.184E-03
DAV:   4    -0.345678345458E+02   -0.15022E-06   -0.67466E-07    48   0.615E-03    0.788E-04
DAV:   5    -0.345678345694E+02   -0.23650E-07   -0.22229E-07    48   0.324E-03    0.412E-04
DAV:   6    -0.345678346079E+02   -0.38498E-07   -0.10286E-07    48   0.188E-03
  66 F= -.34567835E+02 E0= -.34567835E+02  d E =-.131995E-02
       N       E                     dE             d eps       ncg     rms          rms(c)
DAV:   1    -0.345691887740E+02   -0.13542E-02   -0.17716E-03    96   0.413E-01    0.118E-02
DAV:   2    -0.345691877281E+02    0.10459E-05   -0.17810E-05    64   0.389E-02    0.642E-03
DAV:   3    -0.345691883171E+02   -0.58905E-06   -0.29746E-06    64   0.148E-02    0.281E-03
DAV:   4    -0.345691886044E+02   -0.28727E-06   -0.95217E-07    48   0.807E-03    0.746E-04
DAV:   5    -0.345691886199E+02   -0.15495E-07   -0.26312E-07    48   0.403E-03    0.444E-04
DAV:   6    -0.345691886678E+02   -0.47954E-07   -0.10003E-07    48   0.222E-03
  67 F= -.34569189E+02 E0= -.34569189E+02  d E =-.135406E-02
       N       E                     dE             d eps       ncg     rms          rms(c)
DAV:   1    -0.345705192916E+02   -0.13307E-02   -0.23909E-03    96   0.481E-01    0.146E-02
DAV:   2    -0.345705174237E+02    0.18679E-05   -0.26738E-05    64   0.489E-02    0.758E-03
DAV:   3    -0.345705176728E+02   -0.24902E-06   -0.43179E-06    68   0.194E-02    0.354E-03
DAV:   4    -0.345705180189E+02   -0.34614E-06   -0.17358E-06    48   0.118E-02    0.106E-03
DAV:   5    -0.345705180478E+02   -0.28944E-07   -0.37934E-07    48   0.568E-03    0.557E-04
DAV:   6    -0.345705181321E+02   -0.84285E-07   -0.11866E-07    48   0.291E-03
  68 F= -.34570518E+02 E0= -.34570518E+02  d E =-.132946E-02
       N       E                     dE             d eps       ncg     rms          rms(c)
DAV:   1    -0.345705077582E+02    0.10290E-04   -0.50292E-07    48   0.683E-03    0.340E-04
DAV:   2    -0.345705078478E+02   -0.89666E-07   -0.56546E-08    48   0.186E-03    0.222E-04
DAV:   3    -0.345705079507E+02   -0.10282E-06   -0.26566E-08    48   0.728E-04    0.146E-04
DAV:   4    -0.345705081572E+02   -0.20656E-06   -0.30714E-08    64   0.635E-04    0.605E-05
DAV:   5    -0.345705082007E+02   -0.43465E-07   -0.25446E-08    48   0.338E-04    0.420E-05
DAV:   6    -0.345705083088E+02   -0.10809E-06   -0.28035E-08    48   0.233E-04
  69 F= -.34570508E+02 E0= -.34570508E+02  d E =0.982335E-05
       N       E                     dE             d eps       ncg     rms          rms(c)
DAV:   1    -0.345704876732E+02    0.20527E-04   -0.17289E-06    48   0.128E-02    0.512E-04
DAV:   2    -0.345704877187E+02   -0.45492E-07   -0.11371E-07    48   0.300E-03    0.299E-04
DAV:   3    -0.345704877646E+02   -0.45844E-07   -0.40672E-08    48   0.996E-04    0.179E-04
DAV:   4    -0.345704878372E+02   -0.72578E-07   -0.40735E-08    56   0.786E-04    0.701E-05
DAV:   5    -0.345704878628E+02   -0.25673E-07   -0.36534E-08    48   0.383E-04    0.448E-05
DAV:   6    -0.345704879019E+02   -0.39115E-07   -0.36918E-08    48   0.186E-04
  70 F= -.34570488E+02 E0= -.34570488E+02  d E =0.204068E-04
       N       E                     dE             d eps       ncg     rms          rms(c)
DAV:   1    -0.345704571834E+02    0.30679E-04   -0.32737E-06    48   0.177E-02    0.697E-04
DAV:   2    -0.345704571961E+02   -0.12703E-07   -0.19483E-07    48   0.413E-03    0.406E-04
DAV:   3    -0.345704572100E+02   -0.13840E-07   -0.55021E-08    48   0.135E-03    0.246E-04
DAV:   4    -0.345704572329E+02   -0.22950E-07   -0.49831E-08    52   0.103E-03    0.925E-05
DAV:   5    -0.345704572411E+02   -0.81411E-08   -0.41751E-08    48   0.486E-04    0.606E-05
DAV:   6    -0.345704572514E+02   -0.10312E-07   -0.40202E-08    48   0.221E-04
  71 F= -.34570457E+02 E0= -.34570457E+02  d E =0.306506E-04
       N       E                     dE             d eps       ncg     rms          rms(c)
DAV:   1    -0.345704168951E+02    0.40346E-04   -0.45851E-06    48   0.209E-02    0.812E-04
DAV:   2    -0.345704168895E+02    0.55927E-08   -0.25767E-07    48   0.488E-03    0.476E-04
DAV:   3    -0.345704168899E+02   -0.39267E-09   -0.62200E-08    48   0.160E-03    0.289E-04
DAV:   4    -0.345704168956E+02   -0.57148E-08   -0.52209E-08    48   0.117E-03    0.107E-04
DAV:   5    -0.345704168985E+02   -0.28970E-08   -0.41784E-08    48   0.547E-04    0.705E-05
DAV:   6    -0.345704169019E+02   -0.34233E-08   -0.39703E-08    48   0.246E-04
  72 F= -.34570417E+02 E0= -.34570417E+02  d E =0.403495E-04
       N       E                     dE             d eps       ncg     rms          rms(c)
DAV:   1    -0.345703677468E+02    0.49152E-04   -0.52570E-06    48   0.224E-02    0.845E-04
DAV:   2    -0.345703677390E+02    0.77994E-08   -0.28633E-07    48   0.519E-03    0.497E-04
DAV:   3    -0.345703677375E+02    0.15091E-08   -0.65648E-08    48   0.170E-03    0.300E-04
DAV:   4    -0.345703677404E+02   -0.28710E-08   -0.51640E-08    48   0.116E-03    0.111E-04
DAV:   5    -0.345703677427E+02   -0.23538E-08   -0.41364E-08    48   0.540E-04    0.719E-05
DAV:   6    -0.345703677457E+02   -0.29281E-08   -0.39208E-08    48   0.244E-04
  73 F= -.34570368E+02 E0= -.34570368E+02  d E =0.491563E-04
       N       E                     dE             d eps       ncg     rms          rms(c)
DAV:   1    -0.345703113856E+02    0.56357E-04   -0.53557E-06    48   0.224E-02    0.819E-04
DAV:   2    -0.345703113826E+02    0.29806E-08   -0.28688E-07    48   0.517E-03    0.477E-04
DAV:   3    -0.345703113835E+02   -0.85788E-09   -0.67746E-08    48   0.169E-03    0.279E-04
DAV:   4    -0.345703113876E+02   -0.41318E-08   -0.49549E-08    48   0.102E-03    0.105E-04
DAV:   5    -0.345703113903E+02   -0.26605E-08   -0.41257E-08    48   0.477E-04    0.644E-05
DAV:   6    -0.345703113933E+02   -0.30147E-08   -0.39469E-08    48   0.227E-04
  74 F= -.34570311E+02 E0= -.34570311E+02  d E =0.563523E-04
       N       E                     dE             d eps       ncg     rms          rms(c)
DAV:   1    -0.345702434480E+02    0.67942E-04   -0.67188E-06    48   0.249E-02    0.882E-04
DAV:   2    -0.345702434554E+02   -0.73901E-08   -0.34703E-07    48   0.570E-03    0.492E-04
DAV:   3    -0.345702434620E+02   -0.66004E-08   -0.78407E-08    48   0.186E-03    0.255E-04
DAV:   4    -0.345702434673E+02   -0.52596E-08   -0.50213E-08    48   0.946E-04    0.984E-05
DAV:   5    -0.345702434704E+02   -0.31466E-08   -0.42400E-08    48   0.455E-04    0.531E-05
DAV:   6    -0.345702434729E+02   -0.24936E-08   -0.40428E-08    48   0.246E-04
  75 F= -.34570243E+02 E0= -.34570243E+02  d E =0.679204E-04
       N       E                     dE             d eps       ncg     rms          rms(c)
DAV:   1    -0.345701654991E+02    0.77971E-04   -0.97879E-06    48   0.301E-02    0.994E-04
DAV:   2    -0.345701655261E+02   -0.27054E-07   -0.49206E-07    48   0.686E-03    0.549E-04
DAV:   3    -0.345701655413E+02   -0.15182E-07   -0.99739E-08    48   0.222E-03    0.229E-04
DAV:   4    -0.345701655463E+02   -0.49483E-08   -0.55549E-08    48   0.104E-03    0.751E-05
DAV:   5    -0.345701655480E+02   -0.17342E-08   -0.45115E-08    48   0.527E-04    0.357E-05
DAV:   6    -0.345701655492E+02   -0.11571E-08   -0.42217E-08    48   0.301E-04
  76 F= -.34570166E+02 E0= -.34570166E+02  d E =0.779238E-04
       N       E                     dE             d eps       ncg     rms          rms(c)
DAV:   1    -0.345700813453E+02    0.84203E-04   -0.16433E-05    48   0.394E-02    0.121E-03
DAV:   2    -0.345700814027E+02   -0.57410E-07   -0.82453E-07    48   0.903E-03    0.684E-04
DAV:   3    -0.345700814253E+02   -0.22555E-07   -0.14380E-07    48   0.292E-03    0.298E-04
DAV:   4    -0.345700814308E+02   -0.54822E-08   -0.68248E-08    48   0.141E-03    0.930E-05
DAV:   5    -0.345700814312E+02   -0.40404E-09   -0.49738E-08    48   0.696E-04    0.538E-05
DAV:   6    -0.345700814320E+02   -0.85538E-09   -0.44443E-08    48   0.406E-04
  77 F= -.34570081E+02 E0= -.34570081E+02  d E =0.841171E-04
       N       E                     dE             d eps       ncg     rms          rms(c)
DAV:   1    -0.345699991439E+02    0.82287E-04   -0.27665E-05    48   0.514E-02    0.152E-03
DAV:   2    -0.345699992427E+02   -0.98818E-07   -0.13848E-06    48   0.118E-02    0.875E-04
DAV:   3    -0.345699992730E+02   -0.30279E-07   -0.21620E-07    48   0.383E-03    0.419E-04
DAV:   4    -0.345699992809E+02   -0.79247E-08   -0.89278E-08    48   0.192E-03    0.123E-04
DAV:   5    -0.345699992815E+02   -0.59799E-09   -0.56301E-08    48   0.926E-04    0.827E-05
DAV:   6    -0.345699992824E+02   -0.91404E-09   -0.47069E-08    48   0.545E-04
  78 F= -.34569999E+02 E0= -.34569999E+02  d E =0.821496E-04
       N       E                     dE             d eps       ncg     rms          rms(c)
DAV:   1    -0.345699355464E+02    0.63735E-04   -0.42147E-05    48   0.633E-02    0.183E-03
DAV:   2    -0.345699356977E+02   -0.15128E-06   -0.20870E-06    48   0.145E-02    0.105E-03
DAV:   3    -0.345699357426E+02   -0.44916E-07   -0.31207E-07    48   0.470E-03    0.516E-04
DAV:   4    -0.345699357545E+02   -0.11894E-07   -0.11432E-07    48   0.232E-03    0.150E-04
DAV:   5    -0.345699357563E+02   -0.17812E-08   -0.64260E-08    48   0.114E-03    0.100E-04
DAV:   6    -0.345699357579E+02   -0.16166E-08   -0.49904E-08    48   0.664E-04
  79 F= -.34569936E+02 E0= -.34569936E+02  d E =0.635245E-04
       N       E                     dE             d eps       ncg     rms          rms(c)
DAV:   1    -0.345699185350E+02    0.17221E-04   -0.60083E-05    48   0.749E-02    0.218E-03
DAV:   2    -0.345699187549E+02   -0.21989E-06   -0.29529E-06    48   0.171E-02    0.124E-03
DAV:   3    -0.345699188234E+02   -0.68522E-07   -0.44186E-07    48   0.559E-03    0.632E-04
DAV:   4    -0.345699188434E+02   -0.19972E-07   -0.14670E-07    48   0.268E-03    0.207E-04
DAV:   5    -0.345699188474E+02   -0.40113E-08   -0.74916E-08    48   0.135E-03    0.114E-04
DAV:   6    -0.345699188497E+02   -0.23045E-08   -0.53589E-08    48   0.769E-04
  80 F= -.34569919E+02 E0= -.34569919E+02  d E =0.169082E-04
       N       E                     dE             d eps       ncg     rms          rms(c)
DAV:   1    -0.345699891357E+02   -0.70288E-04   -0.92516E-05    48   0.923E-02    0.275E-03
DAV:   2    -0.345699894705E+02   -0.33482E-06   -0.45484E-06    48   0.210E-02    0.160E-03
DAV:   3    -0.345699895677E+02   -0.97238E-07   -0.68267E-07    48   0.702E-03    0.879E-04
DAV:   4    -0.345699896046E+02   -0.36861E-07   -0.21091E-07    48   0.339E-03    0.341E-04
DAV:   5    -0.345699896120E+02   -0.74285E-08   -0.94203E-08    48   0.172E-03    0.156E-04
DAV:   6    -0.345699896150E+02   -0.29638E-08   -0.59824E-08    48   0.965E-04
  81 F= -.34569990E+02 E0= -.34569990E+02  d E =-.707653E-04
       N       E                     dE             d eps       ncg     rms          rms(c)
DAV:   1    -0.345702077318E+02   -0.21812E-03   -0.16529E-04    96   0.121E-01    0.357E-03
DAV:   2    -0.345702076690E+02    0.62778E-07   -0.17713E-06    48   0.120E-02    0.222E-03
DAV:   3    -0.345702077747E+02   -0.10563E-06   -0.41741E-07    48   0.588E-03    0.603E-04
DAV:   4    -0.345702077875E+02   -0.12804E-07   -0.14740E-07    48   0.275E-03    0.321E-04
DAV:   5    -0.345702077909E+02   -0.34506E-08   -0.68674E-08    48   0.137E-03    0.160E-04
DAV:   6    -0.345702077964E+02   -0.54231E-08   -0.55286E-08    48   0.918E-04
  82 F= -.34570208E+02 E0= -.34570208E+02  d E =-.218181E-03
       N       E                     dE             d eps       ncg     rms          rms(c)
DAV:   1    -0.345706500476E+02   -0.44226E-03   -0.30278E-04    96   0.166E-01    0.470E-03
DAV:   2    -0.345706499363E+02    0.11131E-06   -0.31263E-06    48   0.159E-02    0.290E-03
DAV:   3    -0.345706501308E+02   -0.19452E-06   -0.64930E-07    48   0.723E-03    0.780E-04
DAV:   4    -0.345706501503E+02   -0.19533E-07   -0.20607E-07    48   0.332E-03    0.397E-04
DAV:   5    -0.345706501539E+02   -0.35134E-08   -0.86854E-08    48   0.168E-03    0.197E-04
DAV:   6    -0.345706501617E+02   -0.78052E-08   -0.61131E-08    48   0.106E-03
  83 F= -.34570650E+02 E0= -.34570650E+02  d E =-.442365E-03
       N       E                     dE             d eps       ncg     rms          rms(c)
DAV:   1    -0.345714183378E+02   -0.76818E-03   -0.59875E-04    96   0.237E-01    0.656E-03
DAV:   2    -0.345714180401E+02    0.29778E-06   -0.59930E-06    64   0.220E-02    0.389E-03
DAV:   3    -0.345714183826E+02   -0.34255E-06   -0.10855E-06    48   0.884E-03    0.116E-03
DAV:   4    -0.345714184373E+02   -0.54668E-07   -0.31965E-07    48   0.406E-03    0.457E-04
DAV:   5    -0.345714184383E+02   -0.10095E-08   -0.12526E-07    48   0.218E-03    0.241E-04
DAV:   6    -0.345714184501E+02   -0.11777E-07   -0.70705E-08    48   0.123E-03
  84 F= -.34571418E+02 E0= -.34571418E+02  d E =-.768288E-03
       N       E                     dE             d eps       ncg     rms          rms(c)
DAV:   1    -0.345726554531E+02   -0.12370E-02   -0.12127E-03    96   0.340E-01    0.960E-03
DAV:   2    -0.345726545999E+02    0.85313E-06   -0.12102E-05    64   0.312E-02    0.551E-03
DAV:   3    -0.345726552170E+02   -0.61710E-06   -0.21563E-06    52   0.123E-02    0.181E-03
DAV:   4    -0.345726553655E+02   -0.14846E-06   -0.60678E-07    48   0.581E-03    0.612E-04
DAV:   5    -0.345726553744E+02   -0.89433E-08   -0.20269E-07    48   0.305E-03    0.323E-04
DAV:   6    -0.345726554079E+02   -0.33432E-07   -0.91242E-08    48   0.173E-03
  85 F= -.34572655E+02 E0= -.34572655E+02  d E =-.123696E-02
       N       E                     dE             d eps       ncg     rms          rms(c)
DAV:   1    -0.345745488331E+02   -0.18935E-02   -0.23027E-03    96   0.470E-01    0.135E-02
DAV:   2    -0.345745469950E+02    0.18381E-05   -0.22941E-05    64   0.424E-02    0.776E-03
DAV:   3    -0.345745483058E+02   -0.13108E-05   -0.41771E-06    56   0.171E-02    0.236E-03
DAV:   4    -0.345745485985E+02   -0.29274E-06   -0.11324E-06    48   0.786E-03    0.890E-04
DAV:   5    -0.345745486407E+02   -0.42134E-07   -0.36419E-07    48   0.420E-03    0.440E-04
DAV:   6    -0.345745487219E+02   -0.81197E-07   -0.14432E-07    48   0.234E-03
  86 F= -.34574549E+02 E0= -.34574549E+02  d E =-.189331E-02
       N       E                     dE             d eps       ncg     rms          rms(c)
DAV:   1    -0.345773058100E+02   -0.27572E-02   -0.41478E-03    96   0.631E-01    0.187E-02
DAV:   2    -0.345773023368E+02    0.34733E-05   -0.41830E-05    64   0.562E-02    0.107E-02
DAV:   3    -0.345773051552E+02   -0.28185E-05   -0.79270E-06    64   0.236E-02    0.293E-03
DAV:   4    -0.345773056469E+02   -0.49166E-06   -0.21255E-06    48   0.106E-02    0.135E-03
DAV:   5    -0.345773057586E+02   -0.11177E-06   -0.68158E-07    48   0.577E-03    0.619E-04
DAV:   6    -0.345773059039E+02   -0.14530E-06   -0.25882E-07    48   0.317E-03
  87 F= -.34577306E+02 E0= -.34577306E+02  d E =-.275718E-02
       N       E                     dE             d eps       ncg     rms          rms(c)
DAV:   1    -0.345811111995E+02   -0.38054E-02   -0.73995E-03    96   0.844E-01    0.255E-02
DAV:   2    -0.345811042872E+02    0.69123E-05   -0.74505E-05    64   0.748E-02    0.145E-02
DAV:   3    -0.345811094511E+02   -0.51639E-05   -0.14210E-05    64   0.315E-02    0.389E-03
DAV:   4    -0.345811103783E+02   -0.92726E-06   -0.37771E-06    48   0.141E-02    0.180E-03
DAV:   5    -0.345811106089E+02   -0.23053E-06   -0.12128E-06    48   0.765E-03    0.798E-04
DAV:   6    -0.345811108670E+02   -0.25809E-06   -0.45452E-07    48   0.418E-03
  88 F= -.34581111E+02 E0= -.34581111E+02  d E =-.380496E-02
       N       E                     dE             d eps       ncg     rms          rms(c)
DAV:   1    -0.345860305154E+02   -0.49199E-02   -0.12419E-02    96   0.110E+00    0.338E-02
DAV:   2    -0.345860186025E+02    0.11913E-04   -0.14420E-04    96   0.971E-02    0.196E-02
DAV:   3    -0.345860247153E+02   -0.61128E-05   -0.79751E-06    64   0.259E-02    0.590E-03
DAV:   4    -0.345860266155E+02   -0.19002E-05   -0.23761E-06    48   0.134E-02    0.188E-03
DAV:   5    -0.345860269973E+02   -0.38176E-06   -0.50510E-07    48   0.620E-03    0.795E-04
DAV:   6    -0.345860274255E+02   -0.42824E-06   -0.18754E-07    48   0.339E-03
  89 F= -.34586027E+02 E0= -.34586027E+02  d E =-.491656E-02
       N       E                     dE             d eps       ncg     rms          rms(c)
DAV:   1    -0.345916335016E+02   -0.56065E-02   -0.15380E-02    96   0.121E+00    0.391E-02
DAV:   2    -0.345916162377E+02    0.17264E-04   -0.17261E-04    96   0.105E-01    0.224E-02
DAV:   3    -0.345916255507E+02   -0.93131E-05   -0.91350E-06    64   0.279E-02    0.606E-03
DAV:   4    -0.345916278067E+02   -0.22560E-05   -0.26311E-06    48   0.136E-02    0.216E-03
DAV:   5    -0.345916284823E+02   -0.67553E-06   -0.64444E-07    48   0.645E-03    0.891E-04
DAV:   6    -0.345916292273E+02   -0.74505E-06   -0.23623E-07    48   0.345E-03
  90 F= -.34591629E+02 E0= -.34591629E+02  d E =-.560180E-02
       N       E                     dE             d eps       ncg     rms          rms(c)
DAV:   1    -0.345915359857E+02    0.92497E-04   -0.63129E-06    48   0.248E-02    0.738E-04
DAV:   2    -0.345915363879E+02   -0.40213E-06   -0.31534E-07    48   0.545E-03    0.449E-04
DAV:   3    -0.345915368821E+02   -0.49428E-06   -0.70525E-08    48   0.195E-03    0.232E-04
DAV:   4    -0.345915373572E+02   -0.47503E-06   -0.39304E-08    48   0.990E-04    0.115E-04
DAV:   5    -0.345915378319E+02   -0.47475E-06   -0.32514E-08    48   0.628E-04    0.523E-05
DAV:   6    -0.345915383082E+02   -0.47627E-06   -0.34217E-08    80   0.510E-04
  91 F= -.34591538E+02 E0= -.34591538E+02  d E =0.909191E-04
       N       E                     dE             d eps       ncg     rms          rms(c)
DAV:   1    -0.345913468848E+02    0.19095E-03   -0.26510E-05    64   0.513E-02    0.136E-03
DAV:   2    -0.345913470603E+02   -0.17553E-06   -0.11935E-06    48   0.110E-02    0.781E-04
DAV:   3    -0.345913471859E+02   -0.12558E-06   -0.18027E-07    48   0.353E-03    0.458E-04
DAV:   4    -0.345913472947E+02   -0.10885E-06   -0.60948E-08    48   0.160E-03    0.206E-04
DAV:   5    -0.345913473968E+02   -0.10203E-06   -0.36058E-08    48   0.796E-04    0.660E-05
DAV:   6    -0.345913474651E+02   -0.68317E-07   -0.30747E-08    48   0.437E-04
  92 F= -.34591347E+02 E0= -.34591347E+02  d E =0.190843E-03
       N       E                     dE             d eps       ncg     rms          rms(c)
DAV:   1    -0.345910542459E+02    0.29315E-03   -0.63575E-05    48   0.795E-02    0.212E-03
DAV:   2    -0.345910544652E+02   -0.21933E-06   -0.28065E-06    52   0.169E-02    0.119E-03
DAV:   3    -0.345910545619E+02   -0.96653E-07   -0.40745E-07    48   0.540E-03    0.692E-04
DAV:   4    -0.345910546188E+02   -0.56972E-07   -0.12423E-07    52   0.246E-03    0.305E-04
DAV:   5    -0.345910546517E+02   -0.32845E-07   -0.59956E-08    48   0.122E-03    0.106E-04
DAV:   6    -0.345910546691E+02   -0.17425E-07   -0.43178E-08    48   0.663E-04
  93 F= -.34591055E+02 E0= -.34591055E+02  d E =0.292796E-03
       N       E                     dE             d eps       ncg     rms          rms(c)
DAV:   1    -0.345906562143E+02    0.39844E-03   -0.12135E-04    48   0.110E-01    0.293E-03
DAV:   2    -0.345906565642E+02   -0.34983E-06   -0.52789E-06    48   0.233E-02    0.162E-03
DAV:   3    -0.345906566909E+02   -0.12668E-06   -0.73824E-07    48   0.738E-03    0.929E-04
DAV:   4    -0.345906567420E+02   -0.51155E-07   -0.20818E-07    48   0.337E-03    0.394E-04
DAV:   5    -0.345906567530E+02   -0.10970E-07   -0.83850E-08    48   0.168E-03    0.152E-04
DAV:   6    -0.345906567560E+02   -0.29790E-08   -0.49765E-08    48   0.916E-04
  94 F= -.34590657E+02 E0= -.34590657E+02  d E =0.397913E-03
       N       E                     dE             d eps       ncg     rms          rms(c)
DAV:   1    -0.345901519969E+02    0.50476E-03   -0.20807E-04    80   0.141E-01    0.368E-03
DAV:   2    -0.345901519054E+02    0.91493E-07   -0.22812E-06    48   0.136E-02    0.220E-03
DAV:   3    -0.345901520292E+02   -0.12374E-06   -0.39557E-07    48   0.525E-03    0.805E-04
DAV:   4    -0.345901520736E+02   -0.44438E-07   -0.12588E-07    48   0.247E-03    0.259E-04
DAV:   5    -0.345901520781E+02   -0.45204E-08   -0.58872E-08    48   0.126E-03    0.137E-04
DAV:   6    -0.345901520832E+02   -0.51070E-08   -0.41857E-08    48   0.699E-04
  95 F= -.34590152E+02 E0= -.34590152E+02  d E =0.504673E-03
       N       E                     dE             d eps       ncg     rms          rms(c)
DAV:   1    -0.345895388737E+02    0.61320E-03   -0.30656E-04    96   0.171E-01    0.447E-03
DAV:   2    -0.345895387428E+02    0.13093E-06   -0.33016E-06    64   0.164E-02    0.268E-03
DAV:   3    -0.345895389188E+02   -0.17602E-06   -0.55551E-07    48   0.631E-03    0.956E-04
DAV:   4    -0.345895389810E+02   -0.62221E-07   -0.16516E-07    48   0.294E-03    0.312E-04
DAV:   5    -0.345895389895E+02   -0.85224E-08   -0.69162E-08    48   0.150E-03    0.166E-04
DAV:   6    -0.345895389998E+02   -0.10236E-07   -0.44984E-08    48   0.834E-04
  96 F= -.34589539E+02 E0= -.34589539E+02  d E =0.613083E-03
       N       E                     dE             d eps       ncg     rms          rms(c)
DAV:   1    -0.345887319068E+02    0.80708E-03   -0.52032E-04    96   0.223E-01    0.585E-03
DAV:   2    -0.345887316991E+02    0.20769E-06   -0.55721E-06    64   0.213E-02    0.351E-03
DAV:   3    -0.345887319942E+02   -0.29509E-06   -0.93339E-07    48   0.827E-03    0.121E-03
DAV:   4    -0.345887320877E+02   -0.93449E-07   -0.26101E-07    48   0.382E-03    0.413E-04
DAV:   5    -0.345887321011E+02   -0.13401E-07   -0.96428E-08    48   0.197E-03    0.217E-04
DAV:   6    -0.345887321173E+02   -0.16228E-07   -0.54208E-08    48   0.110E-03
  97 F= -.34588732E+02 E0= -.34588732E+02  d E =0.806882E-03
       N       E                     dE             d eps       ncg     rms          rms(c)
DAV:   1    -0.345876896622E+02    0.10424E-02   -0.83818E-04    96   0.282E-01    0.749E-03
DAV:   2    -0.345876893368E+02    0.32539E-06   -0.89491E-06    64   0.269E-02    0.450E-03
DAV:   3    -0.345876898279E+02   -0.49110E-06   -0.15177E-06    48   0.106E-02    0.147E-03
DAV:   4    -0.345876899612E+02   -0.13325E-06   -0.41004E-07    48   0.485E-03    0.543E-04
DAV:   5    -0.345876899826E+02   -0.21455E-07   -0.14023E-07    48   0.253E-03    0.278E-04
DAV:   6    -0.345876900078E+02   -0.25164E-07   -0.69390E-08    48   0.143E-03
  98 F= -.34587690E+02 E0= -.34587690E+02  d E =0.104211E-02
       N       E                     dE             d eps       ncg     rms          rms(c)
DAV:   1    -0.345864202567E+02    0.12697E-02   -0.12529E-03    96   0.344E-01    0.925E-03
DAV:   2    -0.345864197343E+02    0.52240E-06   -0.13264E-05    64   0.327E-02    0.552E-03
DAV:   3    -0.345864204689E+02   -0.73461E-06   -0.22529E-06    48   0.129E-02    0.176E-03
DAV:   4    -0.345864206581E+02   -0.18922E-06   -0.60471E-07    48   0.590E-03    0.657E-04
DAV:   5    -0.345864206922E+02   -0.34121E-07   -0.19898E-07    48   0.310E-03    0.338E-04
DAV:   6    -0.345864207326E+02   -0.40379E-07   -0.89949E-08    48   0.175E-03
  99 F= -.34586421E+02 E0= -.34586421E+02  d E =0.126928E-02
       N       E                     dE             d eps       ncg     rms          rms(c)
DAV:   1    -0.345849931200E+02    0.14276E-02   -0.16767E-03    96   0.397E-01    0.108E-02
DAV:   2    -0.345849923617E+02    0.75833E-06   -0.17382E-05    64   0.375E-02    0.642E-03
DAV:   3    -0.345849933634E+02   -0.10017E-05   -0.29614E-06    48   0.148E-02    0.198E-03
DAV:   4    -0.345849936137E+02   -0.25033E-06   -0.80049E-07    48   0.675E-03    0.741E-04
DAV:   5    -0.345849936657E+02   -0.52029E-07   -0.26130E-07    48   0.359E-03    0.385E-04
DAV:   6    -0.345849937268E+02   -0.61057E-07   -0.11243E-07    48   0.202E-03
 100 F= -.34584994E+02 E0= -.34584994E+02  d E =0.142701E-02
       N       E                     dE             d eps       ncg     rms          rms(c)
DAV:   1    -0.345835845825E+02    0.14091E-02   -0.19137E-03    96   0.421E-01    0.117E-02
DAV:   2    -0.345835836523E+02    0.93012E-06   -0.19499E-05    64   0.399E-02    0.686E-03
DAV:   3    -0.345835848000E+02   -0.11477E-05   -0.33133E-06    48   0.157E-02    0.208E-03
DAV:   4    -0.345835850962E+02   -0.29617E-06   -0.90157E-07    48   0.718E-03    0.756E-04
DAV:   5    -0.345835851649E+02   -0.68674E-07   -0.29467E-07    48   0.384E-03    0.389E-04
DAV:   6    -0.345835852453E+02   -0.80476E-07   -0.12471E-07    48   0.215E-03
 101 F= -.34583585E+02 E0= -.34583585E+02  d E =0.140848E-02
       N       E                     dE             d eps       ncg     rms          rms(c)
DAV:   1    -0.345836154027E+02   -0.30238E-04   -0.69580E-07    48   0.810E-03    0.257E-04
DAV:   2    -0.345836154571E+02   -0.54464E-07   -0.71395E-08    48   0.202E-03    0.151E-04
DAV:   3    -0.345836155281E+02   -0.70993E-07   -0.38143E-08    48   0.789E-04    0.806E-05
DAV:   4    -0.345836156158E+02   -0.87718E-07   -0.33784E-08    48   0.433E-04    0.310E-05
DAV:   5    -0.345836156840E+02   -0.68166E-07   -0.32584E-08    48   0.270E-04    0.203E-05
DAV:   6    -0.345836158120E+02   -0.12801E-06   -0.35790E-08    64   0.237E-04
 102 F= -.34583616E+02 E0= -.34583616E+02  d E =-.305667E-04
       N       E                     dE             d eps       ncg     rms          rms(c)
DAV:   1    -0.345836779273E+02   -0.62243E-04   -0.25574E-06    48   0.160E-02    0.429E-04
DAV:   2    -0.345836779559E+02   -0.28645E-07   -0.14768E-07    48   0.354E-03    0.236E-04
DAV:   3    -0.345836779801E+02   -0.24226E-07   -0.48414E-08    48   0.111E-03    0.134E-04
DAV:   4    -0.345836780064E+02   -0.26275E-07   -0.38508E-08    48   0.519E-04    0.383E-05
DAV:   5    -0.345836780217E+02   -0.15302E-07   -0.36534E-08    48   0.244E-04    0.235E-05
DAV:   6    -0.345836780351E+02   -0.13364E-07   -0.36523E-08    48   0.132E-04
 103 F= -.34583678E+02 E0= -.34583678E+02  d E =-.622231E-04
       N       E                     dE             d eps       ncg     rms          rms(c)
DAV:   1    -0.345837749372E+02   -0.96915E-04   -0.57191E-06    48   0.240E-02    0.644E-04
DAV:   2    -0.345837749578E+02   -0.20622E-07   -0.29288E-07    48   0.530E-03    0.357E-04
DAV:   3    -0.345837749652E+02   -0.74276E-08   -0.70355E-08    48   0.166E-03    0.200E-04
DAV:   4    -0.345837749693E+02   -0.40884E-08   -0.46669E-08    48   0.766E-04    0.602E-05
DAV:   5    -0.345837749712E+02   -0.19329E-08   -0.41597E-08    48   0.360E-04    0.335E-05
DAV:   6    -0.345837749728E+02   -0.15889E-08   -0.40570E-08    48   0.192E-04
 104 F= -.34583775E+02 E0= -.34583775E+02  d E =-.969377E-04
       N       E                     dE             d eps       ncg     rms          rms(c)
DAV:   1    -0.345839109080E+02   -0.13594E-03   -0.10315E-05    48   0.322E-02    0.872E-04
DAV:   2    -0.345839109365E+02   -0.28485E-07   -0.50072E-07    48   0.712E-03    0.486E-04
DAV:   3    -0.345839109429E+02   -0.63360E-08   -0.99766E-08    48   0.225E-03    0.266E-04
DAV:   4    -0.345839109438E+02   -0.94974E-09   -0.54617E-08    48   0.103E-03    0.870E-05
DAV:   5    -0.345839109437E+02    0.11232E-09   -0.44573E-08    48   0.489E-04    0.439E-05
DAV:   6    -0.345839109442E+02   -0.51273E-09   -0.42124E-08    48   0.265E-04
 105 F= -.34583911E+02 E0= -.34583911E+02  d E =-.135971E-03
       N       E                     dE             d eps       ncg     rms          rms(c)
DAV:   1    -0.345840918318E+02   -0.18089E-03   -0.16801E-05    48   0.412E-02    0.113E-03
DAV:   2    -0.345840918755E+02   -0.43713E-07   -0.78604E-07    48   0.906E-03    0.630E-04
DAV:   3    -0.345840918870E+02   -0.11554E-07   -0.13853E-07    48   0.287E-03    0.335E-04
DAV:   4    -0.345840918888E+02   -0.17362E-08   -0.64052E-08    48   0.131E-03    0.118E-04
DAV:   5    -0.345840918887E+02    0.93451E-10   -0.47350E-08    48   0.630E-04    0.554E-05
DAV:   6    -0.345840918895E+02   -0.80240E-09   -0.43224E-08    48   0.346E-04
 106 F= -.34584092E+02 E0= -.34584092E+02  d E =-.180945E-03
       N       E                     dE             d eps       ncg     rms          rms(c)
DAV:   1    -0.345843252577E+02   -0.23337E-03   -0.25992E-05    48   0.514E-02    0.143E-03
DAV:   2    -0.345843253214E+02   -0.63646E-07   -0.11784E-06    48   0.112E-02    0.793E-04
DAV:   3    -0.345843253413E+02   -0.19903E-07   -0.19246E-07    48   0.356E-03    0.410E-04
DAV:   4    -0.345843253454E+02   -0.40811E-08   -0.77496E-08    48   0.162E-03    0.152E-04
DAV:   5    -0.345843253455E+02   -0.11710E-09   -0.51214E-08    48   0.787E-04    0.685E-05
DAV:   6    -0.345843253466E+02   -0.10893E-08   -0.44625E-08    48   0.436E-04
 107 F= -.34584325E+02 E0= -.34584325E+02  d E =-.233457E-03
       N       E                     dE             d eps       ncg     rms          rms(c)
DAV:   1    -0.345846554674E+02   -0.33012E-03   -0.49000E-05    48   0.706E-02    0.202E-03
DAV:   2    -0.345846555782E+02   -0.11083E-06   -0.21373E-06    48   0.152E-02    0.110E-03
DAV:   3    -0.345846556203E+02   -0.42115E-07   -0.32328E-07    48   0.482E-03    0.546E-04
DAV:   4    -0.345846556299E+02   -0.95238E-08   -0.11050E-07    48   0.219E-03    0.210E-04
DAV:   5    -0.345846556300E+02   -0.93678E-10   -0.60964E-08    48   0.108E-03    0.933E-05
DAV:   6    -0.345846556316E+02   -0.16532E-08   -0.47994E-08    48   0.600E-04
 108 F= -.34584656E+02 E0= -.34584656E+02  d E =-.330285E-03
       N       E                     dE             d eps       ncg     rms          rms(c)
DAV:   1    -0.345851200382E+02   -0.46441E-03   -0.93237E-05    48   0.974E-02    0.287E-03
DAV:   2    -0.345851202274E+02   -0.18917E-06   -0.39280E-06    48   0.207E-02    0.153E-03
DAV:   3    -0.345851203150E+02   -0.87633E-07   -0.57007E-07    48   0.654E-03    0.729E-04
DAV:   4    -0.345851203354E+02   -0.20342E-07   -0.17513E-07    48   0.297E-03    0.288E-04
DAV:   5    -0.345851203360E+02   -0.57980E-09   -0.80422E-08    48   0.148E-03    0.129E-04
DAV:   6    -0.345851203390E+02   -0.30007E-08   -0.54747E-08    48   0.829E-04
 109 F= -.34585120E+02 E0= -.34585120E+02  d E =-.464707E-03
       N       E                     dE             d eps       ncg     rms          rms(c)
DAV:   1    -0.345857692282E+02   -0.64889E-03   -0.17807E-04    64   0.135E-01    0.408E-03
DAV:   2    -0.345857695489E+02   -0.32076E-06   -0.72891E-06    48   0.282E-02    0.214E-03
DAV:   3    -0.345857697274E+02   -0.17851E-06   -0.10384E-06    48   0.889E-03    0.979E-04
DAV:   4    -0.345857697691E+02   -0.41633E-07   -0.30126E-07    48   0.404E-03    0.396E-04
DAV:   5    -0.345857697721E+02   -0.30166E-08   -0.11915E-07    48   0.204E-03    0.179E-04
DAV:   6    -0.345857697779E+02   -0.58103E-08   -0.67718E-08    48   0.115E-03
 110 F= -.34585770E+02 E0= -.34585770E+02  d E =-.649439E-03
       N       E                     dE             d eps       ncg     rms          rms(c)
DAV:   1    -0.345866699369E+02   -0.90016E-03   -0.34905E-04    96   0.185E-01    0.563E-03
DAV:   2    -0.345866695321E+02    0.40488E-06   -0.37730E-06    64   0.171E-02    0.317E-03
DAV:   3    -0.345866697382E+02   -0.20614E-06   -0.73824E-07    48   0.710E-03    0.856E-04
DAV:   4    -0.345866697679E+02   -0.29665E-07   -0.21400E-07    48   0.318E-03    0.382E-04
DAV:   5    -0.345866697704E+02   -0.25423E-08   -0.91913E-08    48   0.168E-03    0.155E-04
DAV:   6    -0.345866697869E+02   -0.16484E-07   -0.57172E-08    48   0.916E-04
 111 F= -.34586670E+02 E0= -.34586670E+02  d E =-.900009E-03
       N       E                     dE             d eps       ncg     rms          rms(c)
DAV:   1    -0.345879025749E+02   -0.12328E-02   -0.65019E-04    96   0.252E-01    0.786E-03
DAV:   2    -0.345879017691E+02    0.80587E-06   -0.68081E-06    64   0.227E-02    0.440E-03
DAV:   3    -0.345879021921E+02   -0.42304E-06   -0.13147E-06    48   0.953E-03    0.115E-03
DAV:   4    -0.345879022602E+02   -0.68090E-07   -0.35641E-07    48   0.423E-03    0.534E-04
DAV:   5    -0.345879022742E+02   -0.14029E-07   -0.13398E-07    48   0.225E-03    0.216E-04
DAV:   6    -0.345879023054E+02   -0.31220E-07   -0.70017E-08    48   0.122E-03
 112 F= -.34587902E+02 E0= -.34587902E+02  d E =-.123252E-02
       N       E                     dE             d eps       ncg     rms          rms(c)
DAV:   1    -0.345895606112E+02   -0.16583E-02   -0.11775E-03    96   0.338E-01    0.108E-02
DAV:   2    -0.345895590600E+02    0.15512E-05   -0.12015E-05    64   0.299E-02    0.602E-03
DAV:   3    -0.345895598926E+02   -0.83267E-06   -0.23422E-06    52   0.127E-02    0.154E-03
DAV:   4    -0.345895600305E+02   -0.13790E-06   -0.62177E-07    48   0.561E-03    0.735E-04
DAV:   5    -0.345895600670E+02   -0.36498E-07   -0.21810E-07    48   0.302E-03    0.296E-04
DAV:   6    -0.345895601250E+02   -0.58024E-07   -0.98666E-08    48   0.164E-03
 113 F= -.34589560E+02 E0= -.34589560E+02  d E =-.165782E-02
       N       E                     dE             d eps       ncg     rms          rms(c)
DAV:   1    -0.345917279257E+02   -0.21679E-02   -0.20698E-03    96   0.447E-01    0.147E-02
DAV:   2    -0.345917249282E+02    0.29975E-05   -0.20431E-05    64   0.390E-02    0.807E-03
DAV:   3    -0.345917264703E+02   -0.15421E-05   -0.39925E-06    64   0.165E-02    0.207E-03
DAV:   4    -0.345917267371E+02   -0.26679E-06   -0.10391E-06    48   0.728E-03    0.964E-04
DAV:   5    -0.345917268145E+02   -0.77428E-07   -0.35313E-07    48   0.392E-03    0.372E-04
DAV:   6    -0.345917269159E+02   -0.10146E-06   -0.14841E-07    48   0.213E-03
 114 F= -.34591727E+02 E0= -.34591727E+02  d E =-.216679E-02
       N       E                     dE             d eps       ncg     rms          rms(c)
DAV:   1    -0.345944460133E+02   -0.27192E-02   -0.33637E-03    96   0.568E-01    0.191E-02
DAV:   2    -0.345944406956E+02    0.53177E-05   -0.31671E-05    64   0.486E-02    0.104E-02
DAV:   3    -0.345944433391E+02   -0.26435E-05   -0.62886E-06    64   0.207E-02    0.267E-03
DAV:   4    -0.345944438055E+02   -0.46636E-06   -0.16097E-06    48   0.912E-03    0.122E-03
DAV:   5    -0.345944439562E+02   -0.15074E-06   -0.53522E-07    48   0.490E-03    0.449E-04
DAV:   6    -0.345944441165E+02   -0.16035E-06   -0.21779E-07    48   0.266E-03
 115 F= -.34594444E+02 E0= -.34594444E+02  d E =-.271720E-02
       N       E                     dE             d eps       ncg     rms          rms(c)
DAV:   1    -0.345976271308E+02   -0.31832E-02   -0.47717E-03    96   0.674E-01    0.235E-02
DAV:   2    -0.345976188530E+02    0.82779E-05   -0.42406E-05    64   0.564E-02    0.126E-02
DAV:   3    -0.345976230054E+02   -0.41525E-05   -0.85797E-06    64   0.242E-02    0.313E-03
DAV:   4    -0.345976236916E+02   -0.68622E-06   -0.21739E-06    48   0.107E-02    0.143E-03
DAV:   5    -0.345976239373E+02   -0.24567E-06   -0.71444E-07    48   0.572E-03    0.511E-04
DAV:   6    -0.345976241643E+02   -0.22699E-06   -0.28454E-07    48   0.308E-03
 116 F= -.34597624E+02 E0= -.34597624E+02  d E =-.318005E-02
       N       E                     dE             d eps       ncg     rms          rms(c)
DAV:   1    -0.346006228717E+02   -0.29989E-02   -0.48469E-03    96   0.675E-01    0.248E-02
DAV:   2    -0.346006128584E+02    0.10013E-04   -0.39631E-05    64   0.562E-02    0.130E-02
DAV:   3    -0.346006173263E+02   -0.44678E-05   -0.83297E-06    64   0.245E-02    0.337E-03
DAV:   4    -0.346006181245E+02   -0.79823E-06   -0.19710E-06    48   0.108E-02    0.152E-03
DAV:   5    -0.346006184669E+02   -0.34242E-06   -0.60586E-07    48   0.560E-03    0.487E-04
DAV:   6    -0.346006187426E+02   -0.27573E-06   -0.24032E-07    48   0.303E-03
 117 F= -.34600619E+02 E0= -.34600619E+02  d E =-.299458E-02
       N       E                     dE             d eps       ncg     rms          rms(c)
DAV:   1    -0.346004836287E+02    0.13484E-03   -0.10445E-05    48   0.325E-02    0.986E-04
DAV:   2    -0.346004838310E+02   -0.20232E-06   -0.43686E-07    48   0.678E-03    0.487E-04
DAV:   3    -0.346004840537E+02   -0.22264E-06   -0.71578E-08    48   0.218E-03    0.265E-04
DAV:   4    -0.346004843169E+02   -0.26324E-06   -0.36081E-08    48   0.103E-03    0.906E-05
DAV:   5    -0.346004844955E+02   -0.17857E-06   -0.26975E-08    48   0.522E-04    0.557E-05
DAV:   6    -0.346004847069E+02   -0.21143E-06   -0.27843E-08    48   0.359E-04
 118 F= -.34600485E+02 E0= -.34600485E+02  d E =0.134036E-03
       N       E                     dE             d eps       ncg     rms          rms(c)
DAV:   1    -0.346002169406E+02    0.26755E-03   -0.37176E-05    48   0.616E-02    0.180E-03
DAV:   2    -0.346002170681E+02   -0.12752E-06   -0.14896E-06    48   0.125E-02    0.903E-04
DAV:   3    -0.346002171726E+02   -0.10446E-06   -0.21396E-07    64   0.392E-03    0.485E-04
DAV:   4    -0.346002172652E+02   -0.92637E-07   -0.81181E-08    64   0.188E-03    0.171E-04
DAV:   5    -0.346002173176E+02   -0.52431E-07   -0.45666E-08    48   0.916E-04    0.102E-04
DAV:   6    -0.346002173725E+02   -0.54818E-07   -0.37489E-08    64   0.519E-04
 119 F= -.34600217E+02 E0= -.34600217E+02  d E =0.267334E-03
       N       E                     dE             d eps       ncg     rms          rms(c)
DAV:   1    -0.345998236796E+02    0.39364E-03   -0.72014E-05    48   0.856E-02    0.249E-03
DAV:   2    -0.345998238298E+02   -0.15017E-06   -0.29097E-06    48   0.175E-02    0.128E-03
DAV:   3    -0.345998239274E+02   -0.97593E-07   -0.42822E-07    48   0.553E-03    0.654E-04
DAV:   4    -0.345998239721E+02   -0.44738E-07   -0.14019E-07    48   0.255E-03    0.256E-04
DAV:   5    -0.345998239881E+02   -0.15973E-07   -0.66058E-08    48   0.128E-03    0.125E-04
DAV:   6    -0.345998239968E+02   -0.86925E-08   -0.45200E-08    48   0.710E-04
 120 F= -.34599824E+02 E0= -.34599824E+02  d E =0.393376E-03
       N       E                     dE             d eps       ncg     rms          rms(c)
DAV:   1    -0.345993152254E+02    0.50876E-03   -0.11237E-04    48   0.107E-01    0.311E-03
DAV:   2    -0.345993154643E+02   -0.23894E-06   -0.46321E-06    48   0.220E-02    0.165E-03
DAV:   3    -0.345993155949E+02   -0.13053E-06   -0.69033E-07    48   0.707E-03    0.822E-04
DAV:   4    -0.345993156398E+02   -0.44953E-07   -0.20644E-07    48   0.322E-03    0.359E-04
DAV:   5    -0.345993156484E+02   -0.86097E-08   -0.84725E-08    48   0.163E-03    0.143E-04
DAV:   6    -0.345993156514E+02   -0.30041E-08   -0.51419E-08    48   0.906E-04
 121 F= -.34599316E+02 E0= -.34599316E+02  d E =0.508345E-03
       N       E                     dE             d eps       ncg     rms          rms(c)
DAV:   1    -0.345987063099E+02    0.60934E-03   -0.15923E-04    48   0.127E-01    0.371E-03
DAV:   2    -0.345987066662E+02   -0.35631E-06   -0.66111E-06    48   0.262E-02    0.200E-03
DAV:   3    -0.345987068478E+02   -0.18161E-06   -0.98403E-07    48   0.849E-03    0.984E-04
DAV:   4    -0.345987069102E+02   -0.62418E-07   -0.28342E-07    48   0.386E-03    0.442E-04
DAV:   5    -0.345987069225E+02   -0.12242E-07   -0.10742E-07    48   0.197E-03    0.167E-04
DAV:   6    -0.345987069275E+02   -0.49779E-08   -0.59085E-08    48   0.110E-03
 122 F= -.34598707E+02 E0= -.34598707E+02  d E =0.608724E-03
       N       E                     dE             d eps       ncg     rms          rms(c)
DAV:   1    -0.345980189104E+02    0.68801E-03   -0.21836E-04    80   0.146E-01    0.418E-03
DAV:   2    -0.345980187276E+02    0.18278E-06   -0.23467E-06    48   0.135E-02    0.239E-03
DAV:   3    -0.345980188822E+02   -0.15459E-06   -0.45939E-07    48   0.554E-03    0.734E-04
DAV:   4    -0.345980189267E+02   -0.44555E-07   -0.14357E-07    48   0.255E-03    0.300E-04
DAV:   5    -0.345980189360E+02   -0.92431E-08   -0.65493E-08    48   0.135E-03    0.145E-04
DAV:   6    -0.345980189463E+02   -0.10310E-07   -0.44372E-08    48   0.746E-04
 123 F= -.34598019E+02 E0= -.34598019E+02  d E =0.687981E-03
       N       E                     dE             d eps       ncg     rms          rms(c)
DAV:   1    -0.345972004287E+02    0.81851E-03   -0.33254E-04    96   0.180E-01    0.517E-03
DAV:   2    -0.345972001106E+02    0.31810E-06   -0.34754E-06    64   0.166E-02    0.291E-03
DAV:   3    -0.345972003063E+02   -0.19569E-06   -0.63382E-07    48   0.659E-03    0.959E-04
DAV:   4    -0.345972003784E+02   -0.72107E-07   -0.18966E-07    48   0.311E-03    0.329E-04
DAV:   5    -0.345972003934E+02   -0.15011E-07   -0.76779E-08    48   0.160E-03    0.164E-04
DAV:   6    -0.345972004105E+02   -0.17136E-07   -0.46963E-08    48   0.863E-04
 124 F= -.34597200E+02 E0= -.34597200E+02  d E =0.818536E-03
       N       E                     dE             d eps       ncg     rms          rms(c)
DAV:   1    -0.345962793697E+02    0.92102E-03   -0.44364E-04    96   0.208E-01    0.596E-03
DAV:   2    -0.345962789586E+02    0.41108E-06   -0.46397E-06    64   0.193E-02    0.338E-03
DAV:   3    -0.345962792216E+02   -0.26302E-06   -0.83497E-07    48   0.763E-03    0.108E-03
DAV:   4    -0.345962793141E+02   -0.92513E-07   -0.24237E-07    48   0.356E-03    0.381E-04
DAV:   5    -0.345962793367E+02   -0.22570E-07   -0.92702E-08    48   0.184E-03    0.184E-04
DAV:   6    -0.345962793614E+02   -0.24743E-07   -0.52530E-08    48   0.101E-03
 125 F= -.34596279E+02 E0= -.34596279E+02  d E =0.921049E-03
       N       E                     dE             d eps       ncg     rms          rms(c)
DAV:   1    -0.345953435976E+02    0.93574E-03   -0.48256E-04    96   0.215E-01    0.619E-03
DAV:   2    -0.345953432514E+02    0.34620E-06   -0.50964E-06    48   0.200E-02    0.360E-03
DAV:   3    -0.345953436002E+02   -0.34874E-06   -0.93717E-07    48   0.818E-03    0.997E-04
DAV:   4    -0.345953436862E+02   -0.86051E-07   -0.26671E-07    48   0.366E-03    0.447E-04
DAV:   5    -0.345953437128E+02   -0.26545E-07   -0.10278E-07    48   0.198E-03    0.207E-04
DAV:   6    -0.345953437424E+02   -0.29611E-07   -0.57069E-08    48   0.110E-03
 126 F= -.34595344E+02 E0= -.34595344E+02  d E =0.935619E-03
       N       E                     dE             d eps       ncg     rms          rms(c)
DAV:   1    -0.345945026302E+02    0.84108E-03   -0.50150E-04    96   0.216E-01    0.625E-03
DAV:   2    -0.345945022963E+02    0.33389E-06   -0.52247E-06    48   0.204E-02    0.364E-03
DAV:   3    -0.345945026488E+02   -0.35252E-06   -0.93959E-07    48   0.827E-03    0.982E-04
DAV:   4    -0.345945027348E+02   -0.85999E-07   -0.27022E-07    48   0.371E-03    0.432E-04
DAV:   5    -0.345945027642E+02   -0.29390E-07   -0.10549E-07    48   0.201E-03    0.196E-04
DAV:   6    -0.345945027968E+02   -0.32539E-07   -0.58899E-08    48   0.112E-03
 127 F= -.34594503E+02 E0= -.34594503E+02  d E =0.840946E-03
       N       E                     dE             d eps       ncg     rms          rms(c)
DAV:   1    -0.345938802686E+02    0.62250E-03   -0.51573E-04    96   0.214E-01    0.618E-03
DAV:   2    -0.345938799725E+02    0.29610E-06   -0.51321E-06    48   0.205E-02    0.359E-03
DAV:   3    -0.345938802945E+02   -0.32199E-06   -0.89928E-07    48   0.819E-03    0.985E-04
DAV:   4    -0.345938803807E+02   -0.86229E-07   -0.26291E-07    48   0.376E-03    0.385E-04
DAV:   5    -0.345938804139E+02   -0.33175E-07   -0.10288E-07    48   0.201E-03    0.165E-04
DAV:   6    -0.345938804466E+02   -0.32762E-07   -0.58763E-08    48   0.111E-03
 128 F= -.34593880E+02 E0= -.34593880E+02  d E =0.622350E-03
       N       E                     dE             d eps       ncg     rms          rms(c)
DAV:   1    -0.345936234027E+02    0.25701E-03   -0.53688E-04    96   0.210E-01    0.605E-03
DAV:   2    -0.345936232304E+02    0.17232E-06   -0.51823E-06    48   0.204E-02    0.357E-03
DAV:   3    -0.345936235292E+02   -0.29878E-06   -0.87450E-07    48   0.830E-03    0.884E-04
DAV:   4    -0.345936235997E+02   -0.70559E-07   -0.25556E-07    48   0.381E-03    0.351E-04
DAV:   5    -0.345936236352E+02   -0.35470E-07   -0.99130E-08    48   0.198E-03    0.126E-04
DAV:   6    -0.345936236646E+02   -0.29396E-07   -0.58541E-08    48   0.109E-03
 129 F= -.34593624E+02 E0= -.34593624E+02  d E =0.256782E-03
       N       E                     dE             d eps       ncg     rms          rms(c)
DAV:   1    -0.345938963619E+02   -0.27273E-03   -0.66607E-04    96   0.232E-01    0.655E-03
DAV:   2    -0.345938962838E+02    0.78062E-07   -0.63984E-06    64   0.223E-02    0.398E-03
DAV:   3    -0.345938966261E+02   -0.34232E-06   -0.10663E-06    48   0.934E-03    0.859E-04
DAV:   4    -0.345938966820E+02   -0.55915E-07   -0.29350E-07    48   0.415E-03    0.403E-04
DAV:   5    -0.345938967123E+02   -0.30280E-07   -0.11071E-07    48   0.207E-03    0.133E-04
DAV:   6    -0.345938967403E+02   -0.27997E-07   -0.64371E-08    48   0.114E-03
 130 F= -.34593897E+02 E0= -.34593897E+02  d E =-.273076E-03
       N       E                     dE             d eps       ncg     rms          rms(c)
DAV:   1    -0.345948773685E+02   -0.98066E-03   -0.10887E-03    96   0.308E-01    0.879E-03
DAV:   2    -0.345948770164E+02    0.35210E-06   -0.11079E-05    64   0.299E-02    0.527E-03
DAV:   3    -0.345948775633E+02   -0.54686E-06   -0.18430E-06    64   0.123E-02    0.121E-03
DAV:   4    -0.345948776404E+02   -0.77085E-07   -0.46396E-07    48   0.529E-03    0.569E-04
DAV:   5    -0.345948776657E+02   -0.25324E-07   -0.16223E-07    48   0.274E-03    0.153E-04
DAV:   6    -0.345948776952E+02   -0.29496E-07   -0.81313E-08    48   0.146E-03
 131 F= -.34594878E+02 E0= -.34594878E+02  d E =-.980955E-03
       N       E                     dE             d eps       ncg     rms          rms(c)
DAV:   1    -0.345966937176E+02   -0.18161E-02   -0.20376E-03    96   0.435E-01    0.131E-02
DAV:   2    -0.345966922094E+02    0.15082E-05   -0.21041E-05    64   0.412E-02    0.755E-03
DAV:   3    -0.345966933283E+02   -0.11189E-05   -0.36204E-06    64   0.168E-02    0.191E-03
DAV:   4    -0.345966935157E+02   -0.18740E-06   -0.90157E-07    48   0.729E-03    0.857E-04
DAV:   5    -0.345966935626E+02   -0.46851E-07   -0.29200E-07    48   0.381E-03    0.294E-04
DAV:   6    -0.345966936279E+02   -0.65282E-07   -0.12619E-07    48   0.207E-03
 132 F= -.34596694E+02 E0= -.34596694E+02  d E =-.181593E-02
       N       E                     dE             d eps       ncg     rms          rms(c)
DAV:   1    -0.345993323583E+02   -0.26388E-02   -0.35125E-03    96   0.577E-01    0.185E-02
DAV:   2    -0.345993284263E+02    0.39319E-05   -0.35879E-05    64   0.527E-02    0.103E-02
DAV:   3    -0.345993307630E+02   -0.23367E-05   -0.65763E-06    64   0.219E-02    0.262E-03
DAV:   4    -0.345993311780E+02   -0.41495E-06   -0.16908E-06    48   0.958E-03    0.122E-03
DAV:   5    -0.345993313009E+02   -0.12289E-06   -0.55444E-07    48   0.515E-03    0.453E-04
DAV:   6    -0.345993314320E+02   -0.13108E-06   -0.22582E-07    48   0.281E-03
 133 F= -.34599331E+02 E0= -.34599331E+02  d E =-.263780E-02
       N       E                     dE             d eps       ncg     rms          rms(c)
DAV:   1    -0.346024898061E+02   -0.31585E-02   -0.49205E-03    96   0.683E-01    0.234E-02
DAV:   2    -0.346024822008E+02    0.76054E-05   -0.46534E-05    64   0.594E-02    0.127E-02
DAV:   3    -0.346024861405E+02   -0.39397E-05   -0.90931E-06    64   0.252E-02    0.320E-03
DAV:   4    -0.346024868277E+02   -0.68725E-06   -0.23207E-06    48   0.111E-02    0.147E-03
DAV:   5    -0.346024870657E+02   -0.23794E-06   -0.76500E-07    48   0.598E-03    0.510E-04
DAV:   6    -0.346024872796E+02   -0.21396E-06   -0.30604E-07    48   0.324E-03
 134 F= -.34602487E+02 E0= -.34602487E+02  d E =-.315585E-02
       N       E                     dE             d eps       ncg     rms          rms(c)
DAV:   1    -0.346024656180E+02    0.21448E-04   -0.75516E-06    48   0.261E-02    0.803E-04
DAV:   2    -0.346024657819E+02   -0.16395E-06   -0.45035E-07    48   0.655E-03    0.460E-04
DAV:   3    -0.346024659761E+02   -0.19415E-06   -0.10031E-07    48   0.239E-03    0.232E-04
DAV:   4    -0.346024661856E+02   -0.20958E-06   -0.49677E-08    48   0.122E-03    0.811E-05
DAV:   5    -0.346024663419E+02   -0.15624E-06   -0.34895E-08    48   0.703E-04    0.460E-05
DAV:   6    -0.346024665065E+02   -0.16463E-06   -0.31680E-08    48   0.454E-04
 135 F= -.34602467E+02 E0= -.34602467E+02  d E =0.207731E-04
