 vasp.5.4.1 24Jun15 (build Jan 13 2020 12:58:22) complex                        
  
 executed on           IFC91_ompi date 2020.02.03  09:53:44
 running on   15 total cores
 each image running on    1 cores
 distrk:  each k-point on    1 cores,    1 groups
 distr:  one band on NCORES_PER_BAND=   1 cores,    1 groups


--------------------------------------------------------------------------------------------------------


 INCAR:
 POTCAR:    PAW_PBE H 15Jun2001                   
 POTCAR:    PAW_PBE C 08Apr2002                   
 POTCAR:    PAW_PBE N 08Apr2002                   
 POTCAR:    PAW_PBE H 15Jun2001                   
   VRHFIN =H: ultrasoft test                                                    
   LEXCH  = PE                                                                  
   EATOM  =    12.4884 eV,    0.9179 Ry                                         
                                                                                
   TITEL  = PAW_PBE H 15Jun2001                                                 
   LULTRA =        F    use ultrasoft PP ?                                      
   IUNSCR =        0    unscreen: 0-lin 1-nonlin 2-no                           
   RPACOR =    0.000    partial core radius                                     
   POMASS =    1.000; ZVAL   =    1.000    mass and valenz                      
   RCORE  =    1.100    outmost cutoff radius                                   
   RWIGS  =    0.700; RWIGS  =    0.370    wigner-seitz radius (au A)           
   ENMAX  =  250.000; ENMIN  =  200.000 eV                                      
   RCLOC  =    0.701    cutoff for local pot                                    
   LCOR   =        T    correct aug charges                                     
   LPAW   =        T    paw PP                                                  
   EAUG   =  400.000                                                            
   RMAX   =    1.123    core radius for proj-oper                               
   RAUG   =    1.200    factor for augmentation sphere                          
   RDEP   =    1.112    radius for radial grids                                 
   RDEPT  =    0.926    core radius for aug-charge                              
                                                                                
   Atomic configuration                                                         
    2 entries                                                                   
     n  l   j            E        occ.                                          
     1  0  0.50        -6.4927   1.0000                                         
     2  1  0.50        -3.4015   0.0000                                         
   Description                                                                  
     l       E           TYP  RCUT    TYP  RCUT                                 
     0     -6.4927494     23  1.100                                             
     0      6.8029130     23  1.100                                             
     1     -4.0817478     23  1.100                                             
  local pseudopotential read in
  atomic valenz-charges read in
  non local Contribution for L=           0  read in
    real space projection operators read in
  non local Contribution for L=           0  read in
    real space projection operators read in
  non local Contribution for L=           1  read in
    real space projection operators read in
    PAW grid and wavefunctions read in
 
   number of l-projection  operators is LMAX  =           3
   number of lm-projection operators is LMMAX =           5
 
 POTCAR:    PAW_PBE C 08Apr2002                   
   VRHFIN =C: s2p2                                                              
   LEXCH  = PE                                                                  
   EATOM  =   147.1560 eV,   10.8157 Ry                                         
                                                                                
   TITEL  = PAW_PBE C 08Apr2002                                                 
   LULTRA =        F    use ultrasoft PP ?                                      
   IUNSCR =        1    unscreen: 0-lin 1-nonlin 2-no                           
   RPACOR =    1.200    partial core radius                                     
   POMASS =   12.011; ZVAL   =    4.000    mass and valenz                      
   RCORE  =    1.500    outmost cutoff radius                                   
   RWIGS  =    1.630; RWIGS  =    0.863    wigner-seitz radius (au A)           
   ENMAX  =  400.000; ENMIN  =  300.000 eV                                      
   ICORE  =        2    local potential                                         
   LCOR   =        T    correct aug charges                                     
   LPAW   =        T    paw PP                                                  
   EAUG   =  644.873                                                            
   DEXC   =    0.000                                                            
   RMAX   =    1.529    core radius for proj-oper                               
   RAUG   =    1.300    factor for augmentation sphere                          
   RDEP   =    1.501    radius for radial grids                                 
   RDEPT  =    1.300    core radius for aug-charge                              
                                                                                
   Atomic configuration                                                         
    4 entries                                                                   
     n  l   j            E        occ.                                          
     1  0  0.50      -273.3789   2.0000                                         
     2  0  0.50       -13.7508   2.0000                                         
     2  1  0.50        -5.2854   2.0000                                         
     3  2  1.50        -5.4423   0.0000                                         
   Description                                                                  
     l       E           TYP  RCUT    TYP  RCUT                                 
     0    -13.7508458     23  1.200                                             
     0     -8.2022199     23  1.200                                             
     1     -5.2854383     23  1.500                                             
     1     34.0145650     23  1.500                                             
     2     -5.4423304      7  1.500                                             
  local pseudopotential read in
  partial core-charges read in
  partial kinetic energy density read in
  atomic valenz-charges read in
  non local Contribution for L=           0  read in
    real space projection operators read in
  non local Contribution for L=           0  read in
    real space projection operators read in
  non local Contribution for L=           1  read in
    real space projection operators read in
  non local Contribution for L=           1  read in
    real space projection operators read in
    PAW grid and wavefunctions read in
 
   number of l-projection  operators is LMAX  =           4
   number of lm-projection operators is LMMAX =           8
 
 POTCAR:    PAW_PBE N 08Apr2002                   
   VRHFIN =N: s2p3                                                              
   LEXCH  = PE                                                                  
   EATOM  =   264.5486 eV,   19.4438 Ry                                         
                                                                                
   TITEL  = PAW_PBE N 08Apr2002                                                 
   LULTRA =        F    use ultrasoft PP ?                                      
   IUNSCR =        1    unscreen: 0-lin 1-nonlin 2-no                           
   RPACOR =    1.200    partial core radius                                     
   POMASS =   14.001; ZVAL   =    5.000    mass and valenz                      
   RCORE  =    1.500    outmost cutoff radius                                   
   RWIGS  =    1.400; RWIGS  =    0.741    wigner-seitz radius (au A)           
   ENMAX  =  400.000; ENMIN  =  300.000 eV                                      
   ICORE  =        2    local potential                                         
   LCOR   =        T    correct aug charges                                     
   LPAW   =        T    paw PP                                                  
   EAUG   =  627.112                                                            
   DEXC   =    0.000                                                            
   RMAX   =    1.529    core radius for proj-oper                               
   RAUG   =    1.300    factor for augmentation sphere                          
   RDEP   =    1.514    radius for radial grids                                 
   RDEPT  =    1.338    core radius for aug-charge                              
                                                                                
   Atomic configuration                                                         
    4 entries                                                                   
     n  l   j            E        occ.                                          
     1  0  0.50      -384.7179   2.0000                                         
     2  0  0.50       -18.5828   2.0000                                         
     2  1  0.50        -7.0898   3.0000                                         
     3  2  1.50        -6.8029   0.0000                                         
   Description                                                                  
     l       E           TYP  RCUT    TYP  RCUT                                 
     0    -18.5828119     23  1.200                                             
     0    -13.5018863     23  1.200                                             
     1     -7.0897853     23  1.500                                             
     1      9.5240782     23  1.500                                             
     2     -6.8029130      7  1.500                                             
  local pseudopotential read in
  partial core-charges read in
  partial kinetic energy density read in
  atomic valenz-charges read in
  non local Contribution for L=           0  read in
    real space projection operators read in
  non local Contribution for L=           0  read in
    real space projection operators read in
  non local Contribution for L=           1  read in
    real space projection operators read in
  non local Contribution for L=           1  read in
    real space projection operators read in
    PAW grid and wavefunctions read in
 
   number of l-projection  operators is LMAX  =           4
   number of lm-projection operators is LMMAX =           8
 

 ----------------------------------------------------------------------------- 
|                                                                             |
|  ADVICE TO THIS USER RUNNING 'VASP/VAMP'   (HEAR YOUR MASTER'S VOICE ...):  |
|                                                                             |
|      You have a (more or less) 'small supercell' and for smaller cells      |
|      it is recommended  to use the reciprocal-space projection scheme!      |
|      The real space optimization is not  efficient for small cells and it   |
|      is also less accurate ...                                              |
|      Therefore set LREAL=.FALSE. in the  INCAR file                         |
|                                                                             |
 ----------------------------------------------------------------------------- 

 Optimization of the real space projectors (new method)

 maximal supplied QI-value         = 34.20
 optimisation between [QCUT,QGAM] = [  9.92, 20.18] = [ 27.55,114.04] Ry 
 Optimized for a Real-space Cutoff    1.26 Angstroem

   l    n(q)    QCUT    max X(q) W(low)/X(q) W(high)/X(q)  e(spline) 
   0      8     9.919    19.460    0.50E-03    0.23E-03    0.29E-06
   0      8     9.919    12.209    0.48E-03    0.23E-03    0.28E-06
   1      7     9.919     4.655    0.17E-03    0.75E-03    0.30E-06
 Optimization of the real space projectors (new method)

 maximal supplied QI-value         = 25.13
 optimisation between [QCUT,QGAM] = [ 10.05, 20.36] = [ 28.30,116.06] Ry 
 Optimized for a Real-space Cutoff    1.30 Angstroem

   l    n(q)    QCUT    max X(q) W(low)/X(q) W(high)/X(q)  e(spline) 
   0      8    10.053   115.676    0.49E-03    0.72E-03    0.18E-06
   0      8    10.053    87.132    0.49E-03    0.71E-03    0.18E-06
   1      7    10.053     4.429    0.32E-03    0.31E-03    0.18E-06
   1      7    10.053     2.733    0.23E-03    0.19E-03    0.20E-06
 Optimization of the real space projectors (new method)

 maximal supplied QI-value         = 25.13
 optimisation between [QCUT,QGAM] = [ 10.05, 20.36] = [ 28.30,116.06] Ry 
 Optimized for a Real-space Cutoff    1.65 Angstroem

   l    n(q)    QCUT    max X(q) W(low)/X(q) W(high)/X(q)  e(spline) 
   0     10    10.053    79.467    0.76E-04    0.72E-04    0.56E-06
   0     10    10.053    66.151    0.76E-04    0.72E-04    0.55E-06
   1     10    10.053     8.350    0.25E-03    0.92E-03    0.41E-05
   1     10    10.053     5.531    0.27E-03    0.10E-02    0.45E-05
  PAW_PBE H 15Jun2001                   :
 energy of atom  1       EATOM=  -12.4884
 kinetic energy error for atom=    0.0098 (will be added to EATOM!!)
  PAW_PBE C 08Apr2002                   :
 energy of atom  2       EATOM= -147.1560
 kinetic energy error for atom=    0.0288 (will be added to EATOM!!)
  PAW_PBE N 08Apr2002                   :
 energy of atom  3       EATOM= -264.5486
 kinetic energy error for atom=    0.0736 (will be added to EATOM!!)
 
 
 POSCAR: H3 C2 N1                                
  positions in direct lattice
  velocities in cartesian coordinates
 exchange correlation table for  LEXCH =        8
   RHO(1)=    0.500       N(1)  =     2000
   RHO(2)=  100.500       N(2)  =     4000

 VTST: version 3.2, (02/03/18)

 CHAIN: initializing optimizer
 
 OPT: Using FIRE optimizer
 OPT: FIRE, Init
 OPT: FIRE, MAXMOVE       0.20000
 OPT: FIRE, TIMESTEP      0.10000
 OPT: FIRE, FTIMEMAX      1.00000
 OPT: FIRE, FTIMEINC      1.10000
 OPT: FIRE, FTIMEDEC      0.50000
 OPT: FIRE, FALPHADEC     0.99000
 OPT: FIRE, FALPHA        0.10000
 OPT: FIRE, FNMIN         5
 
 CHAIN: Read ICHAIN            0
 CHAIN: Running the NEB
 NEB:          SPRING     -5.000000
 NEB:          LCLIMB      T
 NEB:     LTANGENTOLD      F
 NEB:           LDNEB      F
 NEB:        LDNEBORG      F
 NEB:        LNEBCELL      F
 NEB:          EFIRST      0.000000
 NEB:           ELAST      0.000000
 
 POSCAR: H3 C2 N1                                
  positions in direct lattice
  No initial velocities read in
 
 POSCAR: H3 C2 N1                                
  positions in direct lattice
  No initial velocities read in
 


--------------------------------------------------------------------------------------------------------


 ion  position               nearest neighbor table
   1  0.480  0.464  0.501-   4 1.10
   2  0.471  0.519  0.478-   4 1.10
   3  0.475  0.511  0.537-   4 1.08
   4  0.487  0.500  0.505-   3 1.08   2 1.10   1 1.10   6 1.53
   5  0.551  0.497  0.472-   6 1.20
   6  0.537  0.509  0.507-   5 1.20   4 1.53
 
  LATTYP: Found a simple cubic cell.
 ALAT       =    30.0000000000
  
  Lattice vectors:
  
 A1 = (  30.0000000000,   0.0000000000,   0.0000000000)
 A2 = (   0.0000000000,  30.0000000000,   0.0000000000)
 A3 = (   0.0000000000,   0.0000000000,  30.0000000000)


Analysis of symmetry for initial positions (statically):
=====================================================================
 Subroutine PRICEL returns:
 Original cell was already a primitive cell.
 

 Routine SETGRP: Setting up the symmetry group for a 
 simple cubic supercell.


 Subroutine GETGRP returns: Found  1 space group operations
 (whereof  1 operations were pure point group operations)
 out of a pool of 48 trial point group operations.


The static configuration has the point symmetry C_1 .


Analysis of symmetry for dynamics (positions and initial velocities):
=====================================================================
 Subroutine PRICEL returns:
 Original cell was already a primitive cell.
 

 Routine SETGRP: Setting up the symmetry group for a 
 simple cubic supercell.


 Subroutine GETGRP returns: Found  1 space group operations
 (whereof  1 operations were pure point group operations)
 out of a pool of 48 trial point group operations.


The dynamic configuration has the point symmetry C_1 .
 
 
 KPOINTS: Mo2C                                    

Automatic generation of k-mesh.
Space group operators:
 irot       det(A)        alpha          n_x          n_y          n_z        tau_x        tau_y        tau_z
    1     1.000000     0.000000     1.000000     0.000000     0.000000     0.000000     0.000000     0.000000
 
 Subroutine IBZKPT returns following result:
 ===========================================
 
 Found      4 irreducible k-points:
 
 Following reciprocal coordinates:
            Coordinates               Weight
  0.250000  0.250000  0.250000      2.000000
 -0.250000  0.250000  0.250000      2.000000
  0.250000 -0.250000  0.250000      2.000000
 -0.250000 -0.250000  0.250000      2.000000
 
 Following cartesian coordinates:
            Coordinates               Weight
  0.008333  0.008333  0.008333      2.000000
 -0.008333  0.008333  0.008333      2.000000
  0.008333 -0.008333  0.008333      2.000000
 -0.008333 -0.008333  0.008333      2.000000
 


--------------------------------------------------------------------------------------------------------




 Dimension of arrays:
   k-points           NKPTS =      4   k-points in BZ     NKDIM =      4   number of bands    NBANDS=     12
   number of dos      NEDOS =    301   number of ions     NIONS =      6
   non local maximal  LDIM  =      4   non local SUM 2l+1 LMDIM =      8
   total plane-waves  NPLWV = ******
   max r-space proj   IRMAX =   2395   max aug-charges    IRDMAX=   1738
   dimension x,y,z NGX =   150 NGY =  150 NGZ =  150
   dimension x,y,z NGXF=   300 NGYF=  300 NGZF=  300
   support grid    NGXF=   300 NGYF=  300 NGZF=  300
   ions per type =               3   2   1
 NGX,Y,Z   is equivalent  to a cutoff of   8.31,  8.31,  8.31 a.u.
 NGXF,Y,Z  is equivalent  to a cutoff of  16.62, 16.62, 16.62 a.u.


 I would recommend the setting:
   dimension x,y,z NGX =   147 NGY =  147 NGZ =  147
 SYSTEM =  unknown system                          
 POSCAR =  H3 C2 N1                                

 Startparameter for this run:
   NWRITE =      2    write-flag & timer
   PREC   = normal    normal or accurate (medium, high low for compatibility)
   ISTART =      0    job   : 0-new  1-cont  2-samecut
   ICHARG =      2    charge: 1-file 2-atom 10-const
   ISPIN  =      1    spin polarized calculation?
   LNONCOLLINEAR =      F non collinear calculations
   LSORBIT =      F    spin-orbit coupling
   INIWAV =      1    electr: 0-lowe 1-rand  2-diag
   LASPH  =      F    aspherical Exc in radial PAW
   METAGGA=      F    non-selfconsistent MetaGGA calc.

 Electronic Relaxation 1
   ENCUT  =  400.0 eV  29.40 Ry    5.42 a.u.  48.92 48.92 48.92*2*pi/ulx,y,z
   ENINI  =  400.0     initial cutoff
   ENAUG  =  644.9 eV  augmentation charge cutoff
   NELM   =    500;   NELMIN=  6; NELMDL= -5     # of ELM steps 
   EDIFF  = 0.1E-03   stopping-criterion for ELM
   LREAL  =      T    real-space projection
   NLSPLINE    = F    spline interpolate recip. space projectors
   LCOMPAT=      F    compatible to vasp.4.4
   GGA_COMPAT  = T    GGA compatible to vasp.4.4-vasp.4.6
   LMAXPAW     = -100 max onsite density
   LMAXMIX     =    2 max onsite mixed and CHGCAR
   VOSKOWN=      0    Vosko Wilk Nusair interpolation
   ROPT   =   -0.00050  -0.00050  -0.00050
 Ionic relaxation
   EDIFFG = -.1E+00   stopping-criterion for IOM
   NSW    =    300    number of steps for IOM
   NBLOCK =      1;   KBLOCK =    300    inner block; outer block 
   IBRION =      3    ionic relax: 0-MD 1-quasi-New 2-CG
   NFREE  =      0    steps in history (QN), initial steepest desc. (CG)
   ISIF   =      2    stress and relaxation
   IWAVPR =     11    prediction:  0-non 1-charg 2-wave 3-comb
   ISYM   =      2    0-nonsym 1-usesym 2-fastsym
   LCORR  =      T    Harris-Foulkes like correction to forces

   POTIM  = 0.0000    time-step for ionic-motion
   TEIN   =    0.0    initial temperature
   TEBEG  =    0.0;   TEEND  =   0.0 temperature during run
   SMASS  =   2.00    Nose mass-parameter (am)
   estimated Nose-frequenzy (Omega)   =  0.12E+10 period in steps =  0.00 mass=   0.137E-25a.u.
   SCALEE = 1.0000    scale energy and forces
   NPACO  =    256;   APACO  = 16.0  distance and # of slots for P.C.
   PSTRESS=    0.0 pullay stress

  Mass of Ions in am
   POMASS =   1.00 12.01 14.00
  Ionic Valenz
   ZVAL   =   1.00  4.00  5.00
  Atomic Wigner-Seitz radii
   RWIGS  =  -1.00 -1.00 -1.00
  virtual crystal weights 
   VCA    =   1.00  1.00  1.00
   NELECT =      16.0000    total number of electrons
   NUPDOWN=      -1.0000    fix difference up-down

 DOS related values:
   EMIN   =  10.00;   EMAX   =-10.00  energy-range for DOS
   EFERMI =   0.00
   ISMEAR =     0;   SIGMA  =   0.20  broadening in eV -4-tet -1-fermi 0-gaus

 Electronic relaxation 2 (details)
   IALGO  =     38    algorithm
   LDIAG  =      T    sub-space diagonalisation (order eigenvalues)
   LSUBROT=      F    optimize rotation matrix (better conditioning)
   TURBO    =      0    0=normal 1=particle mesh
   IRESTART =      0    0=no restart 2=restart with 2 vectors
   NREBOOT  =      0    no. of reboots
   NMIN     =      0    reboot dimension
   EREF     =   0.00    reference energy to select bands
   IMIX   =      4    mixing-type and parameters
     AMIX     =   0.40;   BMIX     =  1.00
     AMIX_MAG =   1.60;   BMIX_MAG =  1.00
     AMIN     =   0.10
     WC   =   100.;   INIMIX=   1;  MIXPRE=   1;  MAXMIX= -45

 Intra band minimization:
   WEIMIN = 0.0010     energy-eigenvalue tresh-hold
   EBREAK =  0.21E-05  absolut break condition
   DEPER  =   0.30     relativ break condition  

   TIME   =   0.40     timestep for ELM

  volume/ion in A,a.u.               =    4500.00     30367.50
  Fermi-wavevector in a.u.,A,eV,Ry     =   0.137508  0.259852  0.257264  0.018908
  Thomas-Fermi vector in A             =   0.790710
 
 Write flags
   LWAVE  =      F    write WAVECAR
   LCHARG =      F    write CHGCAR
   LVTOT  =      F    write LOCPOT, total local potential
   LVHAR  =      F    write LOCPOT, Hartree potential only
   LELF   =      F    write electronic localiz. function (ELF)
   LORBIT =      0    0 simple, 1 ext, 2 COOP (PROOUT)


 Dipole corrections
   LMONO  =      F    monopole corrections only (constant potential shift)
   LDIPOL =      F    correct potential (dipole corrections)
   IDIPOL =      0    1-x, 2-y, 3-z, 4-all directions 
   EPSILON=  1.0000000 bulk dielectric constant

 Exchange correlation treatment:
   GGA     =    PE    GGA type
   LEXCH   =     8    internal setting for exchange type
   VOSKOWN=      0    Vosko Wilk Nusair interpolation
   LHFCALC =     F    Hartree Fock is set to
   LHFONE  =     F    Hartree Fock one center treatment
   AEXX    =    0.0000 exact exchange contribution

 Linear response parameters
   LEPSILON=     F    determine dielectric tensor
   LRPA    =     F    only Hartree local field effects (RPA)
   LNABLA  =     F    use nabla operator in PAW spheres
   LVEL    =     F    velocity operator in full k-point grid
   LINTERFAST=   F  fast interpolation
   KINTER  =     0    interpolate to denser k-point grid
   CSHIFT  =0.1000    complex shift for real part using Kramers Kronig
   OMEGAMAX=  -1.0    maximum frequency
   DEG_THRESHOLD= 0.2000000E-02 threshold for treating states as degnerate
   RTIME   =    0.100 relaxation time in fs

 Orbital magnetization related:
   ORBITALMAG=     F  switch on orbital magnetization
   LCHIMAG   =     F  perturbation theory with respect to B field
   DQ        =  0.001000  dq finite difference perturbation B field



--------------------------------------------------------------------------------------------------------


 quickmin algorithm: (dynamic with friction)
 charge density and potential will be updated during run
 non-spin polarized calculation
 Variant of blocked Davidson
 Davidson routine will perform the subspace rotation
 perform sub-space diagonalisation
    after iterative eigenvector-optimisation
 modified Broyden-mixing scheme, WC =      100.0
 initial mixing is a Kerker type mixing with AMIX =  0.4000 and BMIX =      1.0000
 Hartree-type preconditioning will be used
 using additional bands            4
 real space projection scheme for non local part
 use partial core corrections
 calculate Harris-corrections to forces 
   (improved forces if not selfconsistent)
 use gradient corrections 
 use of overlap-Matrix (Vanderbilt PP)
 Gauss-broadening in eV      SIGMA  =   0.20


--------------------------------------------------------------------------------------------------------


  energy-cutoff  :      400.00
  volume of cell :    27000.00
      direct lattice vectors                 reciprocal lattice vectors
    30.000000000  0.000000000  0.000000000     0.033333333  0.000000000  0.000000000
     0.000000000 30.000000000  0.000000000     0.000000000  0.033333333  0.000000000
     0.000000000  0.000000000 30.000000000     0.000000000  0.000000000  0.033333333

  length of vectors
    30.000000000 30.000000000 30.000000000     0.033333333  0.033333333  0.033333333


 
 k-points in units of 2pi/SCALE and weight: Mo2C                                    
   0.00833333  0.00833333  0.00833333       0.250
  -0.00833333  0.00833333  0.00833333       0.250
   0.00833333 -0.00833333  0.00833333       0.250
  -0.00833333 -0.00833333  0.00833333       0.250
 
 k-points in reciprocal lattice and weights: Mo2C                                    
   0.25000000  0.25000000  0.25000000       0.250
  -0.25000000  0.25000000  0.25000000       0.250
   0.25000000 -0.25000000  0.25000000       0.250
  -0.25000000 -0.25000000  0.25000000       0.250
 
 position of ions in fractional coordinates (direct lattice) 
   0.48012490  0.46409805  0.50052458
   0.47083885  0.51869455  0.47788084
   0.47498998  0.51125680  0.53733389
   0.48656377  0.49989582  0.50515089
   0.55080764  0.49678551  0.47193411
   0.53668492  0.50928822  0.50717565
 
 position of ions in cartesian coordinates  (Angst):
  14.40374697 13.92294154 15.01573752
  14.12516554 15.56083665 14.33642517
  14.24969937 15.33770386 16.12001668
  14.59691307 14.99687466 15.15452678
  16.52422907 14.90356518 14.15802327
  16.10054772 15.27864655 15.21526943
 


--------------------------------------------------------------------------------------------------------


 k-point  1 :   0.2500 0.2500 0.2500  plane waves:  490454
 k-point  2 :  -0.2500 0.2500 0.2500  plane waves:  490454
 k-point  3 :   0.2500-0.2500 0.2500  plane waves:  490454
 k-point  4 :  -0.2500-0.2500 0.2500  plane waves:  490454

 maximum and minimum number of plane-waves per node :    490454   490454

 maximum number of plane-waves:    490454
 maximum index in each direction: 
   IXMAX=   49   IYMAX=   49   IZMAX=   48
   IXMIN=  -49   IYMIN=  -49   IZMIN=  -49

 WARNING: aliasing errors must be expected set NGX to 198 to avoid them
 WARNING: aliasing errors must be expected set NGY to 198 to avoid them
 WARNING: aliasing errors must be expected set NGZ to 196 to avoid them
 aliasing errors are usually negligible using standard VASP settings
 and one can safely disregard these warnings

 serial   3D FFT for wavefunctions
 parallel 3D FFT for charge:
    minimum data exchange during FFTs selected (reduces bandwidth)


 total amount of memory used by VASP on root node  3203887. kBytes
========================================================================

   base      :      30000. kBytes
   nonlr-proj:        691. kBytes
   fftplans  :     924480. kBytes
   grid      :    1872000. kBytes
   one-center:         18. kBytes
   wavefun   :     376698. kBytes
 
     INWAV:  cpu time    0.0000: real time    0.0004
 Broyden mixing: mesh for mixing (old mesh)
   NGX = 97   NGY = 97   NGZ = 97
  (NGX  =300   NGY  =300   NGZ  =300)
  gives a total of 912673 points

 initial charge density was supplied:
 charge density of overlapping atoms calculated
 number of electron      16.0000000 magnetization 
 keeping initial charge density in first step


--------------------------------------------------------------------------------------------------------


 Maximum index for non-local projection operator         2266
 Maximum index for augmentation-charges         1477 (set IRDMAX)


--------------------------------------------------------------------------------------------------------


 First call to EWALD:  gamma=   0.059
 Maximum number of real-space cells 3x 3x 3
 Maximum number of reciprocal cells 3x 3x 3

 FEWALD executed in parallel
    FEWALD:  cpu time    0.0020: real time    0.0020


----------------------------------------- Iteration    1(   1)  ---------------------------------------


    POTLOK:  cpu time   19.1621: real time   19.1465
    SETDIJ:  cpu time    0.0080: real time    0.0080
     EDDAV:  cpu time   87.6447: real time   87.5722
       DOS:  cpu time    0.0000: real time    0.0003
    --------------------------------------------
      LOOP:  cpu time  106.8188: real time  106.7313

 eigenvalue-minimisations  :   160
 total energy-change (2. order) : 0.1095468E+03  (-0.2136963E+03)
 number of electron      16.0000000 magnetization 
 augmentation part       16.0000000 magnetization 

 Free energy of the ion-electron system (eV)
  ---------------------------------------------------
  alpha Z        PSCENC =         0.04144063
  Ewald energy   TEWEN  =       708.61276973
  -Hartree energ DENC   =     -1127.14004292
  -exchange      EXHF   =         0.00000000
  -V(xc)+E(xc)   XCENC  =        51.25593054
  PAW double counting   =       428.37890668     -430.73533574
  entropy T*S    EENTRO =        -0.22301659
  eigenvalues    EBANDS =      -116.80921614
  atomic energy  EATOM  =       596.16534815
  Solvation  Ediel_sol  =         0.00000000
  ---------------------------------------------------
  free energy    TOTEN  =       109.54678435 eV

  energy without entropy =      109.76980093  energy(sigma->0) =      109.65829264


--------------------------------------------------------------------------------------------------------




----------------------------------------- Iteration    1(   2)  ---------------------------------------


     EDDAV:  cpu time  113.3548: real time  113.2610
       DOS:  cpu time    0.0000: real time    0.0002
    --------------------------------------------
      LOOP:  cpu time  113.3548: real time  113.2639

 eigenvalue-minimisations  :   192
 total energy-change (2. order) :-0.1126111E+03  (-0.1094578E+03)
 number of electron      16.0000000 magnetization 
 augmentation part       16.0000000 magnetization 

 Free energy of the ion-electron system (eV)
  ---------------------------------------------------
  alpha Z        PSCENC =         0.04144063
  Ewald energy   TEWEN  =       708.61276973
  -Hartree energ DENC   =     -1127.14004292
  -exchange      EXHF   =         0.00000000
  -V(xc)+E(xc)   XCENC  =        51.25593054
  PAW double counting   =       428.37890668     -430.73533574
  entropy T*S    EENTRO =         0.00000000
  eigenvalues    EBANDS =      -229.64333982
  atomic energy  EATOM  =       596.16534815
  Solvation  Ediel_sol  =         0.00000000
  ---------------------------------------------------
  free energy    TOTEN  =        -3.06432274 eV

  energy without entropy =       -3.06432274  energy(sigma->0) =       -3.06432274


--------------------------------------------------------------------------------------------------------




----------------------------------------- Iteration    1(   3)  ---------------------------------------


     EDDAV:  cpu time   83.0944: real time   83.0277
       DOS:  cpu time    0.0000: real time    0.0002
    --------------------------------------------
      LOOP:  cpu time   83.0964: real time   83.0308

 eigenvalue-minimisations  :   128
 total energy-change (2. order) :-0.3136472E+02  (-0.3123099E+02)
 number of electron      16.0000000 magnetization 
 augmentation part       16.0000000 magnetization 

 Free energy of the ion-electron system (eV)
  ---------------------------------------------------
  alpha Z        PSCENC =         0.04144063
  Ewald energy   TEWEN  =       708.61276973
  -Hartree energ DENC   =     -1127.14004292
  -exchange      EXHF   =         0.00000000
  -V(xc)+E(xc)   XCENC  =        51.25593054
  PAW double counting   =       428.37890668     -430.73533574
  entropy T*S    EENTRO =         0.00000000
  eigenvalues    EBANDS =      -261.00805893
  atomic energy  EATOM  =       596.16534815
  Solvation  Ediel_sol  =         0.00000000
  ---------------------------------------------------
  free energy    TOTEN  =       -34.42904185 eV

  energy without entropy =      -34.42904185  energy(sigma->0) =      -34.42904185


--------------------------------------------------------------------------------------------------------




----------------------------------------- Iteration    1(   4)  ---------------------------------------


     EDDAV:  cpu time   74.9696: real time   74.9085
       DOS:  cpu time    0.0000: real time    0.0002
    --------------------------------------------
      LOOP:  cpu time   74.9716: real time   74.9117

 eigenvalue-minimisations  :   112
 total energy-change (2. order) :-0.3218686E+01  (-0.3172400E+01)
 number of electron      16.0000000 magnetization 
 augmentation part       16.0000000 magnetization 

 Free energy of the ion-electron system (eV)
  ---------------------------------------------------
  alpha Z        PSCENC =         0.04144063
  Ewald energy   TEWEN  =       708.61276973
  -Hartree energ DENC   =     -1127.14004292
  -exchange      EXHF   =         0.00000000
  -V(xc)+E(xc)   XCENC  =        51.25593054
  PAW double counting   =       428.37890668     -430.73533574
  entropy T*S    EENTRO =         0.00000000
  eigenvalues    EBANDS =      -264.22674482
  atomic energy  EATOM  =       596.16534815
  Solvation  Ediel_sol  =         0.00000000
  ---------------------------------------------------
  free energy    TOTEN  =       -37.64772774 eV

  energy without entropy =      -37.64772774  energy(sigma->0) =      -37.64772774


--------------------------------------------------------------------------------------------------------




----------------------------------------- Iteration    1(   5)  ---------------------------------------


     EDDAV:  cpu time   85.8110: real time   85.7402
       DOS:  cpu time    0.0000: real time    0.0002
    CHARGE:  cpu time    5.8131: real time    5.8092
    MIXING:  cpu time    0.6379: real time    0.6365
    --------------------------------------------
      LOOP:  cpu time   92.2620: real time   92.1890

 eigenvalue-minimisations  :   132
 total energy-change (2. order) :-0.1003847E+00  (-0.9921034E-01)
 number of electron      16.0000008 magnetization 
 augmentation part        0.4759709 magnetization 

 Broyden mixing:
  rms(total) = 0.10725E+01    rms(broyden)= 0.10712E+01
  rms(prec ) = 0.11072E+01
  weight for this iteration     100.00

 Free energy of the ion-electron system (eV)
  ---------------------------------------------------
  alpha Z        PSCENC =         0.04144063
  Ewald energy   TEWEN  =       708.61276973
  -Hartree energ DENC   =     -1127.14004292
  -exchange      EXHF   =         0.00000000
  -V(xc)+E(xc)   XCENC  =        51.25593054
  PAW double counting   =       428.37890668     -430.73533574
  entropy T*S    EENTRO =         0.00000000
  eigenvalues    EBANDS =      -264.32712955
  atomic energy  EATOM  =       596.16534815
  Solvation  Ediel_sol  =         0.00000000
  ---------------------------------------------------
  free energy    TOTEN  =       -37.74811247 eV

  energy without entropy =      -37.74811247  energy(sigma->0) =      -37.74811247


--------------------------------------------------------------------------------------------------------




----------------------------------------- Iteration    1(   6)  ---------------------------------------


    POTLOK:  cpu time   24.8012: real time   24.7822
    SETDIJ:  cpu time    0.0080: real time    0.0082
     EDDAV:  cpu time   83.6153: real time   83.5469
       DOS:  cpu time    0.0000: real time    0.0002
    CHARGE:  cpu time    6.0171: real time    6.0126
    MIXING:  cpu time    0.7519: real time    0.7516
    --------------------------------------------
      LOOP:  cpu time  115.1965: real time  115.1054

 eigenvalue-minimisations  :   128
 total energy-change (2. order) : 0.2537423E+01  (-0.4492555E+00)
 number of electron      16.0000006 magnetization 
 augmentation part        0.4281402 magnetization 

 Broyden mixing:
  rms(total) = 0.57230E+00    rms(broyden)= 0.57218E+00
  rms(prec ) = 0.58696E+00
  weight for this iteration     100.00

 eigenvalues of (default mixing * dielectric matrix)
  average eigenvalue GAMMA=   1.4706
  1.4706

 Free energy of the ion-electron system (eV)
  ---------------------------------------------------
  alpha Z        PSCENC =         0.04144063
  Ewald energy   TEWEN  =       708.61276973
  -Hartree energ DENC   =     -1155.35827570
  -exchange      EXHF   =         0.00000000
  -V(xc)+E(xc)   XCENC  =        52.83157695
  PAW double counting   =       693.92182269     -696.57035581
  entropy T*S    EENTRO =         0.00000000
  eigenvalues    EBANDS =      -234.85501633
  atomic energy  EATOM  =       596.16534815
  Solvation  Ediel_sol  =         0.00000000
  ---------------------------------------------------
  free energy    TOTEN  =       -35.21068969 eV

  energy without entropy =      -35.21068969  energy(sigma->0) =      -35.21068969


--------------------------------------------------------------------------------------------------------




----------------------------------------- Iteration    1(   7)  ---------------------------------------


    POTLOK:  cpu time   24.6663: real time   24.6463
    SETDIJ:  cpu time    0.0080: real time    0.0081
     EDDAV:  cpu time   83.7143: real time   83.6452
       DOS:  cpu time    0.0000: real time    0.0002
    CHARGE:  cpu time    5.9071: real time    5.9031
    MIXING:  cpu time    0.7169: real time    0.7160
    --------------------------------------------
      LOOP:  cpu time  115.0145: real time  114.9225

 eigenvalue-minimisations  :   128
 total energy-change (2. order) : 0.6099369E+00  (-0.1335639E+00)
 number of electron      16.0000006 magnetization 
 augmentation part        0.4218723 magnetization 

 Broyden mixing:
  rms(total) = 0.24732E+00    rms(broyden)= 0.24727E+00
  rms(prec ) = 0.25302E+00
  weight for this iteration     100.00

 eigenvalues of (default mixing * dielectric matrix)
  average eigenvalue GAMMA=   1.5226
  0.9333  2.1120

 Free energy of the ion-electron system (eV)
  ---------------------------------------------------
  alpha Z        PSCENC =         0.04144063
  Ewald energy   TEWEN  =       708.61276973
  -Hartree energ DENC   =     -1171.94206781
  -exchange      EXHF   =         0.00000000
  -V(xc)+E(xc)   XCENC  =        53.89467394
  PAW double counting   =       992.99726663     -995.78893068
  entropy T*S    EENTRO =         0.00000000
  eigenvalues    EBANDS =      -218.58125341
  atomic energy  EATOM  =       596.16534815
  Solvation  Ediel_sol  =         0.00000000
  ---------------------------------------------------
  free energy    TOTEN  =       -34.60075282 eV

  energy without entropy =      -34.60075282  energy(sigma->0) =      -34.60075282


--------------------------------------------------------------------------------------------------------




----------------------------------------- Iteration    1(   8)  ---------------------------------------


    POTLOK:  cpu time   23.8324: real time   23.8130
    SETDIJ:  cpu time    0.0080: real time    0.0083
     EDDAV:  cpu time   84.1932: real time   84.1235
       DOS:  cpu time    0.0000: real time    0.0002
    CHARGE:  cpu time    5.9051: real time    5.9008
    MIXING:  cpu time    0.7329: real time    0.7313
    --------------------------------------------
      LOOP:  cpu time  114.6726: real time  114.5807

 eigenvalue-minimisations  :   128
 total energy-change (2. order) : 0.9041904E-01  (-0.2398765E-01)
 number of electron      16.0000006 magnetization 
 augmentation part        0.4121440 magnetization 

 Broyden mixing:
  rms(total) = 0.91869E-01    rms(broyden)= 0.91843E-01
  rms(prec ) = 0.95062E-01
  weight for this iteration     100.00

 eigenvalues of (default mixing * dielectric matrix)
  average eigenvalue GAMMA=   1.5912
  2.3362  1.6164  0.8211

 Free energy of the ion-electron system (eV)
  ---------------------------------------------------
  alpha Z        PSCENC =         0.04144063
  Ewald energy   TEWEN  =       708.61276973
  -Hartree energ DENC   =     -1180.50813507
  -exchange      EXHF   =         0.00000000
  -V(xc)+E(xc)   XCENC  =        54.45965454
  PAW double counting   =      1183.66874617    -1186.50356902
  entropy T*S    EENTRO =         0.00000000
  eigenvalues    EBANDS =      -210.44658890
  atomic energy  EATOM  =       596.16534815
  Solvation  Ediel_sol  =         0.00000000
  ---------------------------------------------------
  free energy    TOTEN  =       -34.51033378 eV

  energy without entropy =      -34.51033378  energy(sigma->0) =      -34.51033378


--------------------------------------------------------------------------------------------------------




----------------------------------------- Iteration    1(   9)  ---------------------------------------


    POTLOK:  cpu time   23.4564: real time   23.4375
    SETDIJ:  cpu time    0.0080: real time    0.0083
     EDDAV:  cpu time   79.7089: real time   79.6428
       DOS:  cpu time    0.0000: real time    0.0002
    CHARGE:  cpu time    5.9251: real time    5.9213
    MIXING:  cpu time    0.8039: real time    0.8035
    --------------------------------------------
      LOOP:  cpu time  109.9043: real time  109.8170

 eigenvalue-minimisations  :   120
 total energy-change (2. order) : 0.1536848E-01  (-0.3033687E-02)
 number of electron      16.0000006 magnetization 
 augmentation part        0.4122882 magnetization 

 Broyden mixing:
  rms(total) = 0.22842E-01    rms(broyden)= 0.22825E-01
  rms(prec ) = 0.26966E-01
  weight for this iteration     100.00

 eigenvalues of (default mixing * dielectric matrix)
  average eigenvalue GAMMA=   1.4931
  2.2986  1.6914  0.8739  1.1086

 Free energy of the ion-electron system (eV)
  ---------------------------------------------------
  alpha Z        PSCENC =         0.04144063
  Ewald energy   TEWEN  =       708.61276973
  -Hartree energ DENC   =     -1181.55594951
  -exchange      EXHF   =         0.00000000
  -V(xc)+E(xc)   XCENC  =        54.52631903
  PAW double counting   =      1244.00575086    -1246.81097680
  entropy T*S    EENTRO =         0.00000000
  eigenvalues    EBANDS =      -209.47966739
  atomic energy  EATOM  =       596.16534815
  Solvation  Ediel_sol  =         0.00000000
  ---------------------------------------------------
  free energy    TOTEN  =       -34.49496530 eV

  energy without entropy =      -34.49496530  energy(sigma->0) =      -34.49496530


--------------------------------------------------------------------------------------------------------




----------------------------------------- Iteration    1(  10)  ---------------------------------------


    POTLOK:  cpu time   23.4044: real time   23.3857
    SETDIJ:  cpu time    0.0080: real time    0.0084
     EDDAV:  cpu time   83.8712: real time   83.8039
       DOS:  cpu time    0.0000: real time    0.0002
    CHARGE:  cpu time    5.9071: real time    5.9023
    MIXING:  cpu time    0.8399: real time    0.8384
    --------------------------------------------
      LOOP:  cpu time  114.0337: real time  113.9422

 eigenvalue-minimisations  :   128
 total energy-change (2. order) : 0.3490731E-03  (-0.3835723E-03)
 number of electron      16.0000006 magnetization 
 augmentation part        0.4133111 magnetization 

 Broyden mixing:
  rms(total) = 0.11877E-01    rms(broyden)= 0.11872E-01
  rms(prec ) = 0.16317E-01
  weight for this iteration     100.00

 eigenvalues of (default mixing * dielectric matrix)
  average eigenvalue GAMMA=   1.5164
  2.1815  2.1815  0.9150  0.9810  1.3229

 Free energy of the ion-electron system (eV)
  ---------------------------------------------------
  alpha Z        PSCENC =         0.04144063
  Ewald energy   TEWEN  =       708.61276973
  -Hartree energ DENC   =     -1182.38761914
  -exchange      EXHF   =         0.00000000
  -V(xc)+E(xc)   XCENC  =        54.54707321
  PAW double counting   =      1243.61765758    -1246.41988948
  entropy T*S    EENTRO =         0.00000000
  eigenvalues    EBANDS =      -208.67139690
  atomic energy  EATOM  =       596.16534815
  Solvation  Ediel_sol  =         0.00000000
  ---------------------------------------------------
  free energy    TOTEN  =       -34.49461623 eV

  energy without entropy =      -34.49461623  energy(sigma->0) =      -34.49461623


--------------------------------------------------------------------------------------------------------




----------------------------------------- Iteration    1(  11)  ---------------------------------------


    POTLOK:  cpu time   23.5004: real time   23.4808
    SETDIJ:  cpu time    0.0080: real time    0.0081
     EDDAV:  cpu time   66.8818: real time   66.8274
       DOS:  cpu time    0.0000: real time    0.0002
    CHARGE:  cpu time    5.8951: real time    5.8909
    MIXING:  cpu time    0.9109: real time    0.9102
    --------------------------------------------
      LOOP:  cpu time   97.1972: real time   97.1216

 eigenvalue-minimisations  :    96
 total energy-change (2. order) :-0.1639533E-02  (-0.1157896E-03)
 number of electron      16.0000006 magnetization 
 augmentation part        0.4128844 magnetization 

 Broyden mixing:
  rms(total) = 0.67108E-02    rms(broyden)= 0.67097E-02
  rms(prec ) = 0.10643E-01
  weight for this iteration     100.00

 eigenvalues of (default mixing * dielectric matrix)
  average eigenvalue GAMMA=   1.5972
  2.5392  2.5392  0.9358  0.9358  1.3166  1.3166

 Free energy of the ion-electron system (eV)
  ---------------------------------------------------
  alpha Z        PSCENC =         0.04144063
  Ewald energy   TEWEN  =       708.61276973
  -Hartree energ DENC   =     -1183.42538553
  -exchange      EXHF   =         0.00000000
  -V(xc)+E(xc)   XCENC  =        54.57302239
  PAW double counting   =      1240.92867833    -1243.72952602
  entropy T*S    EENTRO =         0.00000000
  eigenvalues    EBANDS =      -207.66260344
  atomic energy  EATOM  =       596.16534815
  Solvation  Ediel_sol  =         0.00000000
  ---------------------------------------------------
  free energy    TOTEN  =       -34.49625576 eV

  energy without entropy =      -34.49625576  energy(sigma->0) =      -34.49625576


--------------------------------------------------------------------------------------------------------




----------------------------------------- Iteration    1(  12)  ---------------------------------------


    POTLOK:  cpu time   23.1135: real time   23.0944
    SETDIJ:  cpu time    0.0080: real time    0.0084
     EDDAV:  cpu time   75.1716: real time   75.1095
       DOS:  cpu time    0.0000: real time    0.0002
    CHARGE:  cpu time    6.0061: real time    6.0007
    MIXING:  cpu time    0.9479: real time    0.9471
    --------------------------------------------
      LOOP:  cpu time  105.2480: real time  105.1640

 eigenvalue-minimisations  :   112
 total energy-change (2. order) :-0.3446877E-02  (-0.1460982E-03)
 number of electron      16.0000006 magnetization 
 augmentation part        0.4126547 magnetization 

 Broyden mixing:
  rms(total) = 0.38689E-02    rms(broyden)= 0.38664E-02
  rms(prec ) = 0.64711E-02
  weight for this iteration     100.00

 eigenvalues of (default mixing * dielectric matrix)
  average eigenvalue GAMMA=   1.6879
  3.4541  2.4267  1.4759  1.4759  0.9336  0.9336  1.1153

 Free energy of the ion-electron system (eV)
  ---------------------------------------------------
  alpha Z        PSCENC =         0.04144063
  Ewald energy   TEWEN  =       708.61276973
  -Hartree energ DENC   =     -1184.50439609
  -exchange      EXHF   =         0.00000000
  -V(xc)+E(xc)   XCENC  =        54.59833710
  PAW double counting   =      1239.02755403    -1241.82668626
  entropy T*S    EENTRO =         0.00000000
  eigenvalues    EBANDS =      -206.61406993
  atomic energy  EATOM  =       596.16534815
  Solvation  Ediel_sol  =         0.00000000
  ---------------------------------------------------
  free energy    TOTEN  =       -34.49970264 eV

  energy without entropy =      -34.49970264  energy(sigma->0) =      -34.49970264


--------------------------------------------------------------------------------------------------------




----------------------------------------- Iteration    1(  13)  ---------------------------------------


    POTLOK:  cpu time   23.0435: real time   23.0243
    SETDIJ:  cpu time    0.0080: real time    0.0083
     EDDAV:  cpu time   92.1230: real time   92.0484
       DOS:  cpu time    0.0000: real time    0.0002
    CHARGE:  cpu time    5.8101: real time    5.8063
    MIXING:  cpu time    0.9659: real time    0.9644
    --------------------------------------------
      LOOP:  cpu time  121.9525: real time  121.8557

 eigenvalue-minimisations  :   144
 total energy-change (2. order) :-0.4150998E-02  (-0.9712633E-04)
 number of electron      16.0000006 magnetization 
 augmentation part        0.4125091 magnetization 

 Broyden mixing:
  rms(total) = 0.26048E-02    rms(broyden)= 0.26031E-02
  rms(prec ) = 0.40036E-02
  weight for this iteration     100.00

 eigenvalues of (default mixing * dielectric matrix)
  average eigenvalue GAMMA=   1.8676
  4.6571  2.5647  2.0098  1.6243  1.2389  0.8805  0.9830  0.9830

 Free energy of the ion-electron system (eV)
  ---------------------------------------------------
  alpha Z        PSCENC =         0.04144063
  Ewald energy   TEWEN  =       708.61276973
  -Hartree energ DENC   =     -1185.24049028
  -exchange      EXHF   =         0.00000000
  -V(xc)+E(xc)   XCENC  =        54.61054350
  PAW double counting   =      1237.83308039    -1240.63148047
  entropy T*S    EENTRO =         0.00000000
  eigenvalues    EBANDS =      -205.89506529
  atomic energy  EATOM  =       596.16534815
  Solvation  Ediel_sol  =         0.00000000
  ---------------------------------------------------
  free energy    TOTEN  =       -34.50385364 eV

  energy without entropy =      -34.50385364  energy(sigma->0) =      -34.50385364


--------------------------------------------------------------------------------------------------------




----------------------------------------- Iteration    1(  14)  ---------------------------------------


    POTLOK:  cpu time   23.3874: real time   23.3685
    SETDIJ:  cpu time    0.0080: real time    0.0082
     EDDAV:  cpu time   84.4742: real time   84.4053
       DOS:  cpu time    0.0000: real time    0.0002
    CHARGE:  cpu time    5.8891: real time    5.8839
    MIXING:  cpu time    1.0938: real time    1.0934
    --------------------------------------------
      LOOP:  cpu time  114.8545: real time  114.7634

 eigenvalue-minimisations  :   128
 total energy-change (2. order) :-0.3906745E-02  (-0.4929176E-04)
 number of electron      16.0000006 magnetization 
 augmentation part        0.4124540 magnetization 

 Broyden mixing:
  rms(total) = 0.14545E-02    rms(broyden)= 0.14543E-02
  rms(prec ) = 0.21924E-02
  weight for this iteration     100.00

 eigenvalues of (default mixing * dielectric matrix)
  average eigenvalue GAMMA=   1.8755
  5.1281  2.6066  2.4200  1.4863  1.2400  1.2400  0.8694  0.9447  0.9447

 Free energy of the ion-electron system (eV)
  ---------------------------------------------------
  alpha Z        PSCENC =         0.04144063
  Ewald energy   TEWEN  =       708.61276973
  -Hartree energ DENC   =     -1185.58478132
  -exchange      EXHF   =         0.00000000
  -V(xc)+E(xc)   XCENC  =        54.60907826
  PAW double counting   =      1236.54610799    -1239.34411894
  entropy T*S    EENTRO =         0.00000000
  eigenvalues    EBANDS =      -205.55360488
  atomic energy  EATOM  =       596.16534815
  Solvation  Ediel_sol  =         0.00000000
  ---------------------------------------------------
  free energy    TOTEN  =       -34.50776038 eV

  energy without entropy =      -34.50776038  energy(sigma->0) =      -34.50776038


--------------------------------------------------------------------------------------------------------




----------------------------------------- Iteration    1(  15)  ---------------------------------------


    POTLOK:  cpu time   23.0255: real time   23.0068
    SETDIJ:  cpu time    0.0080: real time    0.0082
     EDDAV:  cpu time   80.3748: real time   80.3092
       DOS:  cpu time    0.0000: real time    0.0002
    CHARGE:  cpu time    5.7401: real time    5.7353
    MIXING:  cpu time    1.1398: real time    1.1387
    --------------------------------------------
      LOOP:  cpu time  110.2902: real time  110.2014

 eigenvalue-minimisations  :   120
 total energy-change (2. order) :-0.1779418E-02  (-0.1528427E-04)
 number of electron      16.0000006 magnetization 
 augmentation part        0.4124162 magnetization 

 Broyden mixing:
  rms(total) = 0.95482E-03    rms(broyden)= 0.95458E-03
  rms(prec ) = 0.14910E-02
  weight for this iteration     100.00

 eigenvalues of (default mixing * dielectric matrix)
  average eigenvalue GAMMA=   2.0524
  6.4425  3.2109  2.3211  2.1127  1.3719  1.3719  0.9552  0.9552  0.8912  0.8912

 Free energy of the ion-electron system (eV)
  ---------------------------------------------------
  alpha Z        PSCENC =         0.04144063
  Ewald energy   TEWEN  =       708.61276973
  -Hartree energ DENC   =     -1185.67460999
  -exchange      EXHF   =         0.00000000
  -V(xc)+E(xc)   XCENC  =        54.60847676
  PAW double counting   =      1236.92281935    -1239.72113186
  entropy T*S    EENTRO =         0.00000000
  eigenvalues    EBANDS =      -205.46465257
  atomic energy  EATOM  =       596.16534815
  Solvation  Ediel_sol  =         0.00000000
  ---------------------------------------------------
  free energy    TOTEN  =       -34.50953980 eV

  energy without entropy =      -34.50953980  energy(sigma->0) =      -34.50953980


--------------------------------------------------------------------------------------------------------




----------------------------------------- Iteration    1(  16)  ---------------------------------------


    POTLOK:  cpu time   23.2115: real time   23.1922
    SETDIJ:  cpu time    0.0080: real time    0.0082
     EDDAV:  cpu time   85.3380: real time   85.2681
       DOS:  cpu time    0.0010: real time    0.0002
    CHARGE:  cpu time    5.9941: real time    5.9906
    MIXING:  cpu time    1.1398: real time    1.1379
    --------------------------------------------
      LOOP:  cpu time  115.6924: real time  115.6004

 eigenvalue-minimisations  :   128
 total energy-change (2. order) :-0.2004646E-02  (-0.2049193E-04)
 number of electron      16.0000006 magnetization 
 augmentation part        0.4124125 magnetization 

 Broyden mixing:
  rms(total) = 0.54603E-03    rms(broyden)= 0.54580E-03
  rms(prec ) = 0.76076E-03
  weight for this iteration     100.00

 eigenvalues of (default mixing * dielectric matrix)
  average eigenvalue GAMMA=   2.1172
  7.2149  3.5429  2.4125  2.4125  1.5752  1.2531  1.2531  0.9456  0.9456  0.8669
  0.8669

 Free energy of the ion-electron system (eV)
  ---------------------------------------------------
  alpha Z        PSCENC =         0.04144063
  Ewald energy   TEWEN  =       708.61276973
  -Hartree energ DENC   =     -1185.73278562
  -exchange      EXHF   =         0.00000000
  -V(xc)+E(xc)   XCENC  =        54.60460892
  PAW double counting   =      1236.77095139    -1239.56916564
  entropy T*S    EENTRO =         0.00000000
  eigenvalues    EBANDS =      -205.40471201
  atomic energy  EATOM  =       596.16534815
  Solvation  Ediel_sol  =         0.00000000
  ---------------------------------------------------
  free energy    TOTEN  =       -34.51154444 eV

  energy without entropy =      -34.51154444  energy(sigma->0) =      -34.51154444


--------------------------------------------------------------------------------------------------------




----------------------------------------- Iteration    1(  17)  ---------------------------------------


    POTLOK:  cpu time   23.1855: real time   23.1676
    SETDIJ:  cpu time    0.0090: real time    0.0085
     EDDAV:  cpu time   68.5386: real time   68.4820
       DOS:  cpu time    0.0000: real time    0.0002
    CHARGE:  cpu time    6.0371: real time    6.0321
    MIXING:  cpu time    1.2138: real time    1.2123
    --------------------------------------------
      LOOP:  cpu time   98.9850: real time   98.9126

 eigenvalue-minimisations  :    96
 total energy-change (2. order) :-0.6389182E-03  (-0.2794159E-05)
 number of electron      16.0000006 magnetization 
 augmentation part        0.4124093 magnetization 

 Broyden mixing:
  rms(total) = 0.29580E-03    rms(broyden)= 0.29568E-03
  rms(prec ) = 0.43194E-03
  weight for this iteration     100.00

 eigenvalues of (default mixing * dielectric matrix)
  average eigenvalue GAMMA=   2.2019
  7.7862  4.3161  2.5492  2.4226  1.8159  1.5380  1.1888  1.1888  0.9416  0.9416
  0.8506  0.8836

 Free energy of the ion-electron system (eV)
  ---------------------------------------------------
  alpha Z        PSCENC =         0.04144063
  Ewald energy   TEWEN  =       708.61276973
  -Hartree energ DENC   =     -1185.73899431
  -exchange      EXHF   =         0.00000000
  -V(xc)+E(xc)   XCENC  =        54.60342688
  PAW double counting   =      1236.88292433    -1239.68115938
  entropy T*S    EENTRO =         0.00000000
  eigenvalues    EBANDS =      -205.39793940
  atomic energy  EATOM  =       596.16534815
  Solvation  Ediel_sol  =         0.00000000
  ---------------------------------------------------
  free energy    TOTEN  =       -34.51218336 eV

  energy without entropy =      -34.51218336  energy(sigma->0) =      -34.51218336


--------------------------------------------------------------------------------------------------------




----------------------------------------- Iteration    1(  18)  ---------------------------------------


    POTLOK:  cpu time   23.0825: real time   23.0630
    SETDIJ:  cpu time    0.0080: real time    0.0082
     EDDAV:  cpu time   66.6819: real time   66.6268
       DOS:  cpu time    0.0000: real time    0.0002
    CHARGE:  cpu time    5.9691: real time    5.9645
    MIXING:  cpu time    1.4168: real time    1.4166
    --------------------------------------------
      LOOP:  cpu time   97.1582: real time   97.0826

 eigenvalue-minimisations  :    92
 total energy-change (2. order) :-0.3805464E-03  (-0.3038485E-05)
 number of electron      16.0000006 magnetization 
 augmentation part        0.4124115 magnetization 

 Broyden mixing:
  rms(total) = 0.24192E-03    rms(broyden)= 0.24188E-03
  rms(prec ) = 0.29920E-03
  weight for this iteration     100.00

 eigenvalues of (default mixing * dielectric matrix)
  average eigenvalue GAMMA=   2.2631
  8.2980  4.8559  2.7840  2.5286  2.1661  1.5929  1.2634  1.2634  1.0700  0.9407
  0.9407  0.8580  0.8580

 Free energy of the ion-electron system (eV)
  ---------------------------------------------------
  alpha Z        PSCENC =         0.04144063
  Ewald energy   TEWEN  =       708.61276973
  -Hartree energ DENC   =     -1185.72779123
  -exchange      EXHF   =         0.00000000
  -V(xc)+E(xc)   XCENC  =        54.60222923
  PAW double counting   =      1236.94531916    -1239.74348731
  entropy T*S    EENTRO =         0.00000000
  eigenvalues    EBANDS =      -205.40839228
  atomic energy  EATOM  =       596.16534815
  Solvation  Ediel_sol  =         0.00000000
  ---------------------------------------------------
  free energy    TOTEN  =       -34.51256391 eV

  energy without entropy =      -34.51256391  energy(sigma->0) =      -34.51256391


--------------------------------------------------------------------------------------------------------




----------------------------------------- Iteration    1(  19)  ---------------------------------------


    POTLOK:  cpu time   23.0235: real time   23.0048
    SETDIJ:  cpu time    0.0080: real time    0.0081
     EDDAV:  cpu time   67.8417: real time   67.7859
       DOS:  cpu time    0.0000: real time    0.0002
    CHARGE:  cpu time    5.7931: real time    5.7892
    MIXING:  cpu time    1.4388: real time    1.4366
    --------------------------------------------
      LOOP:  cpu time   98.1071: real time   98.0288

 eigenvalue-minimisations  :    96
 total energy-change (2. order) :-0.1635446E-03  (-0.1089895E-05)
 number of electron      16.0000006 magnetization 
 augmentation part        0.4124085 magnetization 

 Broyden mixing:
  rms(total) = 0.10443E-03    rms(broyden)= 0.10439E-03
  rms(prec ) = 0.14040E-03
  weight for this iteration     100.00

 eigenvalues of (default mixing * dielectric matrix)
  average eigenvalue GAMMA=   2.2760
  8.5698  5.0415  3.2398  2.5496  2.2207  1.5558  1.5558  1.2764  1.2764  0.9449
  0.9449  0.9855  0.8512  0.8512

 Free energy of the ion-electron system (eV)
  ---------------------------------------------------
  alpha Z        PSCENC =         0.04144063
  Ewald energy   TEWEN  =       708.61276973
  -Hartree energ DENC   =     -1185.72517163
  -exchange      EXHF   =         0.00000000
  -V(xc)+E(xc)   XCENC  =        54.60190859
  PAW double counting   =      1236.89865323    -1239.69679694
  entropy T*S    EENTRO =         0.00000000
  eigenvalues    EBANDS =      -205.41087923
  atomic energy  EATOM  =       596.16534815
  Solvation  Ediel_sol  =         0.00000000
  ---------------------------------------------------
  free energy    TOTEN  =       -34.51272745 eV

  energy without entropy =      -34.51272745  energy(sigma->0) =      -34.51272745


--------------------------------------------------------------------------------------------------------




----------------------------------------- Iteration    1(  20)  ---------------------------------------


    POTLOK:  cpu time   23.5214: real time   23.5030
    SETDIJ:  cpu time    0.0080: real time    0.0083
     EDDAV:  cpu time   61.4587: real time   61.4076
       DOS:  cpu time    0.0000: real time    0.0002
    --------------------------------------------
      LOOP:  cpu time   84.9891: real time   84.9223

 eigenvalue-minimisations  :    88
 total energy-change (2. order) :-0.7374507E-04  (-0.4270493E-06)
 number of electron      16.0000006 magnetization 
 augmentation part        0.4124085 magnetization 

 Free energy of the ion-electron system (eV)
  ---------------------------------------------------
  alpha Z        PSCENC =         0.04144063
  Ewald energy   TEWEN  =       708.61276973
  -Hartree energ DENC   =     -1185.73183489
  -exchange      EXHF   =         0.00000000
  -V(xc)+E(xc)   XCENC  =        54.60202453
  PAW double counting   =      1236.84169038    -1239.63987137
  entropy T*S    EENTRO =         0.00000000
  eigenvalues    EBANDS =      -205.40436836
  atomic energy  EATOM  =       596.16534815
  Solvation  Ediel_sol  =         0.00000000
  ---------------------------------------------------
  free energy    TOTEN  =       -34.51280120 eV

  energy without entropy =      -34.51280120  energy(sigma->0) =      -34.51280120


--------------------------------------------------------------------------------------------------------




 average (electrostatic) potential at core
  the test charge radii are     0.5201  0.6991  0.7089
  (the norm of the test charge is              1.0000)
       1 -42.8188       2 -42.8181       3 -42.8527       4 -60.3560       5 -60.0555
       6 -74.4070
 
 
 
 E-fermi :  -6.3652     XC(G=0):  -0.0910     alpha+bet : -0.0137


 k-point     1 :       0.2500    0.2500    0.2500
  band No.  band energies     occupation 
      1     -24.2341      2.00000
      2     -17.9877      2.00000
      3     -12.9429      2.00000
      4     -11.4782      2.00000
      5     -11.3290      2.00000
      6      -9.1108      2.00000
      7      -8.2734      2.00000
      8      -7.3460      2.00000
      9      -2.6612      0.00000
     10      -1.1376      0.00000
     11      -0.3951      0.00000
     12      -0.0062      0.00000

 k-point     2 :      -0.2500    0.2500    0.2500
  band No.  band energies     occupation 
      1     -24.2341      2.00000
      2     -17.9877      2.00000
      3     -12.9429      2.00000
      4     -11.4782      2.00000
      5     -11.3290      2.00000
      6      -9.1108      2.00000
      7      -8.2734      2.00000
      8      -7.3460      2.00000
      9      -2.6612      0.00000
     10      -1.1376      0.00000
     11      -0.3951      0.00000
     12      -0.0025      0.00000

 k-point     3 :       0.2500   -0.2500    0.2500
  band No.  band energies     occupation 
      1     -24.2341      2.00000
      2     -17.9877      2.00000
      3     -12.9429      2.00000
      4     -11.4782      2.00000
      5     -11.3290      2.00000
      6      -9.1108      2.00000
      7      -8.2734      2.00000
      8      -7.3460      2.00000
      9      -2.6612      0.00000
     10      -1.1376      0.00000
     11      -0.3951      0.00000
     12      -0.0041      0.00000

 k-point     4 :      -0.2500   -0.2500    0.2500
  band No.  band energies     occupation 
      1     -24.2341      2.00000
      2     -17.9877      2.00000
      3     -12.9429      2.00000
      4     -11.4782      2.00000
      5     -11.3290      2.00000
      6      -9.1108      2.00000
      7      -8.2734      2.00000
      8      -7.3460      2.00000
      9      -2.6612      0.00000
     10      -1.1376      0.00000
     11      -0.3951      0.00000
     12       0.0150      0.00000


--------------------------------------------------------------------------------------------------------


 soft charge-density along one line, spin component           1
         0         1         2         3         4         5         6         7         8         9
 total charge-density along one line
 
 pseudopotential strength for first ion, spin component:           1
 -2.359  -4.068  -0.002   0.000   0.000
 -4.068  -6.929  -0.006  -0.001  -0.001
 -0.002  -0.006  -0.330   0.001   0.001
  0.000  -0.001   0.001  -0.335   0.000
  0.000  -0.001   0.001   0.000  -0.334
 total augmentation occupancy for first ion, spin component:           1
  3.550  -0.642   0.437   0.056   0.082
 -0.642   0.133  -0.081  -0.010  -0.015
  0.437  -0.081   0.054   0.006   0.009
  0.056  -0.010   0.006   0.010   0.001
  0.082  -0.015   0.009   0.001   0.008


------------------------ aborting loop because EDIFF is reached ----------------------------------------


    CHARGE:  cpu time    5.6161: real time    5.6118
    FORLOC:  cpu time    2.8976: real time    2.8949
    FORNL :  cpu time   18.3612: real time   18.3465
    STRESS:  cpu time   56.5264: real time   56.4792
    FORCOR:  cpu time   23.9334: real time   23.9129
    FORHAR:  cpu time    8.3277: real time    8.3218
    MIXING:  cpu time    1.3188: real time    1.3177
    OFIELD:  cpu time    0.0000: real time    0.0000

  FORCE on cell =-STRESS in cart. coord.  units (eV):
  Direction    XX          YY          ZZ          XY          YZ          ZX
  --------------------------------------------------------------------------------------
  Alpha Z     0.04144     0.04144     0.04144
  Ewald     378.43441    71.49211   258.68603     4.79013    70.88124  -124.23691
  Hartree   501.32043   304.61271   379.79533     8.77463    26.25214   -63.08426
  E(xc)     -59.37270   -59.82669   -59.20292    -0.03397     0.25474    -0.30453
  Local   -1037.79948  -548.71774  -797.55960   -12.95701   -91.26502   181.85055
  n-local   -18.66822   -22.87978   -28.08080     1.46980    -2.12473     2.05878
  augment     0.58279     0.87149     0.89390    -0.03042     0.01691     0.02944
  Kinetic   236.07134   253.14293   244.88117    -2.58347    -4.12458     1.62725
  Fock        0.00000     0.00000     0.00000     0.00000     0.00000     0.00000
  -------------------------------------------------------------------------------------
  Total       0.61000    -1.26352    -0.54547    -0.57032    -0.10930    -2.05968
  in kB       0.03620    -0.07498    -0.03237    -0.03384    -0.00649    -0.12222
  external pressure =       -0.02 kB  Pullay stress =        0.00 kB


 VOLUME and BASIS-vectors are now :
 -----------------------------------------------------------------------------
  energy-cutoff  :      400.00
  volume of cell :    27000.00
      direct lattice vectors                 reciprocal lattice vectors
    30.000000000  0.000000000  0.000000000     0.033333333  0.000000000  0.000000000
     0.000000000 30.000000000  0.000000000     0.000000000  0.033333333  0.000000000
     0.000000000  0.000000000 30.000000000     0.000000000  0.000000000  0.033333333

  length of vectors
    30.000000000 30.000000000 30.000000000     0.033333333  0.033333333  0.033333333


 FORCES acting on ions
    electron-ion (+dipol)            ewald-force                    non-local-force                 convergence-correction
 -----------------------------------------------------------------------------------------------
   0.259E+02 0.617E+02 0.464E+01   -.269E+02 -.671E+02 -.522E+01   0.106E+01 0.557E+01 0.733E+00   -.423E-04 -.286E-03 -.398E-04
   0.416E+02 -.305E+02 0.429E+02   -.440E+02 0.334E+02 -.469E+02   0.250E+01 -.290E+01 0.425E+01   -.118E-03 0.151E-03 -.222E-03
   0.334E+02 -.179E+02 -.569E+02   -.358E+02 0.198E+02 0.626E+02   0.184E+01 -.192E+01 -.538E+01   -.667E-04 0.102E-03 0.275E-03
   0.112E+03 0.130E+02 -.141E+02   -.119E+03 -.140E+02 0.149E+02   0.738E+01 0.111E+01 -.336E+00   0.573E-03 0.964E-04 -.145E-05
   -.128E+03 0.571E+02 0.186E+03   0.135E+03 -.644E+02 -.207E+03   -.651E+01 0.738E+01 0.201E+02   -.390E-03 0.583E-03 0.153E-02
   -.834E+02 -.802E+02 -.156E+03   0.905E+02 0.922E+02 0.181E+03   -.799E+01 -.124E+02 -.261E+02   0.184E-02 0.297E-03 -.239E-04
 -----------------------------------------------------------------------------------------------
   0.172E+01 0.315E+01 0.676E+01   -.284E-13 0.000E+00 0.000E+00   -.173E+01 -.316E+01 -.677E+01   0.180E-02 0.942E-03 0.152E-02
 
 
 POSITION                                       TOTAL-FORCE (eV/Angst)
 -----------------------------------------------------------------------------------
     14.40375     13.92294     15.01574         0.045393      0.157549      0.151566
     14.12517     15.56084     14.33643         0.068690      0.019069      0.211916
     14.24970     15.33770     16.12002        -0.537665      0.035062      0.299784
     14.59691     14.99687     15.15453        -0.083373      0.173137      0.445483
     16.52423     14.90357     14.15802         1.433032      0.080399     -0.386885
     16.10055     15.27865     15.21527        -0.926076     -0.465217     -0.721864
 -----------------------------------------------------------------------------------
    total drift:                                0.000061     -0.009632     -0.004821


--------------------------------------------------------------------------------------------------------



  FREE ENERGIE OF THE ION-ELECTRON SYSTEM (eV)
  ---------------------------------------------------
  free  energy   TOTEN  =       -34.51280120 eV

  energy  without entropy=      -34.51280120  energy(sigma->0) =      -34.51280120
 


--------------------------------------------------------------------------------------------------------


    POTLOK:  cpu time   21.0588: real time   21.0404


--------------------------------------------------------------------------------------------------------


 NEB: the previous image is higher in energy: F
 NEB: the next image is higher in energy    : T
 NEB: only next energy greater

 NEB: Tangent
 ----------------------------------------------
     -0.03342     -0.07715     -0.06789
     -0.04377     -0.01000     -0.09822
      0.26352     -0.01573     -0.14354
      0.02807     -0.08929     -0.22169
     -0.65752     -0.02525      0.19255
      0.44312      0.21741      0.33880

 NEB: forces: par spring, perp REAL, dneb     0.263332    0.078286    0.000000
 NEB: distance to prev, next image, angle between     0.442726    0.390060  147.842668
 NEB: projections on to tangent (spring, REAL)    -0.263332   -2.124650

 stress matrix after NEB project (eV)
      0.61000     -0.57032     -2.05968
     -0.57032     -1.26352     -0.10930
     -2.05968     -0.10930     -0.54547
  FORCES: max atom, RMS     0.213732    0.112155
  FORCE total and by dimension    0.274722    0.209174
  Stress total and by dimension    3.380103    2.059679
 
 OPT: Flag T
 OPT: FIRE Step
 OPT: FIRE, TIMESTEP      0.10000
 OPT: FIRE, alpha         0.10000


--------------------------------------------------------------------------------------------------------


    WAVPRE:  cpu time    9.8385: real time    9.8314
 FEWALD executed in parallel
    FEWALD:  cpu time    0.0010: real time    0.0004
    ORTHCH:  cpu time    6.8250: real time    6.8190
     LOOP+:  cpu time 2411.1145: real time 2409.2054


----------------------------------------- Iteration    2(   1)  ---------------------------------------


    POTLOK:  cpu time   28.1507: real time   28.1281
    SETDIJ:  cpu time    0.0080: real time    0.0085
     EDDAV:  cpu time   73.1099: real time   73.0495
       DOS:  cpu time    0.0000: real time    0.0002
    CHARGE:  cpu time    5.9721: real time    5.9675
    MIXING:  cpu time    0.6489: real time    0.6483
    --------------------------------------------
      LOOP:  cpu time  107.8916: real time  107.8051

 eigenvalue-minimisations  :   104
 total energy-change (2. order) :-0.5769787E-02  (-0.1462517E-02)
 number of electron      16.0000006 magnetization 
 augmentation part        0.4124872 magnetization 

 Broyden mixing:
  rms(total) = 0.41999E-02    rms(broyden)= 0.41537E-02
  rms(prec ) = 0.42423E-02
  weight for this iteration     100.00

 Free energy of the ion-electron system (eV)
  ---------------------------------------------------
  alpha Z        PSCENC =         0.04144063
  Ewald energy   TEWEN  =       708.53883203
  -Hartree energ DENC   =     -1185.66224556
  -exchange      EXHF   =         0.00000000
  -V(xc)+E(xc)   XCENC  =        54.60175969
  PAW double counting   =      1236.84856457    -1239.64677072
  entropy T*S    EENTRO =         0.00000000
  eigenvalues    EBANDS =      -205.40542603
  atomic energy  EATOM  =       596.16534815
  Solvation  Ediel_sol  =         0.00000000
  ---------------------------------------------------
  free energy    TOTEN  =       -34.51849724 eV

  energy without entropy =      -34.51849724  energy(sigma->0) =      -34.51849724


--------------------------------------------------------------------------------------------------------




----------------------------------------- Iteration    2(   2)  ---------------------------------------


    POTLOK:  cpu time   24.3903: real time   24.3709
    SETDIJ:  cpu time    0.0090: real time    0.0084
     EDDAV:  cpu time   85.4040: real time   85.3342
       DOS:  cpu time    0.0000: real time    0.0002
    CHARGE:  cpu time    5.7851: real time    5.7811
    MIXING:  cpu time    0.6929: real time    0.6924
    --------------------------------------------
      LOOP:  cpu time  116.2833: real time  116.1905

 eigenvalue-minimisations  :   128
 total energy-change (2. order) : 0.1681823E-04  (-0.1535571E-04)
 number of electron      16.0000006 magnetization 
 augmentation part        0.4125217 magnetization 

 Broyden mixing:
  rms(total) = 0.23678E-02    rms(broyden)= 0.23632E-02
  rms(prec ) = 0.24015E-02
  weight for this iteration     100.00

 eigenvalues of (default mixing * dielectric matrix)
  average eigenvalue GAMMA=   1.8613
  1.8613

 Free energy of the ion-electron system (eV)
  ---------------------------------------------------
  alpha Z        PSCENC =         0.04144063
  Ewald energy   TEWEN  =       708.53883203
  -Hartree energ DENC   =     -1185.66419667
  -exchange      EXHF   =         0.00000000
  -V(xc)+E(xc)   XCENC  =        54.60174215
  PAW double counting   =      1236.85123714    -1239.64943890
  entropy T*S    EENTRO =         0.00000000
  eigenvalues    EBANDS =      -205.40344496
  atomic energy  EATOM  =       596.16534815
  Solvation  Ediel_sol  =         0.00000000
  ---------------------------------------------------
  free energy    TOTEN  =       -34.51848042 eV

  energy without entropy =      -34.51848042  energy(sigma->0) =      -34.51848042


--------------------------------------------------------------------------------------------------------




----------------------------------------- Iteration    2(   3)  ---------------------------------------


    POTLOK:  cpu time   23.4864: real time   23.4675
    SETDIJ:  cpu time    0.0080: real time    0.0084
     EDDAV:  cpu time   62.0676: real time   62.0161
       DOS:  cpu time    0.0000: real time    0.0002
    CHARGE:  cpu time    5.9951: real time    5.9910
    MIXING:  cpu time    0.7319: real time    0.7313
    --------------------------------------------
      LOOP:  cpu time   92.2910: real time   92.2185

 eigenvalue-minimisations  :    84
 total energy-change (2. order) :-0.2556561E-04  (-0.1049806E-05)
 number of electron      16.0000006 magnetization 
 augmentation part        0.4125572 magnetization 

 Broyden mixing:
  rms(total) = 0.58210E-03    rms(broyden)= 0.58126E-03
  rms(prec ) = 0.59462E-03
  weight for this iteration     100.00

 eigenvalues of (default mixing * dielectric matrix)
  average eigenvalue GAMMA=   1.5622
  1.0924  2.0320

 Free energy of the ion-electron system (eV)
  ---------------------------------------------------
  alpha Z        PSCENC =         0.04144063
  Ewald energy   TEWEN  =       708.53883203
  -Hartree energ DENC   =     -1185.65788600
  -exchange      EXHF   =         0.00000000
  -V(xc)+E(xc)   XCENC  =        54.60144809
  PAW double counting   =      1236.93994388    -1239.73824398
  entropy T*S    EENTRO =         0.00000000
  eigenvalues    EBANDS =      -205.40938879
  atomic energy  EATOM  =       596.16534815
  Solvation  Ediel_sol  =         0.00000000
  ---------------------------------------------------
  free energy    TOTEN  =       -34.51850599 eV

  energy without entropy =      -34.51850599  energy(sigma->0) =      -34.51850599


--------------------------------------------------------------------------------------------------------




----------------------------------------- Iteration    2(   4)  ---------------------------------------


    POTLOK:  cpu time   24.0763: real time   24.0570
    SETDIJ:  cpu time    0.0090: real time    0.0083
     EDDAV:  cpu time   64.1233: real time   64.0715
[...]
  Solvation  Ediel_sol  =         0.00000000
  ---------------------------------------------------
  free energy    TOTEN  =       -34.60246562 eV

  energy without entropy =      -34.60246562  energy(sigma->0) =      -34.60246562


--------------------------------------------------------------------------------------------------------




----------------------------------------- Iteration  135(   2)  ---------------------------------------


    POTLOK:  cpu time   27.2399: real time   27.2185
    SETDIJ:  cpu time    0.0080: real time    0.0085
     EDDAV:  cpu time   45.9300: real time   45.8915
       DOS:  cpu time    0.0000: real time    0.0002
    CHARGE:  cpu time    6.3930: real time    6.3868
    MIXING:  cpu time    0.6919: real time    0.6924
    --------------------------------------------
      LOOP:  cpu time   80.2638: real time   80.2012

 eigenvalue-minimisations  :    48
 total energy-change (2. order) :-0.1639535E-06  (-0.4503490E-07)
 number of electron      16.0000006 magnetization 
 augmentation part        0.4169797 magnetization 

 Broyden mixing:
  rms(total) = 0.46010E-04    rms(broyden)= 0.45950E-04
  rms(prec ) = 0.47213E-04
  weight for this iteration     100.00

 eigenvalues of (default mixing * dielectric matrix)
  average eigenvalue GAMMA=   1.5178
  1.5178

 Free energy of the ion-electron system (eV)
  ---------------------------------------------------
  alpha Z        PSCENC =         0.04144063
  Ewald energy   TEWEN  =       708.39509861
  -Hartree energ DENC   =     -1185.38204912
  -exchange      EXHF   =         0.00000000
  -V(xc)+E(xc)   XCENC  =        54.63554314
  PAW double counting   =      1247.79789270    -1250.60639824
  entropy T*S    EENTRO =         0.00000000
  eigenvalues    EBANDS =      -205.64934164
  atomic energy  EATOM  =       596.16534815
  Solvation  Ediel_sol  =         0.00000000
  ---------------------------------------------------
  free energy    TOTEN  =       -34.60246578 eV

  energy without entropy =      -34.60246578  energy(sigma->0) =      -34.60246578


--------------------------------------------------------------------------------------------------------




----------------------------------------- Iteration  135(   3)  ---------------------------------------


    POTLOK:  cpu time   25.0352: real time   25.0150
    SETDIJ:  cpu time    0.0080: real time    0.0082
     EDDAV:  cpu time   45.9980: real time   45.9597
       DOS:  cpu time    0.0000: real time    0.0002
    CHARGE:  cpu time    6.5610: real time    6.5561
    MIXING:  cpu time    0.7579: real time    0.7568
    --------------------------------------------
      LOOP:  cpu time   78.3611: real time   78.2997

 eigenvalue-minimisations  :    48
 total energy-change (2. order) :-0.1941498E-06  (-0.1003113E-07)
 number of electron      16.0000006 magnetization 
 augmentation part        0.4169795 magnetization 

 Broyden mixing:
  rms(total) = 0.23161E-04    rms(broyden)= 0.23135E-04
  rms(prec ) = 0.24198E-04
  weight for this iteration     100.00

 eigenvalues of (default mixing * dielectric matrix)
  average eigenvalue GAMMA=   1.7139
  1.1527  2.2751

 Free energy of the ion-electron system (eV)
  ---------------------------------------------------
  alpha Z        PSCENC =         0.04144063
  Ewald energy   TEWEN  =       708.39509861
  -Hartree energ DENC   =     -1185.38194377
  -exchange      EXHF   =         0.00000000
  -V(xc)+E(xc)   XCENC  =        54.63554514
  PAW double counting   =      1247.79606722    -1250.60457102
  entropy T*S    EENTRO =         0.00000000
  eigenvalues    EBANDS =      -205.64945093
  atomic energy  EATOM  =       596.16534815
  Solvation  Ediel_sol  =         0.00000000
  ---------------------------------------------------
  free energy    TOTEN  =       -34.60246598 eV

  energy without entropy =      -34.60246598  energy(sigma->0) =      -34.60246598


--------------------------------------------------------------------------------------------------------




----------------------------------------- Iteration  135(   4)  ---------------------------------------


    POTLOK:  cpu time   25.1322: real time   25.1121
    SETDIJ:  cpu time    0.0080: real time    0.0084
     EDDAV:  cpu time   46.0890: real time   46.0513
       DOS:  cpu time    0.0000: real time    0.0002
    CHARGE:  cpu time    7.2599: real time    7.2540
    MIXING:  cpu time    0.8419: real time    0.8416
    --------------------------------------------
      LOOP:  cpu time   79.3329: real time   79.2712

 eigenvalue-minimisations  :    48
 total energy-change (2. order) :-0.2095778E-06  (-0.4967695E-08)
 number of electron      16.0000006 magnetization 
 augmentation part        0.4169795 magnetization 

 Broyden mixing:
  rms(total) = 0.81060E-05    rms(broyden)= 0.80888E-05
  rms(prec ) = 0.93744E-05
  weight for this iteration     100.00

 eigenvalues of (default mixing * dielectric matrix)
  average eigenvalue GAMMA=   1.6946
  2.4243  0.9367  1.7227

 Free energy of the ion-electron system (eV)
  ---------------------------------------------------
  alpha Z        PSCENC =         0.04144063
  Ewald energy   TEWEN  =       708.39509861
  -Hartree energ DENC   =     -1185.38180627
  -exchange      EXHF   =         0.00000000
  -V(xc)+E(xc)   XCENC  =        54.63554392
  PAW double counting   =      1247.79533153    -1250.60383390
  entropy T*S    EENTRO =         0.00000000
  eigenvalues    EBANDS =      -205.64958885
  atomic energy  EATOM  =       596.16534815
  Solvation  Ediel_sol  =         0.00000000
  ---------------------------------------------------
  free energy    TOTEN  =       -34.60246619 eV

  energy without entropy =      -34.60246619  energy(sigma->0) =      -34.60246619


--------------------------------------------------------------------------------------------------------




----------------------------------------- Iteration  135(   5)  ---------------------------------------


    POTLOK:  cpu time   25.2442: real time   25.2242
    SETDIJ:  cpu time    0.0090: real time    0.0082
     EDDAV:  cpu time   45.4161: real time   45.3792
       DOS:  cpu time    0.0000: real time    0.0002
    CHARGE:  cpu time    6.7290: real time    6.7240
    MIXING:  cpu time    0.8589: real time    0.8573
    --------------------------------------------
      LOOP:  cpu time   78.2581: real time   78.1969

 eigenvalue-minimisations  :    48
 total energy-change (2. order) :-0.1562389E-06  (-0.3489522E-08)
 number of electron      16.0000006 magnetization 
 augmentation part        0.4169795 magnetization 

 Broyden mixing:
  rms(total) = 0.46032E-05    rms(broyden)= 0.45901E-05
  rms(prec ) = 0.59314E-05
  weight for this iteration     100.00

 eigenvalues of (default mixing * dielectric matrix)
  average eigenvalue GAMMA=   1.6876
  2.8164  2.0833  1.0060  0.8447

 Free energy of the ion-electron system (eV)
  ---------------------------------------------------
  alpha Z        PSCENC =         0.04144063
  Ewald energy   TEWEN  =       708.39509861
  -Hartree energ DENC   =     -1185.38171585
  -exchange      EXHF   =         0.00000000
  -V(xc)+E(xc)   XCENC  =        54.63554224
  PAW double counting   =      1247.79544887    -1250.60395088
  entropy T*S    EENTRO =         0.00000000
  eigenvalues    EBANDS =      -205.64967811
  atomic energy  EATOM  =       596.16534815
  Solvation  Ediel_sol  =         0.00000000
  ---------------------------------------------------
  free energy    TOTEN  =       -34.60246634 eV

  energy without entropy =      -34.60246634  energy(sigma->0) =      -34.60246634


--------------------------------------------------------------------------------------------------------




----------------------------------------- Iteration  135(   6)  ---------------------------------------


    POTLOK:  cpu time   25.5771: real time   25.5569
    SETDIJ:  cpu time    0.0080: real time    0.0084
     EDDAV:  cpu time   44.5202: real time   44.4841
       DOS:  cpu time    0.0000: real time    0.0002
    --------------------------------------------
      LOOP:  cpu time   70.1073: real time   70.0534

 eigenvalue-minimisations  :    48
 total energy-change (2. order) :-0.1646324E-06  (-0.3168005E-08)
 number of electron      16.0000006 magnetization 
 augmentation part        0.4169795 magnetization 

 Free energy of the ion-electron system (eV)
  ---------------------------------------------------
  alpha Z        PSCENC =         0.04144063
  Ewald energy   TEWEN  =       708.39509861
  -Hartree energ DENC   =     -1185.38161922
  -exchange      EXHF   =         0.00000000
  -V(xc)+E(xc)   XCENC  =        54.63554101
  PAW double counting   =      1247.79562638    -1250.60412820
  entropy T*S    EENTRO =         0.00000000
  eigenvalues    EBANDS =      -205.64977387
  atomic energy  EATOM  =       596.16534815
  Solvation  Ediel_sol  =         0.00000000
  ---------------------------------------------------
  free energy    TOTEN  =       -34.60246651 eV

  energy without entropy =      -34.60246651  energy(sigma->0) =      -34.60246651


--------------------------------------------------------------------------------------------------------




 average (electrostatic) potential at core
  the test charge radii are     0.5201  0.6991  0.7089
  (the norm of the test charge is              1.0000)
       1 -42.8161       2 -42.8125       3 -42.8251       4 -60.3348       5 -60.0115
       6 -74.4434
 
 
 
 E-fermi :  -6.3492     XC(G=0):  -0.0595     alpha+bet : -0.0137


 k-point     1 :       0.2500    0.2500    0.2500
  band No.  band energies     occupation 
      1     -24.2162      2.00000
      2     -18.0710      2.00000
      3     -13.0088      2.00000
      4     -11.4780      2.00000
      5     -11.3566      2.00000
      6      -9.0799      2.00000
      7      -8.2866      2.00000
      8      -7.3278      2.00000
      9      -2.6631      0.00000
     10      -1.1086      0.00000
     11      -0.3973      0.00000
     12       0.0260      0.00000

 k-point     2 :      -0.2500    0.2500    0.2500
  band No.  band energies     occupation 
      1     -24.2162      2.00000
      2     -18.0710      2.00000
      3     -13.0088      2.00000
      4     -11.4780      2.00000
      5     -11.3566      2.00000
      6      -9.0799      2.00000
      7      -8.2866      2.00000
      8      -7.3278      2.00000
      9      -2.6631      0.00000
     10      -1.1086      0.00000
     11      -0.3973      0.00000
     12       0.0295      0.00000

 k-point     3 :       0.2500   -0.2500    0.2500
  band No.  band energies     occupation 
      1     -24.2162      2.00000
      2     -18.0710      2.00000
      3     -13.0088      2.00000
      4     -11.4780      2.00000
      5     -11.3566      2.00000
      6      -9.0799      2.00000
      7      -8.2866      2.00000
      8      -7.3278      2.00000
      9      -2.6631      0.00000
     10      -1.1086      0.00000
     11      -0.3973      0.00000
     12       0.0284      0.00000

 k-point     4 :      -0.2500   -0.2500    0.2500
  band No.  band energies     occupation 
      1     -24.2162      2.00000
      2     -18.0710      2.00000
      3     -13.0088      2.00000
      4     -11.4780      2.00000
      5     -11.3566      2.00000
      6      -9.0799      2.00000
      7      -8.2866      2.00000
      8      -7.3278      2.00000
      9      -2.6631      0.00000
     10      -1.1086      0.00000
     11      -0.3973      0.00000
     12       0.0303      0.00000


--------------------------------------------------------------------------------------------------------


 soft charge-density along one line, spin component           1
         0         1         2         3         4         5         6         7         8         9
 total charge-density along one line
 
 pseudopotential strength for first ion, spin component:           1
 -2.359  -4.068  -0.002   0.000   0.000
 -4.068  -6.929  -0.005  -0.001  -0.001
 -0.002  -0.005  -0.330   0.001   0.001
  0.000  -0.001   0.001  -0.335   0.000
  0.000  -0.001   0.001   0.000  -0.334
 total augmentation occupancy for first ion, spin component:           1
  3.545  -0.641   0.435   0.057   0.082
 -0.641   0.132  -0.080  -0.010  -0.015
  0.435  -0.080   0.054   0.006   0.009
  0.057  -0.010   0.006   0.010   0.001
  0.082  -0.015   0.009   0.001   0.008


------------------------ aborting loop because EDIFF is reached ----------------------------------------


    CHARGE:  cpu time    6.5710: real time    6.5652
    FORLOC:  cpu time    2.8676: real time    2.8649
    FORNL :  cpu time   20.2839: real time   20.2675
    STRESS:  cpu time   59.6389: real time   59.5900
    FORCOR:  cpu time   24.2123: real time   24.1915
    FORHAR:  cpu time    8.5067: real time    8.5005
    MIXING:  cpu time    0.8059: real time    0.8047
    OFIELD:  cpu time    0.0000: real time    0.0000

  FORCE on cell =-STRESS in cart. coord.  units (eV):
  Direction    XX          YY          ZZ          XY          YZ          ZX
  --------------------------------------------------------------------------------------
  Alpha Z     0.04144     0.04144     0.04144
  Ewald     388.29893    66.55038   253.54555     6.03303    62.56030  -133.54566
  Hartree   505.32613   302.69974   377.35551     9.63608    22.65313   -66.93824
  E(xc)     -59.37857   -59.87942   -59.25725    -0.03325     0.22683    -0.33353
  Local   -1051.43136  -542.12793  -789.73753   -15.09781   -79.65978   194.44709
  n-local   -19.32509   -22.94951   -28.06948     1.48713    -1.84668     2.37443
  augment     0.59664     0.88051     0.88664    -0.02858     0.01018     0.03623
  Kinetic   236.55250   253.51141   244.77607    -2.56906    -4.05786     1.75597
  Fock        0.00000     0.00000     0.00000     0.00000     0.00000     0.00000
  -------------------------------------------------------------------------------------
  Total       0.68062    -1.27337    -0.45905    -0.57246    -0.11388    -2.20371
  in kB       0.04039    -0.07556    -0.02724    -0.03397    -0.00676    -0.13077
  external pressure =       -0.02 kB  Pullay stress =        0.00 kB


 VOLUME and BASIS-vectors are now :
 -----------------------------------------------------------------------------
  energy-cutoff  :      400.00
  volume of cell :    27000.00
      direct lattice vectors                 reciprocal lattice vectors
    30.000000000  0.000000000  0.000000000     0.033333333  0.000000000  0.000000000
     0.000000000 30.000000000  0.000000000     0.000000000  0.033333333  0.000000000
     0.000000000  0.000000000 30.000000000     0.000000000  0.000000000  0.033333333

  length of vectors
    30.000000000 30.000000000 30.000000000     0.033333333  0.033333333  0.033333333


 FORCES acting on ions
    electron-ion (+dipol)            ewald-force                    non-local-force                 convergence-correction
 -----------------------------------------------------------------------------------------------
   0.258E+02 0.617E+02 0.488E+01   -.268E+02 -.670E+02 -.547E+01   0.106E+01 0.555E+01 0.742E+00   -.223E-05 0.425E-05 0.336E-05
   0.417E+02 -.303E+02 0.427E+02   -.442E+02 0.332E+02 -.467E+02   0.252E+01 -.289E+01 0.422E+01   0.417E-06 -.431E-05 0.777E-05
   0.332E+02 -.178E+02 -.570E+02   -.356E+02 0.197E+02 0.628E+02   0.183E+01 -.191E+01 -.540E+01   0.260E-05 0.696E-06 0.118E-05
   0.113E+03 0.138E+02 -.138E+02   -.120E+03 -.148E+02 0.146E+02   0.736E+01 0.116E+01 -.264E+00   -.146E-04 0.155E-05 0.114E-04
   -.135E+03 0.506E+02 0.184E+03   0.143E+03 -.573E+02 -.204E+03   -.735E+01 0.684E+01 0.202E+02   -.756E-04 -.619E-05 0.376E-04
   -.770E+02 -.754E+02 -.155E+03   0.831E+02 0.863E+02 0.179E+03   -.711E+01 -.114E+02 -.253E+02   -.544E-04 -.122E-05 0.548E-04
 -----------------------------------------------------------------------------------------------
   0.168E+01 0.262E+01 0.583E+01   0.000E+00 0.000E+00 0.000E+00   -.168E+01 -.263E+01 -.584E+01   -.144E-03 -.524E-05 0.116E-03
 
 
 POSITION                                       TOTAL-FORCE (eV/Angst)
 -----------------------------------------------------------------------------------
     14.39836     13.91874     15.01543         0.066504      0.162099      0.152848
     14.11466     15.55671     14.34082         0.097975      0.014861      0.212684
     14.24714     15.33138     16.12286        -0.586435      0.030154      0.320521
     14.59211     14.99277     15.15659        -0.055649      0.190857      0.492834
     16.56350     14.93225     14.16054         1.511717      0.084541     -0.444708
     16.08453     15.26872     15.20376        -1.034112     -0.482512     -0.734177
 -----------------------------------------------------------------------------------
    total drift:                               -0.003118     -0.011004     -0.008480


--------------------------------------------------------------------------------------------------------



  FREE ENERGIE OF THE ION-ELECTRON SYSTEM (eV)
  ---------------------------------------------------
  free  energy   TOTEN  =       -34.60246651 eV

  energy  without entropy=      -34.60246651  energy(sigma->0) =      -34.60246651
 
 d Force =-0.2194156E-04[-0.220E-04,-0.219E-04]  d Energy =-0.2077312E-04-0.117E-05
 d Force = 0.3276512E-02[ 0.328E-02, 0.328E-02]  d Ewald  = 0.3276512E-02-0.770E-10


--------------------------------------------------------------------------------------------------------


    POTLOK:  cpu time   23.3345: real time   23.3160


--------------------------------------------------------------------------------------------------------


 NEB: the previous image is higher in energy: F
 NEB: the next image is higher in energy    : T
 NEB: only next energy greater

 NEB: Tangent
 ----------------------------------------------
     -0.03202     -0.07109     -0.06660
     -0.04479     -0.00691     -0.09427
      0.26065     -0.01129     -0.14175
      0.02402     -0.08391     -0.21778
     -0.66253     -0.03853      0.19722
      0.45468      0.21174      0.32318

 NEB: forces: par spring, perp REAL, dneb     0.006491    0.013473    0.000000
 NEB: distance to prev, next image, angle between     0.521033    0.519735  140.080568
 NEB: projections on to tangent (spring, REAL)    -0.006491   -2.273832

 stress matrix after NEB project (eV)
      0.68062     -0.57246     -2.20371
     -0.57246     -1.27337     -0.11388
     -2.20371     -0.11388     -0.45905
  FORCES: max atom, RMS     0.010234    0.006105
  FORCE total and by dimension    0.014955    0.009526
  Stress total and by dimension    3.562234    2.203712
 OPT: skip step - force has converged


--------------------------------------------------------------------------------------------------------


  
 reached required accuracy - stopping structural energy minimisation
     LOOP+:  cpu time  680.7755: real time  680.2491
    4ORBIT:  cpu time    0.0000: real time    0.0000

 total amount of memory used by VASP on root node  3203887. kBytes
========================================================================

   base      :      30000. kBytes
   nonlr-proj:        691. kBytes
   fftplans  :     924480. kBytes
   grid      :    1872000. kBytes
   one-center:         18. kBytes
   wavefun   :     376698. kBytes
 
  
  
 General timing and accounting informations for this job:
 ========================================================
  
                  Total CPU time used (sec):    97147.398
                            User time (sec):    95631.070
                          System time (sec):     1516.326
                         Elapsed time (sec):    97129.288
  
                   Maximum memory used (kb):     4748516.
                   Average memory used (kb):           0.
  
                          Minor page faults:    112555214
                          Major page faults:            8
                 Voluntary context switches:        15866
