unknown system                          
           1
    30.000000    0.000000    0.000000
     0.000000   30.000000    0.000000
     0.000000    0.000000   30.000000
   H    C    N 
   3   2   1
Direct configuration=     1
   0.48011929  0.46410270  0.50053298
   0.47083459  0.51869471  0.47789053
   0.47497426  0.51125873  0.53734476
   0.48655340  0.49989814  0.50516184
   0.55087736  0.49679664  0.47192461
   0.53665116  0.50926804  0.50714523
Direct configuration=     2
   0.48010655  0.46411032  0.50054894
   0.47082420  0.51869515  0.47790835
   0.47494434  0.51126210  0.53736465
   0.48653394  0.49990297  0.50518376
   0.55100784  0.49682339  0.47192019
   0.53659319  0.50922502  0.50707408
Direct configuration=     3
   0.48008353  0.46411772  0.50057046
   0.47080397  0.51869564  0.47793108
   0.47490584  0.51126616  0.53738951
   0.48650863  0.49990948  0.50521396
   0.55118884  0.49686511  0.47192267
   0.53651925  0.50916484  0.50697228
Direct configuration=     4
   0.48004530  0.46412117  0.50059463
   0.47076855  0.51869503  0.47795480
   0.47486888  0.51127039  0.53741393
   0.48648231  0.49991527  0.50524383
   0.55141098  0.49691528  0.47192089
   0.53643404  0.50910181  0.50687188
Direct configuration=     5
   0.47998764  0.46411880  0.50061801
   0.47071364  0.51869066  0.47797643
   0.47484462  0.51127419  0.53743210
   0.48645938  0.49991595  0.50526155
   0.55164642  0.49698020  0.47193989
   0.53635836  0.50903914  0.50677198
Direct configuration=     6
   0.47991410  0.46411064  0.50063548
   0.47064285  0.51867995  0.47799201
   0.47484724  0.51127600  0.53743522
   0.48644150  0.49990743  0.50525786
   0.55186306  0.49705344  0.47197642
   0.53630131  0.50899149  0.50670297
Direct configuration=     7
   0.47991230  0.46410986  0.50063440
   0.47064105  0.51867898  0.47799097
   0.47485154  0.51127560  0.53743257
   0.48644166  0.49990623  0.50525530
   0.55186068  0.49705436  0.47197810
   0.53630282  0.50899391  0.50670863
Direct configuration=     8
   0.47990806  0.46410846  0.50063271
   0.47063677  0.51867706  0.47798943
   0.47485991  0.51127493  0.53742769
   0.48644126  0.49990395  0.50525075
   0.55186019  0.49705776  0.47198302
   0.53630387  0.50899679  0.50671637
Direct configuration=     9
   0.47990767  0.46410861  0.50063285
   0.47063641  0.51867690  0.47798970
   0.47485973  0.51127494  0.53742781
   0.48644106  0.49990408  0.50525121
   0.55186336  0.49705841  0.47198288
   0.53630184  0.50899601  0.50671551
Direct configuration=    10
   0.47990710  0.46410932  0.50063349
   0.47063597  0.51867664  0.47799075
   0.47485800  0.51127507  0.53742883
   0.48644053  0.49990480  0.50525329
   0.55187302  0.49705979  0.47198149
   0.53629544  0.50899334  0.50671211
Direct configuration=    11
   0.47990658  0.46411100  0.50063505
   0.47063573  0.51867637  0.47799315
   0.47485320  0.51127540  0.53743159
   0.48643954  0.49990662  0.50525825
   0.55189288  0.49706205  0.47197779
   0.53628213  0.50898750  0.50670413
Direct configuration=    12
   0.47990610  0.46411367  0.50063756
   0.47063569  0.51867610  0.47799691
   0.47484533  0.51127597  0.53743616
   0.48643801  0.49990954  0.50526605
   0.55192282  0.49706538  0.47197228
   0.53626210  0.50897829  0.50669101
Direct configuration=    13
   0.47990561  0.46411733  0.50064103
   0.47063578  0.51867584  0.47800206
   0.47483440  0.51127678  0.53744256
   0.48643587  0.49991350  0.50527662
   0.55196267  0.49707007  0.47196571
   0.53623573  0.50896543  0.50667199
Direct configuration=    14
   0.47990507  0.46412196  0.50064550
   0.47063597  0.51867558  0.47800863
   0.47482042  0.51127786  0.53745084
   0.48643298  0.49991846  0.50528986
   0.55201216  0.49707646  0.47195899
   0.53620347  0.50894862  0.50664614
Direct configuration=    15
   0.47990430  0.46412823  0.50065167
   0.47063617  0.51867532  0.47801760
   0.47480148  0.51127941  0.53746227
   0.48642876  0.49992501  0.50530746
   0.55207789  0.49708593  0.47195243
   0.53616145  0.50892505  0.50660853
Direct configuration=    16
   0.47990309  0.46413648  0.50065999
   0.47063623  0.51867506  0.47802957
   0.47477652  0.51128158  0.53747767
   0.48642277  0.49993340  0.50533022
   0.55216335  0.49709968  0.47194725
   0.53610809  0.50889275  0.50655525
Direct configuration=    17
   0.47990110  0.46414709  0.50067104
   0.47063584  0.51867482  0.47804529
   0.47474449  0.51128461  0.53749802
   0.48641430  0.49994378  0.50535882
   0.55227276  0.49711908  0.47194475
   0.53604156  0.50884957  0.50648204
Direct configuration=    18
   0.47989769  0.46416044  0.50068547
   0.47063441  0.51867462  0.47806553
   0.47470448  0.51128877  0.53752433
   0.48640242  0.49995610  0.50539364
   0.55241093  0.49714559  0.47194619
   0.53596012  0.50879343  0.50638480
Direct configuration=    19
   0.47989177  0.46417668  0.50070404
   0.47063089  0.51867450  0.47809112
   0.47465608  0.51129436  0.53755760
   0.48638582  0.49997010  0.50543453
   0.55258392  0.49718053  0.47195184
   0.53586158  0.50872277  0.50626084
Direct configuration=    20
   0.47988150  0.46419567  0.50072762
   0.47062336  0.51867461  0.47812276
   0.47459995  0.51130182  0.53759857
   0.48636283  0.49998496  0.50548050
   0.55279925  0.49722471  0.47196025
   0.53574316  0.50863717  0.50611027
Direct configuration=    21
   0.47986380  0.46421641  0.50075710
   0.47060852  0.51867527  0.47816075
   0.47453861  0.51131152  0.53764716
   0.48633152  0.49999944  0.50552968
   0.55306511  0.49727882  0.47196891
   0.53560249  0.50853749  0.50593636
Direct configuration=    22
   0.47983365  0.46423634  0.50079335
   0.47058088  0.51867712  0.47820460
   0.47447735  0.51132360  0.53770181
   0.48628977  0.50001175  0.50557900
   0.55338757  0.49734526  0.47197968
   0.53544083  0.50842488  0.50574152
Direct configuration=    23
   0.47978351  0.46425063  0.50083682
   0.47053205  0.51868115  0.47825223
   0.47442515  0.51133772  0.53775834
   0.48623608  0.50001996  0.50562397
   0.55376428  0.49743027  0.47200749
   0.53526898  0.50829921  0.50552111
Direct configuration=    24
   0.47970457  0.46425224  0.50088608
   0.47045200  0.51868843  0.47829875
   0.47439716  0.51135291  0.53780833
   0.48617294  0.50002135  0.50565697
   0.55417774  0.49753894  0.47207180
   0.53510564  0.50816509  0.50527803
Direct configuration=    25
   0.47970190  0.46425072  0.50088612
   0.47044907  0.51868862  0.47829805
   0.47440080  0.51135288  0.53780684
   0.48617308  0.50002044  0.50565485
   0.55417833  0.49754006  0.47207387
   0.53510686  0.50816622  0.50528024
Direct configuration=    26
   0.47969660  0.46424781  0.50088628
   0.47044328  0.51868899  0.47829676
   0.47440778  0.51135284  0.53780402
   0.48617336  0.50001872  0.50565082
   0.55418026  0.49754233  0.47207777
   0.53510878  0.50816826  0.50528431
Direct configuration=    27
   0.47968875  0.46424365  0.50088663
   0.47043473  0.51868951  0.47829506
   0.47441768  0.51135281  0.53780011
   0.48617368  0.50001632  0.50564525
   0.55418454  0.49754582  0.47208323
   0.53511067  0.50817083  0.50528967
Direct configuration=    28
   0.47967851  0.46423850  0.50088731
   0.47042363  0.51869016  0.47829318
   0.47442990  0.51135283  0.53779541
   0.48617394  0.50001341  0.50563857
   0.55419238  0.49755059  0.47208996
   0.53511170  0.50817346  0.50529554
Direct configuration=    29
   0.47966602  0.46423250  0.50088825
   0.47041016  0.51869083  0.47829117
   0.47444433  0.51135287  0.53778995
   0.48617403  0.50000998  0.50563082
   0.55420348  0.49755670  0.47209816
   0.53511204  0.50817606  0.50530162
Direct configuration=    30
   0.47965146  0.46422581  0.50088940
   0.47039454  0.51869143  0.47828908
   0.47446081  0.51135294  0.53778378
   0.48617386  0.50000603  0.50562202
   0.55421746  0.49756423  0.47210816
   0.53511193  0.50817850  0.50530751
Direct configuration=    31
   0.47963318  0.46421783  0.50089084
   0.47037504  0.51869188  0.47828676
   0.47448127  0.51135305  0.53777618
   0.48617323  0.50000101  0.50561108
   0.55423576  0.49757428  0.47212168
   0.53511158  0.50818089  0.50531342
Direct configuration=    32
   0.47961070  0.46420858  0.50089248
   0.47035122  0.51869190  0.47828421
   0.47450640  0.51135319  0.53776689
   0.48617186  0.49999465  0.50559751
   0.55425864  0.49758743  0.47213975
   0.53511124  0.50818318  0.50531912
Direct configuration=    33
   0.47958359  0.46419815  0.50089409
   0.47032271  0.51869111  0.47828142
   0.47453705  0.51135334  0.53775555
   0.48616947  0.49998661  0.50558066
   0.55428617  0.49760417  0.47216313
   0.53511107  0.50818557  0.50532511
Direct configuration=    34
   0.47955161  0.46418666  0.50089515
   0.47028936  0.51868883  0.47827816
   0.47457430  0.51135341  0.53774162
   0.48616587  0.49997651  0.50555972
   0.55431798  0.49762464  0.47219179
   0.53511094  0.50818890  0.50533352
Direct configuration=    35
   0.47951515  0.46417426  0.50089456
   0.47025168  0.51868419  0.47827378
   0.47461910  0.51135321  0.53772437
   0.48616101  0.49996406  0.50553409
   0.55435239  0.49764842  0.47222472
   0.53511073  0.50819480  0.50534845
Direct configuration=    36
   0.47947589  0.46416106  0.50089063
   0.47021136  0.51867633  0.47826700
   0.47467127  0.51135244  0.53770319
   0.48615536  0.49994949  0.50550414
   0.55438453  0.49767459  0.47226127
   0.53511165  0.50820504  0.50537374
Direct configuration=    37
   0.47943722  0.46414722  0.50088166
   0.47017171  0.51866506  0.47825624
   0.47472811  0.51135090  0.53767850
   0.48615007  0.49993317  0.50547170
   0.55440567  0.49770226  0.47230231
   0.53511729  0.50822034  0.50540955
Direct configuration=    38
   0.47940291  0.46413253  0.50086664
   0.47013633  0.51865089  0.47824031
   0.47478558  0.51134838  0.53765144
   0.48614665  0.49991645  0.50543861
   0.55440792  0.49772936  0.47234671
   0.53513068  0.50824133  0.50545625
Direct configuration=    39
   0.47937679  0.46411677  0.50084475
   0.47010889  0.51863433  0.47821827
   0.47484033  0.51134465  0.53762304
   0.48614657  0.49990014  0.50540529
   0.55438393  0.49775243  0.47238900
   0.53515354  0.50827063  0.50551962
Direct configuration=    40
   0.47936343  0.46409989  0.50081503
   0.47009377  0.51861587  0.47818901
   0.47488906  0.51133925  0.53759384
   0.48615113  0.49988458  0.50537151
   0.55432303  0.49776745  0.47242317
   0.53518964  0.50831191  0.50560740
Direct configuration=    41
   0.47936875  0.46408213  0.50077652
   0.47009657  0.51859616  0.47815139
   0.47492791  0.51133119  0.53756359
   0.48616122  0.49986956  0.50533645
   0.55420716  0.49777112  0.47244698
   0.53524844  0.50836879  0.50572503
Direct configuration=    42
   0.47939900  0.46406378  0.50072822
   0.47012326  0.51857642  0.47810374
   0.47495481  0.51131873  0.53752914
   0.48617810  0.49985418  0.50529887
   0.55400893  0.49775825  0.47245943
   0.53534596  0.50844759  0.50588055
Direct configuration=    43
   0.47946059  0.46404401  0.50066898
   0.47017982  0.51855856  0.47804348
   0.47497303  0.51129920  0.53748308
   0.48620571  0.49983675  0.50525487
   0.55369168  0.49771864  0.47245028
   0.53549923  0.50856179  0.50609927
Direct configuration=    44
   0.47955820  0.46402016  0.50059781
   0.47027047  0.51854539  0.47796747
   0.47499282  0.51126998  0.53741448
   0.48625153  0.49981568  0.50519551
   0.55320404  0.49763907  0.47241185
   0.53573299  0.50872867  0.50641283
Direct configuration=    45
   0.47969310  0.46398880  0.50051581
   0.47039647  0.51853965  0.47787488
   0.47502649  0.51122958  0.53731540
   0.48632771  0.49978892  0.50510828
   0.55248286  0.49751596  0.47236416
   0.53608343  0.50895604  0.50682144
Direct configuration=    46
   0.47987821  0.46396717  0.50044236
   0.47057387  0.51854840  0.47778947
   0.47502881  0.51118282  0.53721440
   0.48644741  0.49977470  0.50502909
   0.55163392  0.49732675  0.47221664
   0.53644784  0.50921911  0.50730801
Direct configuration=    47
   0.47988264  0.46397451  0.50044923
   0.47057940  0.51855031  0.47779840
   0.47500876  0.51118431  0.53722558
   0.48644416  0.49977950  0.50504319
   0.55164566  0.49734561  0.47225930
   0.53644944  0.50918472  0.50722427
Direct configuration=    48
   0.47989076  0.46398757  0.50046213
   0.47058948  0.51855432  0.47781482
   0.47497591  0.51118744  0.53724534
   0.48643883  0.49978787  0.50506725
   0.55168427  0.49736243  0.47228806
   0.53643080  0.50913932  0.50712236
Direct configuration=    49
   0.47989117  0.46398818  0.50046307
   0.47058999  0.51855475  0.47781586
   0.47497509  0.51118774  0.53724633
   0.48643875  0.49978837  0.50506831
   0.55169213  0.49735816  0.47227489
   0.53642292  0.50914174  0.50713150
Direct configuration=    50
   0.47989200  0.46398945  0.50046502
   0.47059102  0.51855565  0.47781805
   0.47497310  0.51118837  0.53724846
   0.48643849  0.49978946  0.50507069
   0.55170696  0.49735075  0.47225167
   0.53640848  0.50914527  0.50714607
Direct configuration=    51
   0.47989333  0.46399159  0.50046828
   0.47059267  0.51855710  0.47782173
   0.47496902  0.51118933  0.53725218
   0.48643774  0.49979139  0.50507503
   0.55172767  0.49734244  0.47222432
   0.53638963  0.50914710  0.50715843
Direct configuration=    52
   0.47989343  0.46399179  0.50046857
   0.47059279  0.51855722  0.47782206
   0.47496848  0.51118940  0.53725256
   0.48643760  0.49979158  0.50507551
   0.55172853  0.49734269  0.47222467
   0.53638923  0.50914627  0.50715660
Direct configuration=    53
   0.47989362  0.46399217  0.50046914
   0.47059303  0.51855745  0.47782271
   0.47496742  0.51118953  0.53725329
   0.48643733  0.49979196  0.50507645
   0.55173017  0.49734319  0.47222533
   0.53638848  0.50914465  0.50715304
Direct configuration=    54
   0.47989391  0.46399272  0.50046998
   0.47059337  0.51855780  0.47782367
   0.47496590  0.51118973  0.53725435
   0.48643692  0.49979249  0.50507780
   0.55173252  0.49734390  0.47222626
   0.53638743  0.50914231  0.50714790
Direct configuration=    55
   0.47989428  0.46399342  0.50047108
   0.47059380  0.51855827  0.47782492
   0.47496399  0.51118998  0.53725573
   0.48643638  0.49979317  0.50507951
   0.55173550  0.49734478  0.47222734
   0.53638610  0.50913933  0.50714138
Direct configuration=    56
   0.47989473  0.46399424  0.50047244
   0.47059429  0.51855886  0.47782645
   0.47496177  0.51119029  0.53725738
   0.48643573  0.49979395  0.50508152
   0.55173901  0.49734576  0.47222841
   0.53638453  0.50913583  0.50713376
Direct configuration=    57
   0.47989524  0.46399517  0.50047405
   0.47059481  0.51855958  0.47782827
   0.47495933  0.51119066  0.53725928
   0.48643497  0.49979482  0.50508376
   0.55174296  0.49734678  0.47222925
   0.53638275  0.50913193  0.50712536
Direct configuration=    58
   0.47989588  0.46399629  0.50047616
   0.47059536  0.51856055  0.47783062
   0.47495656  0.51119111  0.53726163
   0.48643402  0.49979583  0.50508640
   0.55174767  0.49734783  0.47222951
   0.53638056  0.50912734  0.50711565
Direct configuration=    59
   0.47989664  0.46399755  0.50047889
   0.47059585  0.51856188  0.47783364
   0.47495372  0.51119167  0.53726447
   0.48643286  0.49979689  0.50508932
   0.55175303  0.49734870  0.47222832
   0.53637795  0.50912226  0.50710532
Direct configuration=    60
   0.47989749  0.46399888  0.50048219
   0.47059618  0.51856354  0.47783730
   0.47495100  0.51119229  0.53726771
   0.48643158  0.49979797  0.50509245
   0.55175916  0.49734924  0.47222496
   0.53637464  0.50911703  0.50709536
Direct configuration=    61
   0.47989842  0.46400019  0.50048601
   0.47059625  0.51856551  0.47784157
   0.47494855  0.51119294  0.53727131
   0.48643024  0.49979903  0.50509574
   0.55176613  0.49734946  0.47221899
   0.53637048  0.50911182  0.50708634
Direct configuration=    62
   0.47989937  0.46400145  0.50049039
   0.47059597  0.51856784  0.47784645
   0.47494650  0.51119361  0.53727526
   0.48642891  0.49980004  0.50509925
   0.55177393  0.49734933  0.47221016
   0.53636539  0.50910668  0.50707844
Direct configuration=    63
   0.47990028  0.46400259  0.50049546
   0.47059516  0.51857062  0.47785210
   0.47494500  0.51119429  0.53727967
   0.48642766  0.49980102  0.50510314
   0.55178250  0.49734911  0.47219853
   0.53635946  0.50910131  0.50707106
Direct configuration=    64
   0.47990100  0.46400354  0.50050146
   0.47059350  0.51857399  0.47785876
   0.47494422  0.51119500  0.53728471
   0.48642660  0.49980203  0.50510771
   0.55179137  0.49734958  0.47218540
   0.53635336  0.50909481  0.50706192
Direct configuration=    65
   0.47990145  0.46400429  0.50050820
   0.47059106  0.51857779  0.47786625
   0.47494404  0.51119572  0.53729034
   0.48642575  0.49980310  0.50511295
   0.55179978  0.49735146  0.47217316
   0.53634799  0.50908659  0.50704906
Direct configuration=    66
   0.47990148  0.46400482  0.50051560
   0.47058776  0.51858190  0.47787454
   0.47494460  0.51119645  0.53729654
   0.48642519  0.49980423  0.50511880
   0.55180723  0.49735511  0.47216281
   0.53634380  0.50907645  0.50703168
Direct configuration=    67
   0.47990073  0.46400500  0.50052366
   0.47058325  0.51858621  0.47788371
   0.47494673  0.51119721  0.53730333
   0.48642512  0.49980529  0.50512498
   0.55181338  0.49736056  0.47215376
   0.53634084  0.50906468  0.50701052
Direct configuration=    68
   0.47990062  0.46400495  0.50052369
   0.47058311  0.51858619  0.47788378
   0.47494702  0.51119721  0.53730336
   0.48642519  0.49980526  0.50512494
   0.55181330  0.49736059  0.47215346
   0.53634083  0.50906474  0.50701073
Direct configuration=    69
   0.47990039  0.46400486  0.50052376
   0.47058283  0.51858616  0.47788392
   0.47494759  0.51119722  0.53730342
   0.48642531  0.49980518  0.50512484
   0.55181313  0.49736066  0.47215289
   0.53634080  0.50906486  0.50701112
Direct configuration=    70
   0.47990006  0.46400473  0.50052386
   0.47058241  0.51858612  0.47788414
   0.47494844  0.51119724  0.53730352
   0.48642549  0.49980507  0.50512471
   0.55181287  0.49736078  0.47215207
   0.53634078  0.50906501  0.50701165
Direct configuration=    71
   0.47989962  0.46400456  0.50052401
   0.47058185  0.51858606  0.47788444
   0.47494956  0.51119726  0.53730366
   0.48642573  0.49980492  0.50512455
   0.55181250  0.49736098  0.47215108
   0.53634079  0.50906517  0.50701222
Direct configuration=    72
   0.47989907  0.46400435  0.50052419
   0.47058116  0.51858599  0.47788483
   0.47495094  0.51119728  0.53730385
   0.48642601  0.49980474  0.50512438
   0.55181202  0.49736129  0.47214996
   0.53634086  0.50906530  0.50701275
Direct configuration=    73
   0.47989842  0.46400412  0.50052442
   0.47058034  0.51858590  0.47788530
   0.47495257  0.51119730  0.53730409
   0.48642632  0.49980453  0.50512421
   0.55181141  0.49736174  0.47214881
   0.53634101  0.50906536  0.50701313
Direct configuration=    74
   0.47989760  0.46400384  0.50052473
   0.47057929  0.51858579  0.47788592
   0.47495460  0.51119733  0.53730442
   0.48642668  0.49980427  0.50512404
   0.55181059  0.49736241  0.47214756
   0.53634129  0.50906531  0.50701328
Direct configuration=    75
   0.47989660  0.46400351  0.50052514
   0.47057800  0.51858564  0.47788674
   0.47495709  0.51119735  0.53730487
   0.48642710  0.49980396  0.50512391
   0.55180955  0.49736339  0.47214624
   0.53634173  0.50906509  0.50701307
Direct configuration=    76
   0.47989538  0.46400314  0.50052566
   0.47057641  0.51858546  0.47788779
   0.47496009  0.51119738  0.53730548
   0.48642757  0.49980358  0.50512384
   0.55180828  0.49736473  0.47214482
   0.53634233  0.50906466  0.50701237
Direct configuration=    77
   0.47989392  0.46400274  0.50052634
   0.47057450  0.51858524  0.47788915
   0.47496366  0.51119740  0.53730630
   0.48642808  0.49980313  0.50512387
   0.55180684  0.49736648  0.47214314
   0.53634305  0.50906396  0.50701116
Direct configuration=    78
   0.47989223  0.46400232  0.50052721
   0.47057224  0.51858496  0.47789089
   0.47496785  0.51119740  0.53730742
   0.48642861  0.49980260  0.50512408
   0.55180541  0.49736866  0.47214084
   0.53634372  0.50906301  0.50700952
Direct configuration=    79
   0.47989033  0.46400191  0.50052830
   0.47056963  0.51858462  0.47789308
   0.47497263  0.51119739  0.53730891
   0.48642911  0.49980201  0.50512457
   0.55180428  0.49737121  0.47213746
   0.53634409  0.50906181  0.50700764
Direct configuration=    80
   0.47988830  0.46400156  0.50052966
   0.47056674  0.51858421  0.47789581
   0.47497782  0.51119735  0.53731092
   0.48642952  0.49980137  0.50512546
   0.55180382  0.49737419  0.47213268
   0.53634385  0.50906027  0.50700543
Direct configuration=    81
   0.47988621  0.46400133  0.50053135
   0.47056365  0.51858374  0.47789916
   0.47498307  0.51119728  0.53731364
   0.48642987  0.49980071  0.50512704
   0.55180451  0.49737775  0.47212645
   0.53634276  0.50905812  0.50700231
Direct configuration=    82
   0.47988417  0.46400132  0.50053350
   0.47056045  0.51858325  0.47790333
   0.47498790  0.51119721  0.53731733
   0.48643003  0.49980016  0.50512960
   0.55180687  0.49738214  0.47211903
   0.53634064  0.50905488  0.50699717
Direct configuration=    83
   0.47988231  0.46400159  0.50053622
   0.47055729  0.51858275  0.47790847
   0.47499168  0.51119710  0.53732231
   0.48642992  0.49979987  0.50513346
   0.55181169  0.49738775  0.47211092
   0.53633716  0.50904989  0.50698858
Direct configuration=    84
   0.47988084  0.46400223  0.50053965
   0.47055434  0.51858222  0.47791480
   0.47499370  0.51119694  0.53732892
   0.48642933  0.49980003  0.50513903
   0.55182030  0.49739495  0.47210205
   0.53633155  0.50904258  0.50697551
Direct configuration=    85
   0.47987990  0.46400330  0.50054397
   0.47055173  0.51858173  0.47792256
   0.47499318  0.51119666  0.53733753
   0.48642819  0.49980080  0.50514669
   0.55183474  0.49740379  0.47209139
   0.53632231  0.50903265  0.50695782
Direct configuration=    86
   0.47987959  0.46400489  0.50054942
   0.47054942  0.51858134  0.47793199
   0.47498939  0.51119618  0.53734846
   0.48642639  0.49980227  0.50515679
   0.55185749  0.49741442  0.47207781
   0.53630778  0.50901984  0.50693549
Direct configuration=    87
   0.47987988  0.46400706  0.50055633
   0.47054720  0.51858117  0.47794334
   0.47498157  0.51119530  0.53736183
   0.48642373  0.49980438  0.50516977
   0.55189038  0.49742805  0.47206281
   0.53628731  0.50900298  0.50690589
Direct configuration=    88
   0.47988030  0.46400961  0.50056487
   0.47054431  0.51858127  0.47795663
   0.47496972  0.51119364  0.53737718
   0.48641982  0.49980670  0.50518539
   0.55193455  0.49744668  0.47204963
   0.53626136  0.50898105  0.50686626
Direct configuration=    89
   0.47987922  0.46401093  0.50057462
   0.47053817  0.51858148  0.47797105
   0.47495785  0.51119020  0.53739188
   0.48641435  0.49980748  0.50520001
   0.55199003  0.49747096  0.47203676
   0.53623043  0.50895790  0.50682565
Direct configuration=    90
   0.47987886  0.46401052  0.50057449
   0.47053759  0.51858143  0.47797086
   0.47495860  0.51118996  0.53739134
   0.48641429  0.49980718  0.50519933
   0.55198982  0.49747152  0.47203745
   0.53623091  0.50895835  0.50682649
Direct configuration=    91
   0.47987822  0.46400967  0.50057416
   0.47053641  0.51858130  0.47797050
   0.47496005  0.51118939  0.53739028
   0.48641419  0.49980656  0.50519799
   0.55198932  0.49747275  0.47203876
   0.53623187  0.50895928  0.50682828
Direct configuration=    92
   0.47987744  0.46400836  0.50057356
   0.47053465  0.51858107  0.47796997
   0.47496216  0.51118841  0.53738874
   0.48641410  0.49980556  0.50519600
   0.55198845  0.49747480  0.47204055
   0.53623326  0.50896074  0.50683116
Direct configuration=    93
   0.47987668  0.46400657  0.50057257
   0.47053236  0.51858069  0.47796929
   0.47496482  0.51118688  0.53738679
   0.48641406  0.49980415  0.50519345
   0.55198706  0.49747788  0.47204261
   0.53623509  0.50896279  0.50683526
Direct configuration=    94
   0.47987614  0.46400430  0.50057108
   0.47052957  0.51858010  0.47796851
   0.47496790  0.51118467  0.53738451
   0.48641408  0.49980227  0.50519042
   0.55198499  0.49748222  0.47204491
   0.53623737  0.50896538  0.50684054
Direct configuration=    95
   0.47987591  0.46400162  0.50056905
   0.47052643  0.51857928  0.47796758
   0.47497129  0.51118182  0.53738198
   0.48641420  0.49979996  0.50518702
   0.55198208  0.49748773  0.47204738
   0.53624015  0.50896854  0.50684695
Direct configuration=    96
   0.47987612  0.46399825  0.50056614
   0.47052274  0.51857809  0.47796639
   0.47497523  0.51117794  0.53737895
   0.48641445  0.49979696  0.50518297
   0.55197766  0.49749505  0.47205028
   0.53624387  0.50897267  0.50685523
Direct configuration=    97
   0.47987702  0.46399415  0.50056213
   0.47051870  0.51857638  0.47796487
   0.47497956  0.51117286  0.53737545
   0.48641490  0.49979323  0.50517829
   0.55197108  0.49750440  0.47205362
   0.53624879  0.50897794  0.50686559
Direct configuration=    98
   0.47987909  0.46398937  0.50055676
   0.47051478  0.51857394  0.47796306
   0.47498377  0.51116637  0.53737170
   0.48641564  0.49978886  0.50517325
   0.55196201  0.49751593  0.47205698
   0.53625477  0.50898446  0.50687822
Direct configuration=    99
   0.47988303  0.46398412  0.50054982
   0.47051189  0.51857054  0.47796103
   0.47498678  0.51115829  0.53736811
   0.48641678  0.49978409  0.50516840
   0.55195035  0.49752987  0.47205994
   0.53626123  0.50899204  0.50689265
Direct configuration=   100
   0.47988954  0.46397903  0.50054148
   0.47051116  0.51856622  0.47795904
   0.47498702  0.51114877  0.53736541
   0.48641823  0.49977887  0.50516488
   0.55193689  0.49754590  0.47206158
   0.53626723  0.50900016  0.50690757
Direct configuration=   101
   0.47988982  0.46397910  0.50054141
   0.47051148  0.51856615  0.47795910
   0.47498654  0.51114867  0.53736558
   0.48641826  0.49977889  0.50516513
   0.55193689  0.49754606  0.47206142
   0.53626707  0.50900008  0.50690731
Direct configuration=   102
   0.47989039  0.46397923  0.50054128
   0.47051210  0.51856603  0.47795923
   0.47498560  0.51114846  0.53736594
   0.48641833  0.49977893  0.50516563
   0.55193691  0.49754638  0.47206109
   0.53626673  0.50899992  0.50690680
Direct configuration=   103
   0.47989123  0.46397942  0.50054109
   0.47051301  0.51856584  0.47795943
   0.47498419  0.51114816  0.53736647
   0.48641842  0.49977900  0.50516638
   0.55193702  0.49754685  0.47206054
   0.53626618  0.50899968  0.50690606
Direct configuration=   104
   0.47989232  0.46397966  0.50054085
   0.47051420  0.51856561  0.47795970
   0.47498234  0.51114774  0.53736716
   0.48641853  0.49977910  0.50516737
   0.55193727  0.49754747  0.47205978
   0.53626539  0.50899936  0.50690510
Direct configuration=   105
   0.47989364  0.46397995  0.50054060
   0.47051561  0.51856533  0.47796006
   0.47498006  0.51114723  0.53736802
   0.48641864  0.49977926  0.50516861
   0.55193778  0.49754826  0.47205879
   0.53626432  0.50899892  0.50690389
Direct configuration=   106
   0.47989515  0.46398027  0.50054035
   0.47051721  0.51856502  0.47796053
   0.47497738  0.51114663  0.53736903
   0.48641872  0.49977947  0.50517008
   0.55193865  0.49754922  0.47205762
   0.53626295  0.50899833  0.50690236
Direct configuration=   107
   0.47989698  0.46398066  0.50054012
   0.47051911  0.51856467  0.47796118
   0.47497398  0.51114587  0.53737034
   0.48641876  0.49977979  0.50517198
   0.55194021  0.49755052  0.47205616
   0.53626101  0.50899743  0.50690018
Direct configuration=   108
   0.47989913  0.46398115  0.50053997
   0.47052130  0.51856429  0.47796209
   0.47496974  0.51114494  0.53737202
   0.48641872  0.49978023  0.50517439
   0.55194284  0.49755229  0.47205444
   0.53625833  0.50899605  0.50689705
Direct configuration=   109
   0.47990156  0.46398175  0.50054000
   0.47052368  0.51856391  0.47796335
   0.47496454  0.51114383  0.53737416
   0.48641854  0.49978081  0.50517739
   0.55194711  0.49755466  0.47205246
   0.53625462  0.50899399  0.50689260
Direct configuration=   110
   0.47990418  0.46398249  0.50054032
   0.47052610  0.51856358  0.47796508
   0.47495831  0.51114254  0.53737685
   0.48641814  0.49978154  0.50518107
   0.55195384  0.49755780  0.47205022
   0.53624948  0.50899099  0.50688643
Direct configuration=   111
   0.47990682  0.46398340  0.50054111
   0.47052833  0.51856337  0.47796741
   0.47495101  0.51114110  0.53738021
   0.48641741  0.49978241  0.50518550
   0.55196405  0.49756192  0.47204768
   0.53624243  0.50898675  0.50687806
Direct configuration=   112
   0.47990917  0.46398446  0.50054259
   0.47052993  0.51856333  0.47797055
   0.47494276  0.51113952  0.53738433
   0.48641618  0.49978340  0.50519070
   0.55197909  0.49756728  0.47204479
   0.53623293  0.50898094  0.50686699
Direct configuration=   113
   0.47991075  0.46398560  0.50054497
   0.47053032  0.51856351  0.47797463
   0.47493385  0.51113785  0.53738921
   0.48641425  0.49978448  0.50519662
   0.55200026  0.49757446  0.47204221
   0.53622063  0.50897305  0.50685232
Direct configuration=   114
   0.47991087  0.46398654  0.50054839
   0.47052868  0.51856383  0.47797977
   0.47492518  0.51113607  0.53739469
   0.48641117  0.49978568  0.50520289
   0.55202882  0.49758396  0.47204031
   0.53620533  0.50896287  0.50683391
Direct configuration=   115
   0.47990842  0.46398688  0.50055276
   0.47052369  0.51856428  0.47798568
   0.47491856  0.51113427  0.53740025
   0.48640698  0.49978645  0.50520860
   0.55206526  0.49759611  0.47203946
   0.53618715  0.50895097  0.50681321
Direct configuration=   116
   0.47990197  0.46398580  0.50055717
   0.47051375  0.51856464  0.47799115
   0.47491786  0.51113258  0.53740437
   0.48640233  0.49978557  0.50521135
   0.55210422  0.49761090  0.47204237
   0.53616993  0.50893945  0.50679354
Direct configuration=   117
   0.47990149  0.46398551  0.50055695
   0.47051321  0.51856454  0.47799090