  22  22   0   0
  0.1227273E+04  0.3000000E-08  0.3000000E-08  0.3000000E-08  0.0000000E+00
  1.000000000000000E-004
  CAR 
 unknown system                          
      2.19644957    -28.13332722  301     -4.47570641      1.00000000
    -28.133  0.0000E+00  0.0000E+00
    -28.032  0.0000E+00  0.0000E+00
    -27.931  0.0000E+00  0.0000E+00
    -27.830  0.0000E+00  0.0000E+00
    -27.729  0.0000E+00  0.0000E+00
    -27.628  0.0000E+00  0.0000E+00
    -27.527  0.0000E+00  0.0000E+00
    -27.426  0.0000E+00  0.0000E+00
    -27.325  0.0000E+00  0.0000E+00
    -27.223  0.4210E-15  0.4256E-16
    -27.122  0.8806E-13  0.8946E-14
    -27.021  0.1118E-10  0.1140E-11
    -26.920  0.8600E-09  0.8809E-10
    -26.819  0.4010E-07  0.4142E-08
    -26.718  0.1135E-05  0.1189E-06
    -26.617  0.1955E-04  0.2095E-05
    -26.516  0.2051E-03  0.2283E-04
    -26.415  0.1313E-02  0.1556E-03
    -26.314  0.5139E-02  0.6752E-03
    -26.212  0.1231E-01  0.1920E-02
    -26.111  0.1807E-01  0.3746E-02
    -26.010  0.1634E-01  0.5398E-02
    -25.909  0.9749E-02  0.6384E-02
    -25.808  0.6657E-02  0.7057E-02
    -25.707  0.1067E-01  0.8136E-02
    -25.606  0.1707E-01  0.9862E-02
    -25.505  0.1761E-01  0.1164E-01
    -25.404  0.1118E-01  0.1277E-01
    -25.303  0.4346E-02  0.1321E-01
    -25.201  0.1034E-02  0.1332E-01
    -25.100  0.1504E-03  0.1333E-01
    -24.999  0.1334E-04  0.1333E-01
    -24.898  0.7207E-06  0.1333E-01
    -24.797  0.2368E-07  0.1333E-01
    -24.696  0.4724E-09  0.1333E-01
    -24.595  0.5712E-11  0.1333E-01
    -24.494  0.4201E-13  0.1333E-01
    -24.393  0.4426E-13  0.1333E-01
    -24.292  0.5990E-11  0.1333E-01
    -24.190  0.4928E-09  0.1333E-01
    -24.089  0.2458E-07  0.1333E-01
    -23.988  0.7443E-06  0.1333E-01
    -23.887  0.1371E-04  0.1333E-01
    -23.786  0.1537E-03  0.1335E-01
    -23.685  0.1052E-02  0.1346E-01
    -23.584  0.4399E-02  0.1390E-01
    -23.483  0.1126E-01  0.1504E-01
    -23.382  0.1764E-01  0.1682E-01
    -23.281  0.1695E-01  0.1854E-01
    -23.179  0.1004E-01  0.1955E-01
    -23.078  0.4166E-02  0.1997E-01
    -22.977  0.3628E-02  0.2034E-01
    -22.876  0.8705E-02  0.2122E-01
    -22.775  0.1597E-01  0.2284E-01
    -22.674  0.1816E-01  0.2467E-01
    -22.573  0.1266E-01  0.2595E-01
    -22.472  0.5408E-02  0.2650E-01
    -22.371  0.1413E-02  0.2664E-01
    -22.270  0.2258E-03  0.2666E-01
    -22.168  0.2202E-04  0.2667E-01
    -22.067  0.1308E-05  0.2667E-01
    -21.966  0.4727E-07  0.2667E-01
    -21.865  0.1037E-08  0.2667E-01
    -21.764  0.1381E-10  0.2667E-01
    -21.663  0.1112E-12  0.2667E-01
    -21.562  0.5418E-15  0.2667E-01
    -21.461  0.0000E+00  0.2667E-01
    -21.360  0.0000E+00  0.2667E-01
    -21.259  0.0000E+00  0.2667E-01
    -21.157  0.0000E+00  0.2667E-01
    -21.056  0.0000E+00  0.2667E-01
    -20.955  0.0000E+00  0.2667E-01
    -20.854  0.0000E+00  0.2667E-01
    -20.753  0.0000E+00  0.2667E-01
    -20.652  0.3551E-15  0.2667E-01
    -20.551  0.7573E-13  0.2667E-01
    -20.450  0.9761E-11  0.2667E-01
    -20.349  0.7618E-09  0.2667E-01
    -20.248  0.3605E-07  0.2667E-01
    -20.146  0.1036E-05  0.2667E-01
    -20.045  0.1810E-04  0.2667E-01
    -19.944  0.1927E-03  0.2669E-01
    -19.843  0.1252E-02  0.2681E-01
    -19.742  0.4971E-02  0.2732E-01
    -19.641  0.1208E-01  0.2854E-01
    -19.540  0.1798E-01  0.3036E-01
    -19.439  0.1640E-01  0.3201E-01
    -19.338  0.9165E-02  0.3294E-01
    -19.237  0.3137E-02  0.3326E-01
    -19.135  0.6567E-03  0.3332E-01
    -19.034  0.8397E-04  0.3333E-01
    -18.933  0.6559E-05  0.3333E-01
    -18.832  0.6518E-06  0.3333E-01
    -18.731  0.7089E-05  0.3333E-01
    -18.630  0.8953E-04  0.3334E-01
    -18.529  0.6906E-03  0.3341E-01
    -18.428  0.3254E-02  0.3374E-01
    -18.327  0.9378E-02  0.3469E-01
    -18.226  0.1655E-01  0.3636E-01
    -18.125  0.1790E-01  0.3817E-01
    -18.023  0.1190E-01  0.3938E-01
    -17.922  0.5164E-02  0.3990E-01
    -17.821  0.3162E-02  0.4022E-01
    -17.720  0.6950E-02  0.4092E-01
    -17.619  0.1428E-01  0.4236E-01
    -17.518  0.1841E-01  0.4423E-01
    -17.417  0.1457E-01  0.4570E-01
    -17.316  0.7060E-02  0.4641E-01
    -17.215  0.2095E-02  0.4662E-01
    -17.114  0.3801E-03  0.4666E-01
    -17.012  0.4210E-04  0.4667E-01
    -16.911  0.2843E-05  0.4667E-01
    -16.810  0.1168E-06  0.4667E-01
    -16.709  0.2918E-08  0.4667E-01
    -16.608  0.1434E-09  0.4667E-01
    -16.507  0.5975E-08  0.4667E-01
    -16.406  0.2183E-06  0.4667E-01
    -16.305  0.4847E-05  0.4667E-01
    -16.204  0.6552E-04  0.4667E-01
    -16.103  0.5400E-03  0.4673E-01
    -16.001  0.2718E-02  0.4700E-01
    -15.900  0.8369E-02  0.4785E-01
    -15.799  0.1578E-01  0.4944E-01
    -15.698  0.1822E-01  0.5129E-01
    -15.597  0.1290E-01  0.5259E-01
    -15.496  0.5594E-02  0.5316E-01
    -15.395  0.1505E-02  0.5331E-01
    -15.294  0.4572E-03  0.5335E-01
    -15.193  0.1392E-02  0.5350E-01
    -15.092  0.5290E-02  0.5403E-01
    -14.990  0.1251E-01  0.5529E-01
    -14.889  0.1812E-01  0.5713E-01
    -14.788  0.1608E-01  0.5875E-01
    -14.687  0.8750E-02  0.5964E-01
    -14.586  0.2928E-02  0.5993E-01
    -14.485  0.7492E-03  0.6001E-01
    -14.384  0.1135E-02  0.6012E-01
    -14.283  0.4433E-02  0.6057E-01
    -14.182  0.1130E-01  0.6171E-01
    -14.081  0.1766E-01  0.6350E-01
    -13.979  0.1692E-01  0.6521E-01
    -13.878  0.9931E-02  0.6621E-01
    -13.777  0.3570E-02  0.6658E-01
    -13.676  0.7890E-03  0.6666E-01
    -13.575  0.1613E-03  0.6667E-01
    -13.474  0.4847E-03  0.6672E-01
    -13.373  0.2477E-02  0.6697E-01
    -13.272  0.7882E-02  0.6777E-01
    -13.171  0.1535E-01  0.6932E-01
    -13.070  0.1833E-01  0.7117E-01
    -12.968  0.1341E-01  0.7253E-01
    -12.867  0.6007E-02  0.7314E-01
    -12.766  0.1653E-02  0.7330E-01
    -12.665  0.3543E-03  0.7334E-01
    -12.564  0.6498E-03  0.7340E-01
    -12.463  0.3038E-02  0.7371E-01
    -12.362  0.9214E-02  0.7464E-01
    -12.261  0.1793E-01  0.7646E-01
    -12.160  0.2422E-01  0.7890E-01
    -12.059  0.2590E-01  0.8152E-01
    -11.957  0.2351E-01  0.8390E-01
    -11.856  0.1653E-01  0.8557E-01
    -11.755  0.8047E-02  0.8638E-01
    -11.654  0.3315E-02  0.8672E-01
    -11.553  0.4417E-02  0.8717E-01
    -11.452  0.1092E-01  0.8827E-01
    -11.351  0.1925E-01  0.9022E-01
    -11.250  0.2418E-01  0.9266E-01
    -11.149  0.2510E-01  0.9520E-01
    -11.048  0.2320E-01  0.9754E-01
    -10.946  0.1888E-01  0.9945E-01
    -10.845  0.1682E-01  0.1012E+00
    -10.744  0.1885E-01  0.1031E+00
    -10.643  0.1825E-01  0.1049E+00
    -10.542  0.1236E-01  0.1062E+00
    -10.441  0.8436E-02  0.1070E+00
    -10.340  0.1353E-01  0.1084E+00
    -10.239  0.2635E-01  0.1110E+00
    -10.138  0.3738E-01  0.1148E+00
    -10.037  0.3903E-01  0.1188E+00
     -9.935  0.3353E-01  0.1222E+00
     -9.834  0.2560E-01  0.1247E+00
     -9.733  0.1917E-01  0.1267E+00
     -9.632  0.1988E-01  0.1287E+00
     -9.531  0.2736E-01  0.1315E+00
     -9.430  0.3359E-01  0.1349E+00
     -9.329  0.3477E-01  0.1384E+00
     -9.228  0.3599E-01  0.1420E+00
     -9.127  0.3995E-01  0.1460E+00
     -9.026  0.4019E-01  0.1501E+00
     -8.924  0.3450E-01  0.1536E+00
     -8.823  0.2914E-01  0.1565E+00
     -8.722  0.2643E-01  0.1592E+00
     -8.621  0.2494E-01  0.1617E+00
     -8.520  0.2245E-01  0.1640E+00
     -8.419  0.1593E-01  0.1656E+00
     -8.318  0.7626E-02  0.1664E+00
     -8.217  0.2305E-02  0.1666E+00
     -8.116  0.4299E-03  0.1667E+00
     -8.015  0.4907E-04  0.1667E+00
     -7.913  0.3418E-05  0.1667E+00
     -7.812  0.1449E-06  0.1667E+00
     -7.711  0.3734E-08  0.1667E+00
     -7.610  0.1824E-09  0.1667E+00
     -7.509  0.7282E-08  0.1667E+00
     -7.408  0.2593E-06  0.1667E+00
     -7.307  0.5612E-05  0.1667E+00
     -7.206  0.7394E-04  0.1667E+00
     -7.105  0.5941E-03  0.1667E+00
     -7.004  0.2916E-02  0.1670E+00
     -6.902  0.8752E-02  0.1679E+00
     -6.801  0.1609E-01  0.1695E+00
     -6.700  0.1812E-01  0.1714E+00
     -6.599  0.1256E-01  0.1726E+00
     -6.498  0.5744E-02  0.1732E+00
     -6.397  0.3789E-02  0.1736E+00
     -6.296  0.8132E-02  0.1744E+00
     -6.195  0.1646E-01  0.1761E+00
     -6.094  0.2325E-01  0.1784E+00
     -5.993  0.2555E-01  0.1810E+00
     -5.891  0.2420E-01  0.1835E+00
     -5.790  0.1901E-01  0.1854E+00
     -5.689  0.1330E-01  0.1867E+00
     -5.588  0.1346E-01  0.1881E+00
     -5.487  0.1778E-01  0.1899E+00
     -5.386  0.1760E-01  0.1917E+00
     -5.285  0.1099E-01  0.1928E+00
     -5.184  0.4222E-02  0.1932E+00
     -5.083  0.9926E-03  0.1933E+00
     -4.982  0.1426E-03  0.1933E+00
     -4.880  0.1250E-04  0.1933E+00
     -4.779  0.6673E-06  0.1933E+00
     -4.678  0.2166E-07  0.1933E+00
     -4.577  0.4268E-09  0.1933E+00
     -4.476  0.5099E-11  0.1933E+00
     -4.375  0.3688E-13  0.1933E+00
     -4.274  0.1611E-15  0.1933E+00
     -4.173  0.0000E+00  0.1933E+00
     -4.072  0.0000E+00  0.1933E+00
     -3.971  0.0000E+00  0.1933E+00
     -3.870  0.0000E+00  0.1933E+00
     -3.768  0.0000E+00  0.1933E+00
     -3.667  0.0000E+00  0.1933E+00
     -3.566  0.0000E+00  0.1933E+00
     -3.465  0.0000E+00  0.1933E+00
     -3.364  0.0000E+00  0.1933E+00
     -3.263  0.0000E+00  0.1933E+00
     -3.162  0.0000E+00  0.1933E+00
     -3.061  0.0000E+00  0.1933E+00
     -2.960  0.0000E+00  0.1933E+00
     -2.859  0.0000E+00  0.1933E+00
     -2.757  0.0000E+00  0.1933E+00
     -2.656  0.0000E+00  0.1933E+00
     -2.555  0.0000E+00  0.1933E+00
     -2.454  0.0000E+00  0.1933E+00
     -2.353  0.0000E+00  0.1933E+00
     -2.252  0.0000E+00  0.1933E+00
     -2.151  0.3807E-15  0.1933E+00
     -2.050  0.8051E-13  0.1933E+00
     -1.949  0.1032E-10  0.1933E+00
     -1.848  0.8004E-09  0.1933E+00
     -1.746  0.3766E-07  0.1933E+00
     -1.645  0.1076E-05  0.1933E+00
     -1.544  0.1874E-04  0.1933E+00
     -1.443  0.1994E-03  0.1934E+00
     -1.342  0.1304E-02  0.1935E+00
     -1.241  0.5313E-02  0.1940E+00
     -1.140  0.1381E-01  0.1954E+00
     -1.039  0.2400E-01  0.1978E+00
     -0.938  0.2977E-01  0.2009E+00
     -0.837  0.2795E-01  0.2037E+00
     -0.735  0.2133E-01  0.2058E+00
     -0.634  0.1792E-01  0.2077E+00
     -0.533  0.2287E-01  0.2100E+00
     -0.432  0.3224E-01  0.2132E+00
     -0.331  0.4068E-01  0.2173E+00
     -0.230  0.4794E-01  0.2222E+00
     -0.129  0.5771E-01  0.2280E+00
     -0.028  0.7638E-01  0.2357E+00
      0.073  0.1023E+00  0.2461E+00
      0.174  0.1133E+00  0.2575E+00
      0.276  0.8943E-01  0.2666E+00
      0.377  0.4695E-01  0.2713E+00
      0.478  0.1590E-01  0.2729E+00
      0.579  0.3422E-02  0.2733E+00
      0.680  0.4632E-03  0.2733E+00
      0.781  0.3916E-04  0.2733E+00
      0.882  0.2055E-05  0.2733E+00
      0.983  0.6658E-07  0.2733E+00
      1.084  0.1326E-08  0.2733E+00
      1.185  0.1616E-10  0.2733E+00
      1.287  0.1202E-12  0.2733E+00
      1.388  0.5472E-15  0.2733E+00
      1.489  0.0000E+00  0.2733E+00
      1.590  0.0000E+00  0.2733E+00
      1.691  0.0000E+00  0.2733E+00
      1.792  0.0000E+00  0.2733E+00
      1.893  0.0000E+00  0.2733E+00
      1.994  0.0000E+00  0.2733E+00
      2.095  0.0000E+00  0.2733E+00
      2.196  0.0000E+00  0.2733E+00
