   22   22  300    1
  0.1227273E+04  0.3000000E-08  0.3000000E-08  0.3000000E-08  0.0000000E+00
  1.000000000000000E-004
  CAR 
 unknown system                          
     58      4     41
 
  0.2500000E+00  0.2500000E+00  0.2500000E+00  0.2500000E+00
    1      -26.133322   1.000000
    2      -25.598537   1.000000
    3      -23.390000   1.000000
    4      -22.748439   1.000000
    5      -19.558884   1.000000
    6      -18.209431   1.000000
    7      -17.566281   1.000000
    8      -15.769461   1.000000
    9      -14.913908   1.000000
   10      -14.089411   1.000000
   11      -13.134107   1.000000
   12      -12.238528   1.000000
   13      -11.996323   1.000000
   14      -11.349569   1.000000
   15      -11.096406   1.000000
   16      -10.731883   1.000000
   17      -10.220527   1.000000
   18      -10.117956   1.000000
   19       -9.914124   1.000000
   20       -9.550383   1.000000
   21       -9.392206   1.000000
   22       -9.152000   1.000000
   23       -9.072647   1.000000
   24       -8.822594   1.000000
   25       -8.562098   1.000000
   26       -6.776843   1.000000
   27       -6.156092   1.000000
   28       -5.909196   1.000000
   29       -5.482237   1.000000
   30       -1.058921   0.000000
   31       -0.872654   0.000000
   32       -0.503910   0.000000
   33       -0.329940   0.000000
   34       -0.198434   0.000000
   35       -0.071771   0.000000
   36        0.038287   0.000000
   37        0.122578   0.000000
   38        0.126972   0.000000
   39        0.131256   0.000000
   40        0.174652   0.000000
   41        0.192572   0.000000
 
 -0.2500000E+00  0.2500000E+00  0.2500000E+00  0.2500000E+00
    1      -26.133324   1.000000
    2      -25.598536   1.000000
    3      -23.389996   1.000000
    4      -22.748437   1.000000
    5      -19.558883   1.000000
    6      -18.209432   1.000000
    7      -17.566278   1.000000
    8      -15.769458   1.000000
    9      -14.913909   1.000000
   10      -14.089415   1.000000
   11      -13.134096   1.000000
   12      -12.238525   1.000000
   13      -11.996315   1.000000
   14      -11.349581   1.000000
   15      -11.096407   1.000000
   16      -10.731883   1.000000
   17      -10.220531   1.000000
   18      -10.117962   1.000000
   19       -9.914132   1.000000
   20       -9.550383   1.000000
   21       -9.392220   1.000000
   22       -9.151994   1.000000
   23       -9.072648   1.000000
   24       -8.822576   1.000000
   25       -8.562086   1.000000
   26       -6.776842   1.000000
   27       -6.156098   1.000000
   28       -5.909189   1.000000
   29       -5.482232   1.000000
   30       -1.058938   0.000000
   31       -0.872652   0.000000
   32       -0.503901   0.000000
   33       -0.329930   0.000000
   34       -0.198465   0.000000
   35       -0.072327   0.000000
   36        0.043843   0.000000
   37        0.108959   0.000000
   38        0.121038   0.000000
   39        0.139591   0.000000
   40        0.183881   0.000000
   41        0.191201   0.000000
 
  0.2500000E+00 -0.2500000E+00  0.2500000E+00  0.2500000E+00
    1      -26.133322   1.000000
    2      -25.598540   1.000000
    3      -23.390002   1.000000
    4      -22.748438   1.000000
    5      -19.558880   1.000000
    6      -18.209432   1.000000
    7      -17.566277   1.000000
    8      -15.769462   1.000000
    9      -14.913903   1.000000
   10      -14.089416   1.000000
   11      -13.134101   1.000000
   12      -12.238520   1.000000
   13      -11.996311   1.000000
   14      -11.349576   1.000000
   15      -11.096408   1.000000
   16      -10.731897   1.000000
   17      -10.220528   1.000000
   18      -10.117957   1.000000
   19       -9.914128   1.000000
   20       -9.550374   1.000000
   21       -9.392209   1.000000
   22       -9.152000   1.000000
   23       -9.072648   1.000000
   24       -8.822600   1.000000
   25       -8.562089   1.000000
   26       -6.776851   1.000000
   27       -6.156081   1.000000
   28       -5.909194   1.000000
   29       -5.482245   1.000000
   30       -1.058927   0.000000
   31       -0.872652   0.000000
   32       -0.503914   0.000000
   33       -0.329930   0.000000
   34       -0.198536   0.000000
   35       -0.071720   0.000000
   36        0.042518   0.000000
   37        0.104346   0.000000
   38        0.130144   0.000000
   39        0.136780   0.000000
   40        0.179328   0.000000
   41        0.194386   0.000000
 
 -0.2500000E+00 -0.2500000E+00  0.2500000E+00  0.2500000E+00
    1      -26.133327   1.000000
    2      -25.598533   1.000000
    3      -23.390001   1.000000
    4      -22.748438   1.000000
    5      -19.558881   1.000000
    6      -18.209432   1.000000
    7      -17.566277   1.000000
    8      -15.769459   1.000000
    9      -14.913907   1.000000
   10      -14.089409   1.000000
   11      -13.134100   1.000000
   12      -12.238521   1.000000
   13      -11.996321   1.000000
   14      -11.349563   1.000000
   15      -11.096406   1.000000
   16      -10.731883   1.000000
   17      -10.220532   1.000000
   18      -10.117963   1.000000
   19       -9.914134   1.000000
   20       -9.550378   1.000000
   21       -9.392208   1.000000
   22       -9.152000   1.000000
   23       -9.072649   1.000000
   24       -8.822584   1.000000
   25       -8.562096   1.000000
   26       -6.776832   1.000000
   27       -6.156092   1.000000
   28       -5.909191   1.000000
   29       -5.482255   1.000000
   30       -1.058928   0.000000
   31       -0.872654   0.000000
   32       -0.503895   0.000000
   33       -0.329934   0.000000
   34       -0.198465   0.000000
   35       -0.072417   0.000000
   36        0.045811   0.000000
   37        0.107342   0.000000
   38        0.127030   0.000000
   39        0.130644   0.000000
   40        0.177110   0.000000
   41        0.196450   0.000000
