       N       E                     dE             d eps       ncg     rms          rms(c)
DAV:   1     0.610906469329E+03    0.61091E+03   -0.79546E+03   392   0.485E+02
DAV:   2     0.279458240364E+03   -0.33145E+03   -0.32059E+03   563   0.922E+01
DAV:   3    -0.447509844449E+02   -0.32421E+03   -0.31507E+03   496   0.111E+02
DAV:   4    -0.136737404866E+03   -0.91986E+02   -0.91840E+02   397   0.828E+01
DAV:   5    -0.141952766497E+03   -0.52154E+01   -0.52015E+01   448   0.229E+01    0.196E+01
DAV:   6    -0.131804053503E+03    0.10149E+02   -0.23810E+01   414   0.199E+01    0.100E+01
DAV:   7    -0.130046429217E+03    0.17576E+01   -0.44583E+00   424   0.830E+00    0.516E+00
DAV:   8    -0.129559027178E+03    0.48740E+00   -0.88177E-01   432   0.407E+00    0.155E+00
DAV:   9    -0.129492205173E+03    0.66822E-01   -0.10083E-01   464   0.153E+00    0.569E-01
DAV:  10    -0.129481812176E+03    0.10393E-01   -0.25675E-02   440   0.822E-01    0.259E-01
DAV:  11    -0.129477015150E+03    0.47970E-02   -0.78255E-03   440   0.432E-01    0.161E-01
DAV:  12    -0.129478238313E+03   -0.12232E-02   -0.61616E-03   396   0.353E-01    0.973E-02
DAV:  13    -0.129484527641E+03   -0.62893E-02   -0.42260E-03   432   0.297E-01    0.574E-02
DAV:  14    -0.129491001194E+03   -0.64736E-02   -0.16431E-03   416   0.183E-01    0.370E-02
DAV:  15    -0.129498628297E+03   -0.76271E-02   -0.75244E-04   398   0.967E-02    0.227E-02
DAV:  16    -0.129504671864E+03   -0.60436E-02   -0.49257E-04   332   0.705E-02    0.130E-02
DAV:  17    -0.129507476777E+03   -0.28049E-02   -0.14998E-04   334   0.409E-02    0.784E-03
DAV:  18    -0.129508971288E+03   -0.14945E-02   -0.10109E-04   302   0.279E-02    0.517E-03
DAV:  19    -0.129509829262E+03   -0.85797E-03   -0.44148E-05   324   0.198E-02    0.312E-03
DAV:  20    -0.129510261027E+03   -0.43177E-03   -0.19529E-05   320   0.139E-02    0.218E-03
DAV:  21    -0.129510434425E+03   -0.17340E-03   -0.67647E-06   350   0.768E-03    0.116E-03
DAV:  22    -0.129510574613E+03   -0.14019E-03   -0.38916E-06   280   0.625E-03    0.994E-04
DAV:  23    -0.129510608242E+03   -0.33629E-04   -0.92809E-07   360   0.320E-03
   1 F= -.12951061E+03 E0= -.12951061E+03  d E =-.129511E+03
       N       E                     dE             d eps       ncg     rms          rms(c)
DAV:   1    -0.129511105594E+03   -0.53098E-03   -0.13631E-02   333   0.624E-01    0.286E-02
DAV:   2    -0.129511134219E+03   -0.28625E-04   -0.36156E-04   432   0.906E-02    0.185E-02
DAV:   3    -0.129511134540E+03   -0.32061E-06   -0.15156E-05   270   0.225E-02    0.104E-02
DAV:   4    -0.129511141058E+03   -0.65182E-05   -0.12664E-05   320   0.183E-02    0.281E-03
DAV:   5    -0.129511143251E+03   -0.21929E-05   -0.23686E-06   272   0.842E-03    0.151E-03
DAV:   6    -0.129511144799E+03   -0.15486E-05   -0.47057E-07   304   0.354E-03
   2 F= -.12951114E+03 E0= -.12951114E+03  d E =-.536557E-03
       N       E                     dE             d eps       ncg     rms          rms(c)
DAV:   1    -0.129511614687E+03   -0.47144E-03   -0.28150E-02   352   0.892E-01    0.388E-02
DAV:   2    -0.129511656326E+03   -0.41639E-04   -0.64382E-04   453   0.121E-01    0.256E-02
DAV:   3    -0.129511651772E+03    0.45536E-05   -0.20123E-05   271   0.268E-02    0.149E-02
DAV:   4    -0.129511657318E+03   -0.55459E-05   -0.23698E-05   268   0.252E-02    0.442E-03
DAV:   5    -0.129511657544E+03   -0.22556E-06   -0.53990E-06   272   0.129E-02    0.221E-03
DAV:   6    -0.129511657881E+03   -0.33693E-06   -0.91667E-07   270   0.490E-03
   3 F= -.12951166E+03 E0= -.12951166E+03  d E =-.513081E-03
       N       E                     dE             d eps       ncg     rms          rms(c)
DAV:   1    -0.129512300916E+03   -0.64337E-03   -0.40692E-02   332   0.107E+00    0.459E-02
DAV:   2    -0.129512352546E+03   -0.51629E-04   -0.83547E-04   394   0.132E-01    0.297E-02
DAV:   3    -0.129512350813E+03    0.17325E-05   -0.24909E-05   268   0.293E-02    0.169E-02
DAV:   4    -0.129512360547E+03   -0.97335E-05   -0.18818E-05   300   0.227E-02    0.423E-03
DAV:   5    -0.129512361040E+03   -0.49282E-06   -0.43529E-06   271   0.116E-02    0.182E-03
DAV:   6    -0.129512361460E+03   -0.42063E-06   -0.69441E-07   206   0.426E-03
   4 F= -.12951236E+03 E0= -.12951236E+03  d E =-.703580E-03
       N       E                     dE             d eps       ncg     rms          rms(c)
DAV:   1    -0.129513076953E+03   -0.71591E-03   -0.69147E-02   331   0.140E+00    0.596E-02
DAV:   2    -0.129513165227E+03   -0.88274E-04   -0.14304E-03   396   0.176E-01    0.383E-02
DAV:   3    -0.129513162107E+03    0.31201E-05   -0.41004E-05   300   0.375E-02    0.217E-02
DAV:   4    -0.129513177194E+03   -0.15087E-04   -0.32122E-05   300   0.300E-02    0.502E-03
DAV:   5    -0.129513177896E+03   -0.70208E-06   -0.65736E-06   272   0.144E-02    0.261E-03
DAV:   6    -0.129513178422E+03   -0.52561E-06   -0.11188E-06   228   0.553E-03
   5 F= -.12951318E+03 E0= -.12951318E+03  d E =-.816962E-03
       N       E                     dE             d eps       ncg     rms          rms(c)
DAV:   1    -0.129513733370E+03   -0.55547E-03   -0.94401E-02   332   0.163E+00    0.688E-02
DAV:   2    -0.129513861389E+03   -0.12802E-03   -0.19480E-03   396   0.206E-01    0.438E-02
DAV:   3    -0.129513855450E+03    0.59384E-05   -0.51333E-05   257   0.421E-02    0.242E-02
DAV:   4    -0.129513874781E+03   -0.19331E-04   -0.44186E-05   252   0.355E-02    0.555E-03
DAV:   5    -0.129513875452E+03   -0.67127E-06   -0.90221E-06   272   0.168E-02    0.309E-03
DAV:   6    -0.129513876142E+03   -0.68972E-06   -0.14271E-06   208   0.620E-03
   6 F= -.12951388E+03 E0= -.12951388E+03  d E =-.697720E-03
       N       E                     dE             d eps       ncg     rms          rms(c)
DAV:   1    -0.129514384723E+03   -0.50927E-03   -0.10513E-01   333   0.171E+00    0.723E-02
DAV:   2    -0.129514525412E+03   -0.14069E-03   -0.21659E-03   428   0.216E-01    0.467E-02
DAV:   3    -0.129514517294E+03    0.81178E-05   -0.60513E-05   235   0.448E-02    0.265E-02
DAV:   4    -0.129514543822E+03   -0.26527E-04   -0.46852E-05   301   0.357E-02    0.667E-03
DAV:   5    -0.129514544636E+03   -0.81407E-06   -0.10695E-05   272   0.181E-02    0.286E-03
DAV:   6    -0.129514545371E+03   -0.73560E-06   -0.15900E-06   238   0.648E-03
   7 F= -.12951455E+03 E0= -.12951455E+03  d E =-.669229E-03
       N       E                     dE             d eps       ncg     rms          rms(c)
DAV:   1    -0.129514995327E+03   -0.45069E-03   -0.13531E-01   329   0.192E+00    0.838E-02
DAV:   2    -0.129515171704E+03   -0.17638E-03   -0.28278E-03   395   0.245E-01    0.558E-02
DAV:   3    -0.129515156854E+03    0.14850E-04   -0.86919E-05   307   0.535E-02    0.322E-02
DAV:   4    -0.129515193065E+03   -0.36211E-04   -0.61594E-05   300   0.419E-02    0.745E-03
DAV:   5    -0.129515194222E+03   -0.11570E-05   -0.13856E-05   272   0.204E-02    0.335E-03
DAV:   6    -0.129515195441E+03   -0.12193E-05   -0.21248E-06   236   0.751E-03
   8 F= -.12951520E+03 E0= -.12951520E+03  d E =-.650070E-03
       N       E                     dE             d eps       ncg     rms          rms(c)
DAV:   1    -0.129515569755E+03   -0.37553E-03   -0.17680E-01   328   0.219E+00    0.956E-02
DAV:   2    -0.129515800381E+03   -0.23063E-03   -0.36299E-03   396   0.275E-01    0.619E-02
DAV:   3    -0.129515788671E+03    0.11710E-04   -0.10058E-04   281   0.580E-02    0.339E-02
DAV:   4    -0.129515826832E+03   -0.38161E-04   -0.68215E-05   276   0.438E-02    0.701E-03
DAV:   5    -0.129515828879E+03   -0.20471E-05   -0.14173E-05   262   0.203E-02    0.357E-03
DAV:   6    -0.129515830480E+03   -0.16005E-05   -0.20988E-06   300   0.718E-03
   9 F= -.12951583E+03 E0= -.12951583E+03  d E =-.635038E-03
       N       E                     dE             d eps       ncg     rms          rms(c)
DAV:   1    -0.129516184749E+03   -0.35587E-03   -0.22578E-01   328   0.246E+00    0.107E-01
DAV:   2    -0.129516459377E+03   -0.27463E-03   -0.43044E-03   396   0.302E-01    0.706E-02
DAV:   3    -0.129516445310E+03    0.14067E-04   -0.13224E-04   272   0.665E-02    0.376E-02
DAV:   4    -0.129516486828E+03   -0.41519E-04   -0.91728E-05   268   0.496E-02    0.791E-03
DAV:   5    -0.129516488720E+03   -0.18917E-05   -0.18570E-05   244   0.232E-02    0.414E-03
DAV:   6    -0.129516490466E+03   -0.17455E-05   -0.28265E-06   288   0.833E-03
  10 F= -.12951649E+03 E0= -.12951649E+03  d E =-.659986E-03
       N       E                     dE             d eps       ncg     rms          rms(c)
DAV:   1    -0.129516814936E+03   -0.32622E-03   -0.27683E-01   328   0.272E+00    0.122E-01
DAV:   2    -0.129517161950E+03   -0.34701E-03   -0.54189E-03   396   0.343E-01    0.794E-02
DAV:   3    -0.129517150147E+03    0.11803E-04   -0.16830E-04   281   0.744E-02    0.428E-02
DAV:   4    -0.129517197954E+03   -0.47806E-04   -0.10682E-04   268   0.536E-02    0.894E-03
DAV:   5    -0.129517200238E+03   -0.22847E-05   -0.21611E-05   270   0.252E-02    0.446E-03
DAV:   6    -0.129517202176E+03   -0.19372E-05   -0.35896E-06   236   0.934E-03
  11 F= -.12951720E+03 E0= -.12951720E+03  d E =-.711710E-03
       N       E                     dE             d eps       ncg     rms          rms(c)
DAV:   1    -0.129517378312E+03   -0.17807E-03   -0.34142E-01   328   0.304E+00    0.134E-01
DAV:   2    -0.129517861201E+03   -0.48289E-03   -0.72206E-03   388   0.393E-01    0.895E-02
DAV:   3    -0.129517831636E+03    0.29565E-04   -0.20235E-04   330   0.835E-02    0.498E-02
DAV:   4    -0.129517883650E+03   -0.52014E-04   -0.15157E-04   332   0.653E-02    0.926E-03
DAV:   5    -0.129517887100E+03   -0.34505E-05   -0.30044E-05   296   0.289E-02    0.564E-03
DAV:   6    -0.129517889314E+03   -0.22139E-05   -0.37248E-06   242   0.101E-02
  12 F= -.12951789E+03 E0= -.12951789E+03  d E =-.687139E-03
       N       E                     dE             d eps       ncg     rms          rms(c)
DAV:   1    -0.129518056360E+03   -0.16926E-03   -0.53870E-03   364   0.386E-01    0.211E-02
DAV:   2    -0.129518073511E+03   -0.17151E-04   -0.22781E-04   338   0.688E-02    0.144E-02
DAV:   3    -0.129518073146E+03    0.36510E-06   -0.78360E-06   269   0.155E-02    0.896E-03
DAV:   4    -0.129518075472E+03   -0.23265E-05   -0.76565E-06   265   0.142E-02    0.207E-03
DAV:   5    -0.129518076770E+03   -0.12974E-05   -0.16654E-06   264   0.666E-03    0.106E-03
DAV:   6    -0.129518077610E+03   -0.84053E-06   -0.28634E-07   254   0.265E-03
  13 F= -.12951808E+03 E0= -.12951808E+03  d E =-.188296E-03
       N       E                     dE             d eps       ncg     rms          rms(c)
DAV:   1    -0.129518124335E+03   -0.47565E-04   -0.85335E-03   355   0.492E-01    0.245E-02
DAV:   2    -0.129518144290E+03   -0.19955E-04   -0.32176E-04   338   0.837E-02    0.173E-02
DAV:   3    -0.129518141314E+03    0.29763E-05   -0.11460E-05   272   0.188E-02    0.110E-02
DAV:   4    -0.129518139634E+03    0.16800E-05   -0.12174E-05   264   0.184E-02    0.273E-03
DAV:   5    -0.129518139769E+03   -0.13549E-06   -0.26920E-06   272   0.861E-03    0.145E-03
DAV:   6    -0.129518140143E+03   -0.37324E-06   -0.44366E-07   218   0.341E-03
  14 F= -.12951814E+03 E0= -.12951814E+03  d E =-.625321E-04
       N       E                     dE             d eps       ncg     rms          rms(c)
DAV:   1    -0.129518174106E+03   -0.34337E-04   -0.19094E-04   293   0.718E-02    0.375E-03
DAV:   2    -0.129518175493E+03   -0.13873E-05   -0.94616E-06   272   0.156E-02    0.246E-03
DAV:   3    -0.129518176077E+03   -0.58367E-06   -0.10129E-06   202   0.506E-03    0.156E-03
DAV:   4    -0.129518177000E+03   -0.92282E-06   -0.27804E-07   235   0.275E-03    0.438E-04
DAV:   5    -0.129518177442E+03   -0.44255E-06   -0.64264E-08   272   0.135E-03    0.220E-04
DAV:   6    -0.129518177797E+03   -0.35438E-06   -0.16192E-09   202   0.704E-04
  15 F= -.12951818E+03 E0= -.12951818E+03  d E =-.376543E-04
       N       E                     dE             d eps       ncg     rms          rms(c)
DAV:   1    -0.129518226725E+03   -0.49283E-04   -0.65138E-04   372   0.133E-01    0.744E-03
DAV:   2    -0.129518228520E+03   -0.17948E-05   -0.23738E-05   227   0.229E-02    0.458E-03
DAV:   3    -0.129518228695E+03   -0.17510E-06   -0.26959E-06   255   0.791E-03    0.260E-03
DAV:   4    -0.129518228844E+03   -0.14932E-06   -0.70905E-07   209   0.427E-03    0.767E-04
DAV:   5    -0.129518228933E+03   -0.88998E-07   -0.16155E-07   264   0.221E-03    0.326E-04
DAV:   6    -0.129518229005E+03   -0.71433E-07    0.27779E-10   238   0.107E-03
  16 F= -.12951823E+03 E0= -.12951823E+03  d E =-.512079E-04
       N       E                     dE             d eps       ncg     rms          rms(c)
DAV:   1    -0.129518272917E+03   -0.43984E-04   -0.10801E-03   376   0.172E-01    0.911E-03
DAV:   2    -0.129518274869E+03   -0.19520E-05   -0.35615E-05   211   0.284E-02    0.572E-03
DAV:   3    -0.129518274714E+03    0.15510E-06   -0.41409E-06   272   0.987E-03    0.329E-03
DAV:   4    -0.129518274472E+03    0.24264E-06   -0.11568E-06   202   0.538E-03    0.952E-04
DAV:   5    -0.129518274427E+03    0.44474E-07   -0.31139E-07   262   0.276E-03    0.409E-04
DAV:   6    -0.129518274478E+03   -0.51386E-07   -0.67479E-08   194   0.133E-03
  17 F= -.12951827E+03 E0= -.12951827E+03  d E =-.454737E-04
       N       E                     dE             d eps       ncg     rms          rms(c)
DAV:   1    -0.129518310790E+03   -0.36363E-04   -0.13199E-03   363   0.191E-01    0.921E-03
DAV:   2    -0.129518312571E+03   -0.17812E-05   -0.33952E-05   236   0.285E-02    0.586E-03
DAV:   3    -0.129518312526E+03    0.44927E-07   -0.40578E-06   204   0.998E-03    0.335E-03
DAV:   4    -0.129518312461E+03    0.65015E-07   -0.11528E-06   209   0.548E-03    0.901E-04
DAV:   5    -0.129518312499E+03   -0.37917E-07   -0.30381E-07   164   0.274E-03    0.401E-04
DAV:   6    -0.129518312598E+03   -0.98790E-07   -0.71831E-08   200   0.131E-03
  18 F= -.12951831E+03 E0= -.12951831E+03  d E =-.381197E-04
       N       E                     dE             d eps       ncg     rms          rms(c)
DAV:   1    -0.129518356625E+03   -0.44126E-04   -0.16000E-03   339   0.206E-01    0.917E-03
DAV:   2    -0.129518358019E+03   -0.13936E-05   -0.26898E-05   200   0.262E-02    0.575E-03
DAV:   3    -0.129518358266E+03   -0.24754E-06   -0.32971E-06   164   0.931E-03    0.301E-03
DAV:   4    -0.129518358516E+03   -0.24957E-06   -0.90403E-07   197   0.491E-03    0.686E-04
DAV:   5    -0.129518358644E+03   -0.12786E-06   -0.21878E-07   167   0.238E-03    0.335E-04
DAV:   6    -0.129518358764E+03   -0.12015E-06   -0.44562E-08   197   0.112E-03
  19 F= -.12951836E+03 E0= -.12951836E+03  d E =-.461655E-04
       N       E                     dE             d eps       ncg     rms          rms(c)
DAV:   1    -0.129518424159E+03   -0.65515E-04   -0.23096E-03   389   0.243E-01    0.106E-02
DAV:   2    -0.129518425810E+03   -0.16517E-05   -0.30982E-05   208   0.282E-02    0.659E-03
DAV:   3    -0.129518426403E+03   -0.59225E-06   -0.38644E-06   251   0.103E-02    0.296E-03
DAV:   4    -0.129518426831E+03   -0.42885E-06   -0.10208E-06   270   0.504E-03    0.628E-04
DAV:   5    -0.129518426985E+03   -0.15341E-06   -0.21906E-07   202   0.243E-03    0.305E-04
DAV:   6    -0.129518427092E+03   -0.10685E-06   -0.31064E-08   221   0.118E-03
  20 F= -.12951843E+03 E0= -.12951843E+03  d E =-.683280E-04
       N       E                     dE             d eps       ncg     rms          rms(c)
DAV:   1    -0.129518521289E+03   -0.94304E-04   -0.43614E-03   345   0.336E-01    0.148E-02
DAV:   2    -0.129518524987E+03   -0.36976E-05   -0.65870E-05   237   0.407E-02    0.924E-03
DAV:   3    -0.129518525795E+03   -0.80831E-06   -0.81433E-06   256   0.148E-02    0.426E-03
DAV:   4    -0.129518526285E+03   -0.49023E-06   -0.22353E-06   270   0.746E-03    0.936E-04
DAV:   5    -0.129518526374E+03   -0.89266E-07   -0.52147E-07   204   0.371E-03    0.454E-04
DAV:   6    -0.129518526435E+03   -0.60371E-07   -0.11783E-07   176   0.180E-03
  21 F= -.12951853E+03 E0= -.12951853E+03  d E =-.993430E-04
       N       E                     dE             d eps       ncg     rms          rms(c)
DAV:   1    -0.129518632883E+03   -0.10651E-03   -0.76834E-03   341   0.447E-01    0.199E-02
DAV:   2    -0.129518640307E+03   -0.74243E-05   -0.12924E-04   252   0.558E-02    0.125E-02
DAV:   3    -0.129518640862E+03   -0.55511E-06   -0.11890E-05   263   0.168E-02    0.617E-03
DAV:   4    -0.129518641373E+03   -0.51031E-06   -0.45337E-06   244   0.103E-02    0.130E-03
DAV:   5    -0.129518641476E+03   -0.10304E-06   -0.11443E-06   238   0.522E-03    0.699E-04
DAV:   6    -0.129518641585E+03   -0.10917E-06   -0.31205E-07   204   0.234E-03
  22 F= -.12951864E+03 E0= -.12951864E+03  d E =-.115150E-03
       N       E                     dE             d eps       ncg     rms          rms(c)
DAV:   1    -0.129518753583E+03   -0.11211E-03   -0.11741E-02   328   0.550E-01    0.242E-02
DAV:   2    -0.129518763986E+03   -0.10403E-04   -0.18061E-04   241   0.665E-02    0.152E-02
DAV:   3    -0.129518765221E+03   -0.12353E-05   -0.16969E-05   236   0.201E-02    0.725E-03
DAV:   4    -0.129518766332E+03   -0.11106E-05   -0.62949E-06   263   0.120E-02    0.149E-03
DAV:   5    -0.129518766579E+03   -0.24723E-06   -0.16050E-06   200   0.602E-03    0.802E-04
DAV:   6    -0.129518766775E+03   -0.19610E-06   -0.46159E-07   181   0.270E-03
  23 F= -.12951877E+03 E0= -.12951877E+03  d E =-.125191E-03
       N       E                     dE             d eps       ncg     rms          rms(c)
DAV:   1    -0.129518914779E+03   -0.14820E-03   -0.16578E-02   332   0.649E-01    0.284E-02
DAV:   2    -0.129518928438E+03   -0.13659E-04   -0.23107E-04   298   0.750E-02    0.180E-02
DAV:   3    -0.129518930821E+03   -0.23836E-05   -0.21911E-05   266   0.203E-02    0.852E-03
DAV:   4    -0.129518932594E+03   -0.17726E-05   -0.55552E-06   254   0.122E-02    0.158E-03
DAV:   5    -0.129518932839E+03   -0.24471E-06   -0.12119E-06   208   0.569E-03    0.863E-04
DAV:   6    -0.129518933023E+03   -0.18438E-06   -0.22713E-07   213   0.230E-03
  24 F= -.12951893E+03 E0= -.12951893E+03  d E =-.166248E-03
       N       E                     dE             d eps       ncg     rms          rms(c)
DAV:   1    -0.129519119688E+03   -0.18685E-03   -0.23877E-02   329   0.783E-01    0.349E-02
DAV:   2    -0.129519144929E+03   -0.25240E-04   -0.39675E-04   364   0.936E-02    0.233E-02
DAV:   3    -0.129519143950E+03    0.97825E-06   -0.12112E-05   278   0.201E-02    0.125E-02
DAV:   4    -0.129519146702E+03   -0.27522E-05   -0.10164E-05   218   0.162E-02    0.212E-03
DAV:   5    -0.129519146863E+03   -0.16066E-06   -0.20026E-06   272   0.744E-03    0.134E-03
DAV:   6    -0.129519146990E+03   -0.12653E-06   -0.22195E-07   218   0.263E-03
  25 F= -.12951915E+03 E0= -.12951915E+03  d E =-.213967E-03
       N       E                     dE             d eps       ncg     rms          rms(c)
DAV:   1    -0.129519346705E+03   -0.19984E-03   -0.32520E-02   334   0.915E-01    0.406E-02
DAV:   2    -0.129519381496E+03   -0.34791E-04   -0.55010E-04   396   0.110E-01    0.271E-02
DAV:   3    -0.129519379716E+03    0.17800E-05   -0.13555E-05   220   0.224E-02    0.144E-02
DAV:   4    -0.129519383784E+03   -0.40677E-05   -0.15896E-05   267   0.192E-02    0.305E-03
DAV:   5    -0.129519383928E+03   -0.14462E-06   -0.29815E-06   240   0.937E-03    0.152E-03
DAV:   6    -0.129519384135E+03   -0.20612E-06   -0.35315E-07   192   0.319E-03
  26 F= -.12951938E+03 E0= -.12951938E+03  d E =-.237145E-03
       N       E                     dE             d eps       ncg     rms          rms(c)
DAV:   1    -0.129519634717E+03   -0.25079E-03   -0.41347E-02   333   0.104E+00    0.451E-02
DAV:   2    -0.129519682626E+03   -0.47909E-04   -0.71896E-04   370   0.125E-01    0.300E-02
DAV:   3    -0.129519681620E+03    0.10059E-05   -0.17060E-05   219   0.254E-02    0.157E-02
DAV:   4    -0.129519687218E+03   -0.55982E-05   -0.18285E-05   260   0.210E-02    0.329E-03
DAV:   5    -0.129519687466E+03   -0.24724E-06   -0.34378E-06   272   0.103E-02    0.165E-03
DAV:   6    -0.129519687734E+03   -0.26859E-06   -0.43774E-07   200   0.356E-03
  27 F= -.12951969E+03 E0= -.12951969E+03  d E =-.303600E-03
       N       E                     dE             d eps       ncg     rms          rms(c)
DAV:   1    -0.129519947518E+03   -0.26005E-03   -0.52891E-02   334   0.118E+00    0.505E-02
DAV:   2    -0.129520017018E+03   -0.69499E-04   -0.10059E-03   396   0.147E-01    0.336E-02
DAV:   3    -0.129520014780E+03    0.22375E-05   -0.21782E-05   237   0.291E-02    0.181E-02
DAV:   4    -0.129520021373E+03   -0.65929E-05   -0.23760E-05   267   0.247E-02    0.377E-03
DAV:   5    -0.129520021699E+03   -0.32597E-06   -0.48545E-06   264   0.124E-02    0.191E-03
DAV:   6    -0.129520022047E+03   -0.34748E-06   -0.64807E-07   210   0.420E-03
  28 F= -.12952002E+03 E0= -.12952002E+03  d E =-.334312E-03
       N       E                     dE             d eps       ncg     rms          rms(c)
DAV:   1    -0.129520328614E+03   -0.30692E-03   -0.63709E-02   333   0.130E+00    0.546E-02
DAV:   2    -0.129520417003E+03   -0.88389E-04   -0.12407E-03   385   0.162E-01    0.362E-02
DAV:   3    -0.129520415150E+03    0.18533E-05   -0.25158E-05   250   0.302E-02    0.195E-02
DAV:   4    -0.129520423968E+03   -0.88181E-05   -0.22211E-05   228   0.253E-02    0.329E-03
DAV:   5    -0.129520424592E+03   -0.62402E-06   -0.47586E-06   256   0.114E-02    0.202E-03
DAV:   6    -0.129520425041E+03   -0.44894E-06   -0.62072E-07   248   0.407E-03
  29 F= -.12952043E+03 E0= -.12952043E+03  d E =-.402994E-03
       N       E                     dE             d eps       ncg     rms          rms(c)
DAV:   1    -0.129520733070E+03   -0.30848E-03   -0.81499E-02   333   0.147E+00    0.608E-02
DAV:   2    -0.129520851262E+03   -0.11819E-03   -0.16559E-03   396   0.186E-01    0.403E-02
DAV:   3    -0.129520848769E+03    0.24926E-05   -0.30612E-05   242   0.335E-02    0.221E-02
DAV:   4    -0.129520860913E+03   -0.12144E-04   -0.28799E-05   267   0.289E-02    0.403E-03
DAV:   5    -0.129520861608E+03   -0.69485E-06   -0.59508E-06   240   0.130E-02    0.221E-03
DAV:   6    -0.129520862135E+03   -0.52679E-06   -0.69174E-07   200   0.435E-03
  30 F= -.12952086E+03 E0= -.12952086E+03  d E =-.437094E-03
       N       E                     dE             d eps       ncg     rms          rms(c)
DAV:   1    -0.129521171453E+03   -0.30984E-03   -0.11016E-01   329   0.172E+00    0.706E-02
DAV:   2    -0.129521349360E+03   -0.17791E-03   -0.24442E-03   361   0.224E-01    0.478E-02
DAV:   3    -0.129521343144E+03    0.62163E-05   -0.45601E-05   261   0.412E-02    0.274E-02
DAV:   4    -0.129521360200E+03   -0.17057E-04   -0.43347E-05   290   0.360E-02    0.522E-03
DAV:   5    -0.129521361303E+03   -0.11031E-05   -0.94264E-06   272   0.167E-02    0.286E-03
DAV:   6    -0.129521361965E+03   -0.66203E-06   -0.12360E-06   222   0.573E-03
  31 F= -.12952136E+03 E0= -.12952136E+03  d E =-.499830E-03
       N       E                     dE             d eps       ncg     rms          rms(c)
DAV:   1    -0.129521680709E+03   -0.31941E-03   -0.15108E-01   329   0.201E+00    0.809E-02
DAV:   2    -0.129521926718E+03   -0.24601E-03   -0.33283E-03   362   0.261E-01    0.539E-02
DAV:   3    -0.129521921697E+03    0.50209E-05   -0.60096E-05   299   0.452E-02    0.307E-02
DAV:   4    -0.129521946102E+03   -0.24406E-04   -0.53081E-05   251   0.412E-02    0.535E-03
DAV:   5    -0.129521947455E+03   -0.13523E-05   -0.11532E-05   264   0.181E-02    0.318E-03
DAV:   6    -0.129521948331E+03   -0.87691E-06   -0.13067E-06   238   0.591E-03
  32 F= -.12952195E+03 E0= -.12952195E+03  d E =-.586366E-03
       N       E                     dE             d eps       ncg     rms          rms(c)
DAV:   1    -0.129522254826E+03   -0.30737E-03   -0.21291E-01   328   0.239E+00    0.955E-02
DAV:   2    -0.129522598584E+03   -0.34376E-03   -0.46981E-03   338   0.309E-01    0.647E-02
DAV:   3    -0.129522589514E+03    0.90694E-05   -0.97336E-05   314   0.569E-02    0.380E-02
DAV:   4    -0.129522626804E+03   -0.37290E-04   -0.79461E-05   260   0.514E-02    0.712E-03
DAV:   5    -0.129522628641E+03   -0.18369E-05   -0.18959E-05   272   0.234E-02    0.398E-03
DAV:   6    -0.129522629826E+03   -0.11847E-05   -0.23144E-06   200   0.774E-03
  33 F= -.12952263E+03 E0= -.12952263E+03  d E =-.681495E-03
       N       E                     dE             d eps       ncg     rms          rms(c)
DAV:   1    -0.129522825324E+03   -0.19668E-03   -0.31971E-01   328   0.293E+00    0.116E-01
DAV:   2    -0.129523351840E+03   -0.52652E-03   -0.70786E-03   356   0.381E-01    0.769E-02
DAV:   3    -0.129523337928E+03    0.13913E-04   -0.13745E-04   316   0.662E-02    0.440E-02
DAV:   4    -0.129523386854E+03   -0.48926E-04   -0.11742E-04   298   0.612E-02    0.788E-03
DAV:   5    -0.129523389586E+03   -0.27325E-05   -0.25265E-05   256   0.266E-02    0.484E-03
DAV:   6    -0.129523391339E+03   -0.17530E-05   -0.30529E-06   284   0.874E-03
  34 F= -.12952339E+03 E0= -.12952339E+03  d E =-.761513E-03
       N       E                     dE             d eps       ncg     rms          rms(c)
DAV:   1    -0.129523119624E+03    0.26996E-03   -0.44226E-01   328   0.348E+00    0.143E-01
DAV:   2    -0.129523937575E+03   -0.81795E-03   -0.11237E-02   329   0.480E-01    0.103E-01
DAV:   3    -0.129523877010E+03    0.60565E-04   -0.29231E-04   400   0.957E-02    0.645E-02
DAV:   4    -0.129523934366E+03   -0.57357E-04   -0.21490E-04   296   0.846E-02    0.124E-02
DAV:   5    -0.129523938847E+03   -0.44808E-05   -0.51371E-05   304   0.378E-02    0.675E-03
DAV:   6    -0.129523941048E+03   -0.22008E-05   -0.55254E-06   270   0.126E-02
  35 F= -.12952394E+03 E0= -.12952394E+03  d E =-.549709E-03
       N       E                     dE             d eps       ncg     rms          rms(c)
DAV:   1    -0.129524317320E+03   -0.37847E-03   -0.25984E-02   363   0.850E-01    0.545E-02
DAV:   2    -0.129524407550E+03   -0.90229E-04   -0.12150E-03   393   0.158E-01    0.320E-02
DAV:   3    -0.129524396693E+03    0.10857E-04   -0.32372E-05   300   0.330E-02    0.183E-02
DAV:   4    -0.129524392616E+03    0.40765E-05   -0.26522E-05   281   0.270E-02    0.418E-03
DAV:   5    -0.129524393347E+03   -0.73104E-06   -0.63345E-06   335   0.126E-02    0.217E-03
DAV:   6    -0.129524394232E+03   -0.88434E-06   -0.91594E-07   252   0.493E-03
  36 F= -.12952439E+03 E0= -.12952439E+03  d E =-.453184E-03
       N       E                     dE             d eps       ncg     rms          rms(c)
DAV:   1    -0.129524066041E+03    0.32731E-03   -0.25101E-02   355   0.841E-01    0.510E-02
DAV:   2    -0.129524143442E+03   -0.77401E-04   -0.11664E-03   420   0.155E-01    0.312E-02
DAV:   3    -0.129524126775E+03    0.16667E-04   -0.28585E-05   272   0.319E-02    0.183E-02
DAV:   4    -0.129524115788E+03    0.10986E-04   -0.31935E-05   264   0.290E-02    0.420E-03
DAV:   5    -0.129524115476E+03    0.31252E-06   -0.72027E-06   272   0.145E-02    0.232E-03
DAV:   6    -0.129524116646E+03   -0.11704E-05   -0.13298E-06   262   0.587E-03
  37 F= -.12952412E+03 E0= -.12952412E+03  d E =0.277585E-03
       N       E                     dE             d eps       ncg     rms          rms(c)
DAV:   1    -0.129524265129E+03   -0.14965E-03   -0.12838E-03   373   0.188E-01    0.125E-02
DAV:   2    -0.129524271442E+03   -0.63131E-05   -0.52463E-05   270   0.347E-02    0.716E-03
DAV:   3    -0.129524273947E+03   -0.25049E-05   -0.70969E-06   234   0.126E-02    0.359E-03
DAV:   4    -0.129524276658E+03   -0.27111E-05   -0.98454E-07   246   0.536E-03    0.136E-03
DAV:   5    -0.129524278749E+03   -0.20910E-05   -0.39643E-07   265   0.292E-03    0.456E-04
DAV:   6    -0.129524280015E+03   -0.12656E-05   -0.69349E-08   240   0.136E-03
  38 F= -.12952428E+03 E0= -.12952428E+03  d E =-.163368E-03
       N       E                     dE             d eps       ncg     rms          rms(c)
DAV:   1    -0.129524437364E+03   -0.15861E-03   -0.39676E-03   360   0.332E-01    0.214E-02
DAV:   2    -0.129524450570E+03   -0.13206E-04   -0.18828E-04   337   0.624E-02    0.128E-02
DAV:   3    -0.129524448865E+03    0.17049E-05   -0.64199E-06   245   0.150E-02    0.745E-03
DAV:   4    -0.129524447913E+03    0.95185E-06   -0.52068E-06   264   0.117E-02    0.185E-03
DAV:   5    -0.129524447868E+03    0.44810E-07   -0.11930E-06   272   0.602E-03    0.926E-04
DAV:   6    -0.129524447998E+03   -0.12960E-06   -0.20871E-07   222   0.251E-03
  39 F= -.12952445E+03 E0= -.12952445E+03  d E =-.167983E-03
       N       E                     dE             d eps       ncg     rms          rms(c)
DAV:   1    -0.129524479282E+03   -0.31414E-04   -0.54702E-03   374   0.391E-01    0.247E-02
DAV:   2    -0.129524495012E+03   -0.15730E-04   -0.26065E-04   356   0.735E-02    0.151E-02
DAV:   3    -0.129524491124E+03    0.38876E-05   -0.92548E-06   272   0.179E-02    0.887E-03
DAV:   4    -0.129524487966E+03    0.31586E-05   -0.75008E-06   264   0.141E-02    0.226E-03
DAV:   5    -0.129524487768E+03    0.19784E-06   -0.17455E-06   272   0.727E-03    0.114E-03
DAV:   6    -0.129524488141E+03   -0.37319E-06   -0.34592E-07   218   0.305E-03
  40 F= -.12952449E+03 E0= -.12952449E+03  d E =-.401432E-04
       N       E                     dE             d eps       ncg     rms          rms(c)
DAV:   1    -0.129524491761E+03   -0.39931E-05   -0.38823E-06   240   0.105E-02    0.700E-04
DAV:   2    -0.129524492332E+03   -0.57166E-06   -0.33229E-07   244   0.303E-03    0.460E-04
DAV:   3    -0.129524492977E+03   -0.64450E-06   -0.73071E-08   215   0.113E-03    0.300E-04
DAV:   4    -0.129524494016E+03   -0.10392E-05   -0.46245E-08   225   0.752E-04    0.113E-04
DAV:   5    -0.129524494639E+03   -0.62263E-06   -0.26410E-08   271   0.520E-04    0.908E-05
DAV:   6    -0.129524495646E+03   -0.10070E-05   -0.44052E-08   264   0.543E-04
  41 F= -.12952450E+03 E0= -.12952450E+03  d E =-.750483E-05
       N       E                     dE             d eps       ncg     rms          rms(c)
DAV:   1    -0.129524501520E+03   -0.68811E-05   -0.14572E-05   236   0.206E-02    0.998E-04
DAV:   2    -0.129524501801E+03   -0.28147E-06   -0.10486E-06   272   0.568E-03    0.641E-04
DAV:   3    -0.129524501964E+03   -0.16257E-06   -0.10528E-07   200   0.171E-03    0.468E-04
DAV:   4    -0.129524502239E+03   -0.27498E-06   -0.40742E-09   236   0.948E-04    0.144E-04
DAV:   5    -0.129524502404E+03   -0.16539E-06    0.27365E-08   262   0.482E-04    0.812E-05
DAV:   6    -0.129524502513E+03   -0.10831E-06    0.41525E-08   203   0.278E-04
  42 F= -.12952450E+03 E0= -.12952450E+03  d E =-.686685E-05
       N       E                     dE             d eps       ncg     rms          rms(c)
DAV:   1    -0.129524509699E+03   -0.72944E-05   -0.30429E-05   246   0.298E-02    0.144E-03
DAV:   2    -0.129524509920E+03   -0.22124E-06   -0.21672E-06   202   0.820E-03    0.909E-04
DAV:   3    -0.129524509958E+03   -0.38556E-07   -0.21845E-07   211   0.248E-03    0.666E-04
DAV:   4    -0.129524509979E+03   -0.20302E-07   -0.15148E-08   236   0.135E-03    0.213E-04
DAV:   5    -0.129524509992E+03   -0.12757E-07    0.37871E-08   188   0.686E-04    0.117E-04
DAV:   6    -0.129524510004E+03   -0.12213E-07    0.57296E-08   182   0.390E-04
  43 F= -.12952451E+03 E0= -.12952451E+03  d E =-.749111E-05
       N       E                     dE             d eps       ncg     rms          rms(c)
DAV:   1    -0.129524518346E+03   -0.83547E-05   -0.48586E-05   168   0.377E-02    0.179E-03
DAV:   2    -0.129524518646E+03   -0.29972E-06   -0.34483E-06   190   0.103E-02    0.113E-03
DAV:   3    -0.129524518672E+03   -0.25598E-07   -0.37180E-07   164   0.313E-03    0.830E-04
DAV:   4    -0.129524518658E+03    0.13122E-07   -0.53317E-08   237   0.170E-03    0.266E-04
DAV:   5    -0.129524518657E+03    0.14625E-08    0.27219E-08   165   0.861E-04    0.147E-04
DAV:   6    -0.129524518666E+03   -0.88567E-08    0.55880E-08   164   0.488E-04
  44 F= -.12952452E+03 E0= -.12952452E+03  d E =-.866211E-05
       N       E                     dE             d eps       ncg     rms          rms(c)
DAV:   1    -0.129524527773E+03   -0.91161E-05   -0.66158E-05   164   0.440E-02    0.205E-03
DAV:   2    -0.129524528173E+03   -0.40005E-06   -0.46396E-06   173   0.120E-02    0.129E-03
DAV:   3    -0.129524528203E+03   -0.29901E-07   -0.52443E-07   167   0.364E-03    0.950E-04
DAV:   4    -0.129524528178E+03    0.24758E-07   -0.95188E-08   205   0.196E-03    0.305E-04
DAV:   5    -0.129524528177E+03    0.13215E-08    0.11495E-08   165   0.991E-04    0.166E-04
DAV:   6    -0.129524528189E+03   -0.12123E-07    0.49363E-08   164   0.556E-04
  45 F= -.12952453E+03 E0= -.12952453E+03  d E =-.952326E-05
       N       E                     dE             d eps       ncg     rms          rms(c)
DAV:   1    -0.129524537747E+03   -0.95704E-05   -0.80270E-05   164   0.484E-02    0.220E-03
DAV:   2    -0.129524538228E+03   -0.48047E-06   -0.55051E-06   164   0.131E-02    0.137E-03
DAV:   3    -0.129524538270E+03   -0.41954E-07   -0.63900E-07   164   0.397E-03    0.102E-03
DAV:   4    -0.129524538251E+03    0.18629E-07   -0.12400E-07   164   0.213E-03    0.325E-04
DAV:   5    -0.129524538254E+03   -0.25348E-08    0.12320E-09   164   0.107E-03    0.175E-04
DAV:   6    -0.129524538269E+03   -0.15541E-07    0.45117E-08   164   0.591E-04
  46 F= -.12952454E+03 E0= -.12952454E+03  d E =-.100802E-04
       N       E                     dE             d eps       ncg     rms          rms(c)
DAV:   1    -0.129524549404E+03   -0.11150E-04   -0.11172E-04   164   0.569E-02    0.252E-03
DAV:   2    -0.129524550059E+03   -0.65486E-06   -0.74056E-06   164   0.152E-02    0.153E-03
DAV:   3    -0.129524550126E+03   -0.67477E-07   -0.88327E-07   164   0.461E-03    0.115E-03
DAV:   4    -0.129524550115E+03    0.11121E-07   -0.18084E-07   164   0.246E-03    0.364E-04
DAV:   5    -0.129524550122E+03   -0.65465E-08   -0.15950E-08   164   0.121E-03    0.194E-04
DAV:   6    -0.129524550140E+03   -0.18227E-07    0.40004E-08   164   0.661E-04
  47 F= -.12952455E+03 E0= -.12952455E+03  d E =-.118706E-04
       N       E                     dE             d eps       ncg     rms          rms(c)
DAV:   1    -0.129524564030E+03   -0.13909E-04   -0.15677E-04   228   0.659E-02    0.283E-03
DAV:   2    -0.129524564541E+03   -0.51086E-06   -0.62951E-06   164   0.130E-02    0.174E-03
DAV:   3    -0.129524564589E+03   -0.48260E-07   -0.68571E-07   164   0.425E-03    0.108E-03
DAV:   4    -0.129524564597E+03   -0.76143E-08   -0.13371E-07   164   0.233E-03    0.232E-04
DAV:   5    -0.129524564616E+03   -0.19490E-07    0.76552E-09   164   0.111E-03    0.174E-04
DAV:   6    -0.129524564636E+03   -0.20113E-07    0.49128E-08   164   0.559E-04
  48 F= -.12952456E+03 E0= -.12952456E+03  d E =-.144966E-04
       N       E                     dE             d eps       ncg     rms          rms(c)
DAV:   1    -0.129524582744E+03   -0.18128E-04   -0.22556E-04   269   0.773E-02    0.336E-03
DAV:   2    -0.129524583059E+03   -0.31469E-06   -0.47083E-06   164   0.113E-02    0.208E-03
DAV:   3    -0.129524583110E+03   -0.50987E-07   -0.49074E-07   164   0.407E-03    0.103E-03
DAV:   4    -0.129524583148E+03   -0.38739E-07   -0.71765E-08   164   0.199E-03    0.244E-04
DAV:   5    -0.129524583170E+03   -0.21611E-07    0.31765E-08   164   0.101E-03    0.122E-04
DAV:   6    -0.129524583188E+03   -0.18036E-07    0.58529E-08   164   0.487E-04
  49 F= -.12952458E+03 E0= -.12952458E+03  d E =-.185516E-04
       N       E                     dE             d eps       ncg     rms          rms(c)
DAV:   1    -0.129524606806E+03   -0.23636E-04   -0.34388E-04   280   0.947E-02    0.415E-03
DAV:   2    -0.129524607229E+03   -0.42335E-06   -0.65220E-06   164   0.133E-02    0.256E-03
DAV:   3    -0.129524607327E+03   -0.97501E-07   -0.71428E-07   164   0.486E-03    0.123E-03
DAV:   4    -0.129524607386E+03   -0.59102E-07   -0.12087E-07   180   0.235E-03    0.292E-04
DAV:   5    -0.129524607400E+03   -0.14444E-07    0.23476E-08   164   0.118E-03    0.141E-04
DAV:   6    -0.129524607409E+03   -0.85956E-08    0.60197E-08   164   0.572E-04
  50 F= -.12952461E+03 E0= -.12952461E+03  d E =-.242208E-04
       N       E                     dE             d eps       ncg     rms          rms(c)
DAV:   1    -0.129524637519E+03   -0.30118E-04   -0.56253E-04   260   0.121E-01    0.536E-03
DAV:   2    -0.129524638186E+03   -0.66747E-06   -0.10762E-05   220   0.172E-02    0.335E-03
DAV:   3    -0.129524638335E+03   -0.14914E-06   -0.12434E-06   164   0.631E-03    0.166E-03
DAV:   4    -0.129524638423E+03   -0.88103E-07   -0.26115E-07   164   0.311E-03    0.417E-04
DAV:   5    -0.129524638443E+03   -0.19957E-07   -0.12388E-08   164   0.160E-03    0.208E-04
DAV:   6    -0.129524638454E+03   -0.10398E-07    0.51193E-08   164   0.762E-04
  51 F= -.12952464E+03 E0= -.12952464E+03  d E =-.310449E-04
       N       E                     dE             d eps       ncg     rms          rms(c)
DAV:   1    -0.129524675248E+03   -0.36805E-04   -0.95225E-04   292   0.158E-01    0.711E-03
DAV:   2    -0.129524675991E+03   -0.74278E-06   -0.14724E-05   240   0.194E-02    0.453E-03
DAV:   3    -0.129524676162E+03   -0.17091E-06   -0.17805E-06   164   0.713E-03    0.214E-03
DAV:   4    -0.129524676279E+03   -0.11701E-06   -0.43810E-07   258   0.363E-03    0.545E-04
DAV:   5    -0.129524676296E+03   -0.17394E-07   -0.57036E-08   164   0.185E-03    0.234E-04
DAV:   6    -0.129524676312E+03   -0.15732E-07    0.34754E-08   164   0.874E-04
  52 F= -.12952468E+03 E0= -.12952468E+03  d E =-.378584E-04
       N       E                     dE             d eps       ncg     rms          rms(c)
DAV:   1    -0.129524719061E+03   -0.42764E-04   -0.15946E-03   292   0.204E-01    0.928E-03
DAV:   2    -0.129524720198E+03   -0.11372E-05   -0.23890E-05   214   0.248E-02    0.588E-03
DAV:   3    -0.129524720471E+03   -0.27357E-06   -0.30029E-06   200   0.920E-03    0.274E-03
DAV:   4    -0.129524720646E+03   -0.17444E-06   -0.78412E-07   237   0.465E-03    0.698E-04
DAV:   5    -0.129524720673E+03   -0.27610E-07   -0.14991E-07   165   0.238E-03    0.302E-04
DAV:   6    -0.129524720706E+03   -0.33059E-07    0.23698E-09   164   0.112E-03
  53 F= -.12952472E+03 E0= -.12952472E+03  d E =-.443942E-04
       N       E                     dE             d eps       ncg     rms          rms(c)
DAV:   1    -0.129524770083E+03   -0.49409E-04   -0.26381E-03   324   0.260E-01    0.120E-02
DAV:   2    -0.129524771781E+03   -0.16984E-05   -0.36704E-05   217   0.309E-02    0.751E-03
DAV:   3    -0.129524772294E+03   -0.51323E-06   -0.47667E-06   200   0.116E-02    0.336E-03
DAV:   4    -0.129524772610E+03   -0.31571E-06   -0.12510E-06   164   0.570E-03    0.838E-04
DAV:   5    -0.129524772667E+03   -0.57391E-07   -0.26623E-07   164   0.289E-03    0.363E-04
DAV:   6    -0.129524772718E+03   -0.50993E-07   -0.35258E-08   164   0.136E-03
  54 F= -.12952477E+03 E0= -.12952477E+03  d E =-.520120E-04
       N       E                     dE             d eps       ncg     rms          rms(c)
DAV:   1    -0.129524831788E+03   -0.59120E-04   -0.43491E-03   324   0.332E-01    0.154E-02
DAV:   2    -0.129524834439E+03   -0.26510E-05   -0.57030E-05   209   0.387E-02    0.956E-03
DAV:   3    -0.129524835368E+03   -0.92877E-06   -0.75758E-06   225   0.145E-02    0.410E-03
DAV:   4    -0.129524835902E+03   -0.53428E-06   -0.19567E-06   226   0.699E-03    0.994E-04
DAV:   5    -0.129524835998E+03   -0.96450E-07   -0.42789E-07   164   0.348E-03    0.428E-04
DAV:   6    -0.129524836064E+03   -0.65925E-07   -0.81643E-08   172   0.164E-03
  55 F= -.12952484E+03 E0= -.12952484E+03  d E =-.633459E-04
       N       E                     dE             d eps       ncg     rms          rms(c)
DAV:   1    -0.129524908002E+03   -0.72004E-04   -0.70327E-03   324   0.422E-01    0.197E-02
DAV:   2    -0.129524912460E+03   -0.44576E-05   -0.93006E-05   244   0.494E-02    0.121E-02
DAV:   3    -0.129524914013E+03   -0.15537E-05   -0.13788E-05   260   0.185E-02    0.533E-03
DAV:   4    -0.129524914703E+03   -0.68919E-06   -0.25268E-06   272   0.865E-03    0.124E-03
DAV:   5    -0.129524914815E+03   -0.11295E-06   -0.47803E-07   174   0.395E-03    0.544E-04
DAV:   6    -0.129524914898E+03   -0.82039E-07   -0.60875E-08   188   0.181E-03
  56 F= -.12952491E+03 E0= -.12952491E+03  d E =-.788333E-04
       N       E                     dE             d eps       ncg     rms          rms(c)
DAV:   1    -0.129524997980E+03   -0.83164E-04   -0.10928E-02   327   0.527E-01    0.245E-02
DAV:   2    -0.129525005658E+03   -0.76780E-05   -0.15162E-04   268   0.621E-02    0.152E-02
DAV:   3    -0.129525007471E+03   -0.18131E-05   -0.17734E-05   243   0.196E-02    0.701E-03
DAV:   4    -0.129525008533E+03   -0.10619E-05   -0.40562E-06   248   0.106E-02    0.150E-03
DAV:   5    -0.129525008685E+03   -0.15194E-06   -0.82582E-07   202   0.483E-03    0.720E-04
DAV:   6    -0.129525008802E+03   -0.11778E-06   -0.12820E-07   164   0.205E-03
  57 F= -.12952501E+03 E0= -.12952501E+03  d E =-.939049E-04
       N       E                     dE             d eps       ncg     rms          rms(c)
DAV:   1    -0.129525107063E+03   -0.98379E-04   -0.15922E-02   328   0.636E-01    0.295E-02
DAV:   2    -0.129525119220E+03   -0.12157E-04   -0.22685E-04   300   0.743E-02    0.186E-02
DAV:   3    -0.129525120725E+03   -0.15048E-05   -0.17742E-05   202   0.222E-02    0.873E-03
DAV:   4    -0.129525122665E+03   -0.19393E-05   -0.67485E-06   246   0.129E-02    0.185E-03
DAV:   5    -0.129525122892E+03   -0.22737E-06   -0.14101E-06   202   0.624E-03    0.894E-04
DAV:   6    -0.129525123063E+03   -0.17126E-06   -0.24937E-07   173   0.253E-03
  58 F= -.12952512E+03 E0= -.12952512E+03  d E =-.114261E-03
       N       E                     dE             d eps       ncg     rms          rms(c)
DAV:   1    -0.129525246843E+03   -0.12395E-03   -0.22143E-02   329   0.752E-01    0.345E-02
DAV:   2    -0.129525267112E+03   -0.20269E-04   -0.34677E-04   364   0.885E-02    0.229E-02
DAV:   3    -0.129525266509E+03    0.60326E-06   -0.11541E-05   219   0.207E-02    0.118E-02
DAV:   4    -0.129525269862E+03   -0.33533E-05   -0.10524E-05   244   0.161E-02    0.259E-03
DAV:   5    -0.129525269971E+03   -0.10938E-06   -0.21273E-06   264   0.800E-03    0.130E-03
DAV:   6    -0.129525270123E+03   -0.15171E-06   -0.32172E-07   200   0.299E-03
  59 F= -.12952527E+03 E0= -.12952527E+03  d E =-.147060E-03
       N       E                     dE             d eps       ncg     rms          rms(c)
DAV:   1    -0.129525421103E+03   -0.15113E-03   -0.29589E-02   332   0.874E-01    0.393E-02
DAV:   2    -0.129525451352E+03   -0.30249E-04   -0.49290E-04   396   0.104E-01    0.264E-02
DAV:   3    -0.129525449861E+03    0.14909E-05   -0.14601E-05   200   0.232E-02    0.137E-02
DAV:   4    -0.129525454503E+03   -0.46417E-05   -0.14015E-05   252   0.183E-02    0.314E-03
DAV:   5    -0.129525454582E+03   -0.79192E-07   -0.28051E-06   255   0.933E-03    0.139E-03
DAV:   6    -0.129525454772E+03   -0.19015E-06   -0.39479E-07   200   0.331E-03
  60 F= -.12952545E+03 E0= -.12952545E+03  d E =-.184649E-03
       N       E                     dE             d eps       ncg     rms          rms(c)
DAV:   1    -0.129525636546E+03   -0.18196E-03   -0.37652E-02   330   0.990E-01    0.434E-02
DAV:   2    -0.129525680158E+03   -0.43611E-04   -0.67097E-04   363   0.120E-01    0.287E-02
DAV:   3    -0.129525678830E+03    0.13272E-05   -0.18481E-05   232   0.254E-02    0.152E-02
DAV:   4    -0.129525684513E+03   -0.56829E-05   -0.14549E-05   236   0.199E-02    0.290E-03
DAV:   5    -0.129525684770E+03   -0.25687E-06   -0.29461E-06   238   0.917E-03    0.161E-03
DAV:   6    -0.129525685030E+03   -0.25989E-06   -0.37009E-07   200   0.326E-03
  61 F= -.12952569E+03 E0= -.12952569E+03  d E =-.230258E-03
       N       E                     dE             d eps       ncg     rms          rms(c)
DAV:   1    -0.129525888827E+03   -0.20406E-03   -0.46644E-02   328   0.111E+00    0.469E-02
DAV:   2    -0.129525950018E+03   -0.61191E-04   -0.89648E-04   364   0.137E-01    0.312E-02
DAV:   3    -0.129525948149E+03    0.18694E-05   -0.21405E-05   241   0.272E-02    0.169E-02
DAV:   4    -0.129525955573E+03   -0.74241E-05   -0.17045E-05   236   0.222E-02    0.320E-03
DAV:   5    -0.129525955978E+03   -0.40527E-06   -0.36777E-06   229   0.102E-02    0.178E-03
DAV:   6    -0.129525956344E+03   -0.36562E-06   -0.46625E-07   200   0.355E-03
  62 F= -.12952596E+03 E0= -.12952596E+03  d E =-.271314E-03
       N       E                     dE             d eps       ncg     rms          rms(c)
DAV:   1    -0.129526184852E+03   -0.22887E-03   -0.59398E-02   328   0.125E+00    0.517E-02
DAV:   2    -0.129526271451E+03   -0.86599E-04   -0.12307E-03   364   0.158E-01    0.351E-02
DAV:   3    -0.129526268228E+03    0.32231E-05   -0.27489E-05   249   0.308E-02    0.200E-02
DAV:   4    -0.129526279087E+03   -0.10859E-04   -0.21980E-05   236   0.262E-02    0.379E-03
DAV:   5    -0.129526279636E+03   -0.54900E-06   -0.51835E-06   263   0.121E-02    0.207E-03
DAV:   6    -0.129526280085E+03   -0.44893E-06   -0.70178E-07   200   0.424E-03
  63 F= -.12952628E+03 E0= -.12952628E+03  d E =-.323741E-03
       N       E                     dE             d eps       ncg     rms          rms(c)
DAV:   1    -0.129526524552E+03   -0.24492E-03   -0.82576E-02   328   0.148E+00    0.595E-02
DAV:   2    -0.129526651340E+03   -0.12679E-03   -0.17586E-03   363   0.188E-01    0.398E-02
DAV:   3    -0.129526647792E+03    0.35483E-05   -0.35613E-05   280   0.342E-02    0.227E-02
DAV:   4    -0.129526662803E+03   -0.15011E-04   -0.28301E-05   236   0.303E-02    0.411E-03
DAV:   5    -0.129526663625E+03   -0.82152E-06   -0.67747E-06   239   0.136E-02    0.240E-03
DAV:   6    -0.129526664227E+03   -0.60220E-06   -0.85597E-07   200   0.459E-03
  64 F= -.12952666E+03 E0= -.12952666E+03  d E =-.384142E-03
       N       E                     dE             d eps       ncg     rms          rms(c)
DAV:   1    -0.129526910483E+03   -0.24686E-03   -0.11939E-01   328   0.178E+00    0.706E-02
DAV:   2    -0.129527098423E+03   -0.18794E-03   -0.25748E-03   363   0.227E-01    0.471E-02
DAV:   3    -0.129527093554E+03    0.48692E-05   -0.50005E-05   304   0.402E-02    0.270E-02
DAV:   4    -0.129527115480E+03   -0.21927E-04   -0.41228E-05   268   0.365E-02    0.500E-03
DAV:   5    -0.129527116655E+03   -0.11748E-05   -0.95635E-06   236   0.164E-02    0.285E-03
DAV:   6    -0.129527117494E+03   -0.83904E-06   -0.11009E-06   198   0.531E-03
  65 F= -.12952712E+03 E0= -.12952712E+03  d E =-.453267E-03
       N       E                     dE             d eps       ncg     rms          rms(c)
DAV:   1    -0.129527352064E+03   -0.23541E-03   -0.17149E-01   328   0.214E+00    0.847E-02
DAV:   2    -0.129527626395E+03   -0.27433E-03   -0.37652E-03   329   0.274E-01    0.576E-02
DAV:   3    -0.129527617358E+03    0.90370E-05   -0.75309E-05   296   0.498E-02    0.340E-02
DAV:   4    -0.129527650724E+03   -0.33366E-04   -0.62495E-05   268   0.456E-02    0.638E-03
DAV:   5    -0.129527652357E+03   -0.16329E-05   -0.15177E-05   272   0.208E-02    0.355E-03
DAV:   6    -0.129527653465E+03   -0.11081E-05   -0.18464E-06   200   0.686E-03
  66 F= -.12952765E+03 E0= -.12952765E+03  d E =-.535971E-03
       N       E                     dE             d eps       ncg     rms          rms(c)
DAV:   1    -0.129527765571E+03   -0.11321E-03   -0.25340E-01   328   0.261E+00    0.103E-01
DAV:   2    -0.129528187250E+03   -0.42168E-03   -0.57136E-03   338   0.340E-01    0.685E-02
DAV:   3    -0.129528175819E+03    0.11431E-04   -0.10673E-04   332   0.578E-02    0.393E-02
DAV:   4    -0.129528216327E+03   -0.40508E-04   -0.91810E-05   273   0.540E-02    0.678E-03
DAV:   5    -0.129528218968E+03   -0.26407E-05   -0.19559E-05   272   0.231E-02    0.447E-03
DAV:   6    -0.129528220828E+03   -0.18607E-05   -0.24670E-06   254   0.796E-03
  67 F= -.12952822E+03 E0= -.12952822E+03  d E =-.567363E-03
       N       E                     dE             d eps       ncg     rms          rms(c)
DAV:   1    -0.129527757362E+03    0.46161E-03   -0.36418E-01   328   0.317E+00    0.134E-01
DAV:   2    -0.129528485376E+03   -0.72801E-03   -0.99729E-03   329   0.452E-01    0.972E-02
DAV:   3    -0.129528421914E+03    0.63462E-04   -0.26542E-04   391   0.909E-02    0.610E-02
DAV:   4    -0.129528455147E+03   -0.33233E-04   -0.19698E-04   328   0.798E-02    0.118E-02
DAV:   5    -0.129528459278E+03   -0.41305E-05   -0.42637E-05   304   0.343E-02    0.672E-03
DAV:   6    -0.129528461301E+03   -0.20230E-05   -0.45696E-06   254   0.115E-02
  68 F= -.12952846E+03 E0= -.12952846E+03  d E =-.240472E-03
       N       E                     dE             d eps       ncg     rms          rms(c)
DAV:   1    -0.129528932673E+03   -0.47340E-03   -0.36079E-02   363   0.993E-01    0.657E-02
DAV:   2    -0.129529055203E+03   -0.12253E-03   -0.16739E-03   393   0.184E-01    0.376E-02
DAV:   3    -0.129529040983E+03    0.14220E-04   -0.45545E-05   332   0.389E-02    0.213E-02
DAV:   4    -0.129529035532E+03    0.54514E-05   -0.36009E-05   281   0.313E-02    0.491E-03
DAV:   5    -0.129529036113E+03   -0.58129E-06   -0.86004E-06   335   0.146E-02    0.255E-03
DAV:   6    -0.129529036905E+03   -0.79197E-06   -0.12805E-06   252   0.577E-03
  69 F= -.12952904E+03 E0= -.12952904E+03  d E =-.575604E-03
       N       E                     dE             d eps       ncg     rms          rms(c)
DAV:   1    -0.129528564045E+03    0.47207E-03   -0.30020E-02   355   0.912E-01    0.580E-02
DAV:   2    -0.129528655470E+03   -0.91426E-04   -0.14074E-03   380   0.170E-01    0.345E-02
DAV:   3    -0.129528635905E+03    0.19565E-04   -0.39513E-05   336   0.363E-02    0.198E-02
DAV:   4    -0.129528622610E+03    0.13295E-04   -0.31595E-05   264   0.294E-02    0.482E-03
DAV:   5    -0.129528621772E+03    0.83808E-06   -0.77022E-06   272   0.141E-02    0.252E-03
DAV:   6    -0.129528623426E+03   -0.16548E-05   -0.14396E-06   264   0.607E-03
  70 F= -.12952862E+03 E0= -.12952862E+03  d E =0.413478E-03
       N       E                     dE             d eps       ncg     rms          rms(c)
DAV:   1    -0.129528826470E+03   -0.20470E-03   -0.18816E-03   376   0.226E-01    0.153E-02
DAV:   2    -0.129528835634E+03   -0.91642E-05   -0.82865E-05   328   0.418E-02    0.830E-03
DAV:   3    -0.129528837965E+03   -0.23307E-05   -0.45076E-06   208   0.113E-02    0.473E-03
DAV:   4    -0.129528841800E+03   -0.38354E-05   -0.24474E-06   288   0.780E-03    0.121E-03
DAV:   5    -0.129528843645E+03   -0.18446E-05   -0.57086E-07   271   0.392E-03    0.599E-04
DAV:   6    -0.129528844653E+03   -0.10088E-05   -0.11515E-07   220   0.169E-03
  71 F= -.12952884E+03 E0= -.12952884E+03  d E =-.221227E-03
       N       E                     dE             d eps       ncg     rms          rms(c)
DAV:   1    -0.129529048911E+03   -0.20527E-03   -0.57673E-03   366   0.397E-01    0.263E-02
DAV:   2    -0.129529067559E+03   -0.18648E-04   -0.27054E-04   368   0.743E-02    0.152E-02
DAV:   3    -0.129529064899E+03    0.26603E-05   -0.89564E-06   245   0.175E-02    0.870E-03
DAV:   4    -0.129529063213E+03    0.16858E-05   -0.69454E-06   264   0.135E-02    0.212E-03
DAV:   5    -0.129529063016E+03    0.19712E-06   -0.16378E-06   272   0.698E-03    0.108E-03
DAV:   6    -0.129529063163E+03   -0.14754E-06   -0.29689E-07   222   0.292E-03
  72 F= -.12952906E+03 E0= -.12952906E+03  d E =-.218510E-03
       N       E                     dE             d eps       ncg     rms          rms(c)
DAV:   1    -0.129529077292E+03   -0.14276E-04   -0.78163E-03   374   0.463E-01    0.303E-02
DAV:   2    -0.129529099785E+03   -0.22493E-04   -0.36924E-04   396   0.869E-02    0.178E-02
DAV:   3    -0.129529094190E+03    0.55950E-05   -0.12327E-05   272   0.205E-02    0.103E-02
DAV:   4    -0.129529089960E+03    0.42291E-05   -0.96450E-06   280   0.159E-02    0.255E-03
DAV:   5    -0.129529089784E+03    0.17636E-06   -0.23235E-06   272   0.829E-03    0.130E-03
DAV:   6    -0.129529090387E+03   -0.60284E-06   -0.46673E-07   202   0.350E-03
  73 F= -.12952909E+03 E0= -.12952909E+03  d E =-.272235E-04
       N       E                     dE             d eps       ncg     rms          rms(c)
DAV:   1    -0.129529095290E+03   -0.55059E-05   -0.63692E-06   240   0.133E-02    0.902E-04
DAV:   2    -0.129529096094E+03   -0.80447E-06   -0.54434E-07   268   0.380E-03    0.590E-04
DAV:   3    -0.129529096968E+03   -0.87355E-06   -0.11892E-07   207   0.140E-03    0.376E-04
DAV:   4    -0.129529098349E+03   -0.13811E-05   -0.10143E-07   281   0.916E-04    0.154E-04
DAV:   5    -0.129529099162E+03   -0.81286E-06   -0.29569E-08   271   0.479E-04    0.107E-04
DAV:   6    -0.129529100052E+03   -0.89011E-06   -0.27671E-08   200   0.417E-04
  74 F= -.12952910E+03 E0= -.12952910E+03  d E =-.966508E-05
       N       E                     dE             d eps       ncg     rms          rms(c)
DAV:   1    -0.129529107720E+03   -0.85579E-05   -0.24161E-05   259   0.260E-02    0.135E-03
DAV:   2    -0.129529108109E+03   -0.38968E-06   -0.15317E-06   272   0.660E-03    0.869E-04
DAV:   3    -0.129529108331E+03   -0.22170E-06   -0.15048E-07   200   0.206E-03    0.604E-04
DAV:   4    -0.129529108718E+03   -0.38719E-06   -0.26754E-08   236   0.116E-03    0.173E-04
DAV:   5    -0.129529108892E+03   -0.17350E-06    0.15423E-08   272   0.555E-04    0.981E-05
DAV:   6    -0.129529109047E+03   -0.15489E-06    0.32236E-08   200   0.303E-04
  75 F= -.12952911E+03 E0= -.12952911E+03  d E =-.899472E-05
       N       E                     dE             d eps       ncg     rms          rms(c)
DAV:   1    -0.129529117480E+03   -0.85880E-05   -0.48510E-05   239   0.373E-02    0.193E-03
DAV:   2    -0.129529117838E+03   -0.35796E-06   -0.36308E-06   254   0.103E-02    0.125E-03
DAV:   3    -0.129529117897E+03   -0.58952E-07   -0.40138E-07   202   0.317E-03    0.911E-04
DAV:   4    -0.129529117925E+03   -0.28562E-07   -0.71505E-08   262   0.177E-03    0.300E-04
DAV:   5    -0.129529117944E+03   -0.18491E-07    0.18897E-08   204   0.907E-04    0.166E-04
DAV:   6    -0.129529117967E+03   -0.23007E-07    0.51714E-08   194   0.533E-04
  76 F= -.12952912E+03 E0= -.12952912E+03  d E =-.892008E-05
       N       E                     dE             d eps       ncg     rms          rms(c)
DAV:   1    -0.129529126595E+03   -0.86508E-05   -0.74894E-05   200   0.464E-02    0.238E-03
DAV:   2    -0.129529127052E+03   -0.45770E-06   -0.56125E-06   206   0.129E-02    0.154E-03
DAV:   3    -0.129529127082E+03   -0.29815E-07   -0.64805E-07   181   0.395E-03    0.113E-03
DAV:   4    -0.129529127042E+03    0.40125E-07   -0.14031E-07   238   0.222E-03    0.369E-04
DAV:   5    -0.129529127033E+03    0.90940E-08   -0.33874E-09   166   0.114E-03    0.206E-04
DAV:   6    -0.129529127048E+03   -0.14674E-07    0.45353E-08   164   0.668E-04
  77 F= -.12952913E+03 E0= -.12952913E+03  d E =-.908075E-05
       N       E                     dE             d eps       ncg     rms          rms(c)
DAV:   1    -0.129529134920E+03   -0.78869E-05   -0.96006E-05   165   0.527E-02    0.266E-03
DAV:   2    -0.129529135499E+03   -0.57874E-06   -0.71457E-06   218   0.145E-02    0.171E-03
DAV:   3    -0.129529135531E+03   -0.32620E-07   -0.85176E-07   164   0.448E-03    0.126E-03
DAV:   4    -0.129529135478E+03    0.53472E-07   -0.20184E-07   221   0.250E-03    0.411E-04
DAV:   5    -0.129529135470E+03    0.81618E-08   -0.28588E-08   165   0.128E-03    0.229E-04
DAV:   6    -0.129529135493E+03   -0.23471E-07    0.33272E-08   164   0.747E-04
  78 F= -.12952914E+03 E0= -.12952914E+03  d E =-.844545E-05
       N       E                     dE             d eps       ncg     rms          rms(c)
DAV:   1    -0.129529142179E+03   -0.67093E-05   -0.10632E-04   175   0.556E-02    0.273E-03
DAV:   2    -0.129529142818E+03   -0.63939E-06   -0.77719E-06   200   0.152E-02    0.175E-03
DAV:   3    -0.129529142862E+03   -0.44011E-07   -0.94217E-07   164   0.469E-03    0.130E-03
DAV:   4    -0.129529142818E+03    0.44321E-07   -0.22497E-07   164   0.260E-03    0.421E-04
DAV:   5    -0.129529142819E+03   -0.13815E-08   -0.37995E-08   164   0.133E-03    0.232E-04
DAV:   6    -0.129529142850E+03   -0.31011E-07    0.28320E-08   164   0.763E-04
  79 F= -.12952914E+03 E0= -.12952914E+03  d E =-.735727E-05
       N       E                     dE             d eps       ncg     rms          rms(c)
DAV:   1    -0.129529149248E+03   -0.64290E-05   -0.12828E-04   192   0.611E-02    0.288E-03
DAV:   2    -0.129529150012E+03   -0.76397E-06   -0.90385E-06   192   0.166E-02    0.182E-03
DAV:   3    -0.129529150079E+03   -0.66298E-07   -0.11104E-06   164   0.509E-03    0.137E-03
DAV:   4    -0.129529150049E+03    0.29666E-07   -0.25977E-07   164   0.279E-03    0.437E-04
DAV:   5    -0.129529150057E+03   -0.82327E-08   -0.47607E-08   164   0.140E-03    0.236E-04
DAV:   6    -0.129529150091E+03   -0.34014E-07    0.25845E-08   164   0.786E-04
  80 F= -.12952915E+03 E0= -.12952915E+03  d E =-.724081E-05
       N       E                     dE             d eps       ncg     rms          rms(c)
DAV:   1    -0.129529157616E+03   -0.75589E-05   -0.14716E-04   232   0.647E-02    0.286E-03
DAV:   2    -0.129529158319E+03   -0.70323E-06   -0.82052E-06   165   0.150E-02    0.181E-03
DAV:   3    -0.129529158395E+03   -0.76057E-07   -0.10312E-06   164   0.471E-03    0.128E-03
DAV:   4    -0.129529158398E+03   -0.28804E-08   -0.25126E-07   164   0.281E-03    0.300E-04
DAV:   5    -0.129529158423E+03   -0.24622E-07   -0.32288E-08   164   0.129E-03    0.213E-04
DAV:   6    -0.129529158454E+03   -0.31207E-07    0.32598E-08   164   0.707E-04
  81 F= -.12952916E+03 E0= -.12952916E+03  d E =-.836284E-05
       N       E                     dE             d eps       ncg     rms          rms(c)
DAV:   1    -0.129529169196E+03   -0.10773E-04   -0.17590E-04   231   0.695E-02    0.296E-03
DAV:   2    -0.129529169974E+03   -0.77870E-06   -0.86916E-06   164   0.153E-02    0.180E-03
DAV:   3    -0.129529170094E+03   -0.11949E-06   -0.11056E-06   164   0.484E-03    0.124E-03
DAV:   4    -0.129529170144E+03   -0.50038E-07   -0.24298E-07   164   0.284E-03    0.265E-04
DAV:   5    -0.129529170171E+03   -0.26871E-07   -0.24688E-08   164   0.129E-03    0.212E-04
DAV:   6    -0.129529170195E+03   -0.24276E-07    0.41312E-08   164   0.703E-04
  82 F= -.12952917E+03 E0= -.12952917E+03  d E =-.117411E-04
       N       E                     dE             d eps       ncg     rms          rms(c)
DAV:   1    -0.129529187063E+03   -0.16892E-04   -0.25795E-04   304   0.819E-02    0.360E-03
DAV:   2    -0.129529187380E+03   -0.31739E-06   -0.47599E-06   164   0.115E-02    0.221E-03
DAV:   3    -0.129529187479E+03   -0.98939E-07   -0.50519E-07   218   0.419E-03    0.104E-03
DAV:   4    -0.129529187545E+03   -0.66380E-07   -0.69644E-08   179   0.202E-03    0.235E-04
DAV:   5    -0.129529187566E+03   -0.20069E-07    0.39060E-08   196   0.103E-03    0.121E-04
DAV:   6    -0.129529187576E+03   -0.10349E-07    0.66603E-08   182   0.502E-04
  83 F= -.12952919E+03 E0= -.12952919E+03  d E =-.173809E-04
       N       E                     dE             d eps       ncg     rms          rms(c)
DAV:   1    -0.129529210551E+03   -0.22985E-04   -0.42472E-04   260   0.106E-01    0.462E-03
DAV:   2    -0.129529211123E+03   -0.57238E-06   -0.89149E-06   203   0.156E-02    0.295E-03
DAV:   3    -0.129529211237E+03   -0.11409E-06   -0.99042E-07   166   0.565E-03    0.155E-03
DAV:   4    -0.129529211309E+03   -0.71269E-07   -0.20689E-07   260   0.289E-03    0.378E-04
DAV:   5    -0.129529211324E+03   -0.15554E-07    0.10186E-09   164   0.151E-03    0.203E-04
DAV:   6    -0.129529211333E+03   -0.92141E-08    0.54679E-08   164   0.724E-04
  84 F= -.12952921E+03 E0= -.12952921E+03  d E =-.237574E-04
       N       E                     dE             d eps       ncg     rms          rms(c)
DAV:   1    -0.129529238927E+03   -0.27603E-04   -0.71579E-04   292   0.138E-01    0.628E-03
DAV:   2    -0.129529239650E+03   -0.72296E-06   -0.13513E-05   240   0.183E-02    0.402E-03
DAV:   3    -0.129529239721E+03   -0.70618E-07   -0.15469E-06   218   0.659E-03    0.204E-03
DAV:   4    -0.129529239744E+03   -0.22880E-07   -0.39382E-07   248   0.351E-03    0.519E-04
DAV:   5    -0.129529239746E+03   -0.21582E-08   -0.53513E-08   166   0.182E-03    0.237E-04
DAV:   6    -0.129529239767E+03   -0.21356E-07    0.30403E-08   164   0.881E-04
  85 F= -.12952924E+03 E0= -.12952924E+03  d E =-.284339E-04
       N       E                     dE             d eps       ncg     rms          rms(c)
DAV:   1    -0.129529269603E+03   -0.29857E-04   -0.11047E-03   292   0.171E-01    0.772E-03
DAV:   2    -0.129529270637E+03   -0.10345E-05   -0.20215E-05   204   0.224E-02    0.494E-03
DAV:   3    -0.129529270738E+03   -0.10047E-06   -0.23622E-06   254   0.806E-03    0.250E-03
DAV:   4    -0.129529270791E+03   -0.53009E-07   -0.63374E-07   202   0.427E-03    0.629E-04
DAV:   5    -0.129529270812E+03   -0.21144E-07   -0.12593E-07   165   0.221E-03    0.289E-04
DAV:   6    -0.129529270855E+03   -0.43721E-07   -0.59431E-10   164   0.107E-03
  86 F= -.12952927E+03 E0= -.12952927E+03  d E =-.310883E-04
       N       E                     dE             d eps       ncg     rms          rms(c)
DAV:   1    -0.129529305588E+03   -0.34776E-04   -0.15881E-03   320   0.203E-01    0.898E-03
DAV:   2    -0.129529306909E+03   -0.13205E-05   -0.24860E-05   200   0.250E-02    0.569E-03
DAV:   3    -0.129529307208E+03   -0.29954E-06   -0.29378E-06   164   0.901E-03    0.270E-03
DAV:   4    -0.129529307413E+03   -0.20534E-06   -0.76217E-07   172   0.456E-03    0.645E-04
DAV:   5    -0.129529307475E+03   -0.61223E-07   -0.15690E-07   164   0.233E-03    0.294E-04
DAV:   6    -0.129529307533E+03   -0.58463E-07   -0.11193E-08   164   0.112E-03
  87 F= -.12952931E+03 E0= -.12952931E+03  d E =-.366777E-04
       N       E                     dE             d eps       ncg     rms          rms(c)
DAV:   1    -0.129529353051E+03   -0.45576E-04   -0.23655E-03   330   0.247E-01    0.109E-02
DAV:   2    -0.129529354956E+03   -0.19055E-05   -0.34044E-05   210   0.293E-02    0.679E-03
DAV:   3    -0.129529355552E+03   -0.59598E-06   -0.40425E-06   233   0.105E-02    0.302E-03
DAV:   4    -0.129529355927E+03   -0.37442E-06   -0.10050E-06   222   0.511E-03    0.674E-04
DAV:   5    -0.129529356008E+03   -0.81402E-07   -0.20019E-07   165   0.251E-03    0.297E-04
DAV:   6    -0.129529356057E+03   -0.48891E-07   -0.17058E-08   204   0.122E-03
  88 F= -.12952936E+03 E0= -.12952936E+03  d E =-.485237E-04
       N       E                     dE             d eps       ncg     rms          rms(c)
DAV:   1    -0.129529412844E+03   -0.56836E-04   -0.37808E-03   325   0.313E-01    0.140E-02
DAV:   2    -0.129529416142E+03   -0.32980E-05   -0.58568E-05   237   0.384E-02    0.869E-03
DAV:   3    -0.129529416884E+03   -0.74224E-06   -0.73429E-06   253   0.137E-02    0.406E-03
DAV:   4    -0.129529417261E+03   -0.37675E-06   -0.15336E-06   272   0.663E-03    0.891E-04
DAV:   5    -0.129529417326E+03   -0.64995E-07   -0.30911E-07   185   0.311E-03    0.407E-04
DAV:   6    -0.129529417378E+03   -0.51537E-07   -0.32793E-08   181   0.148E-03
  89 F= -.12952942E+03 E0= -.12952942E+03  d E =-.613207E-04
       N       E                     dE             d eps       ncg     rms          rms(c)
DAV:   1    -0.129529479807E+03   -0.62481E-04   -0.59108E-03   327   0.391E-01    0.175E-02
DAV:   2    -0.129529484869E+03   -0.50622E-05   -0.90955E-05   229   0.479E-02    0.109E-02
DAV:   3    -0.129529485874E+03   -0.10043E-05   -0.10855E-05   228   0.172E-02    0.502E-03
DAV:   4    -0.129529486496E+03   -0.62247E-06   -0.28122E-06   272   0.849E-03    0.113E-03
DAV:   5    -0.129529486607E+03   -0.11104E-06   -0.64828E-07   184   0.414E-03    0.515E-04
DAV:   6    -0.129529486703E+03   -0.96230E-07   -0.15184E-07   181   0.199E-03
  90 F= -.12952949E+03 E0= -.12952949E+03  d E =-.693258E-04
       N       E                     dE             d eps       ncg     rms          rms(c)
DAV:   1    -0.129529561536E+03   -0.74929E-04   -0.88221E-03   330   0.475E-01    0.212E-02
DAV:   2    -0.129529568644E+03   -0.71072E-05   -0.12706E-04   269   0.561E-02    0.132E-02
DAV:   3    -0.129529570086E+03   -0.14423E-05   -0.11794E-05   226   0.169E-02    0.603E-03
DAV:   4    -0.129529571228E+03   -0.11421E-05   -0.39211E-06   251   0.948E-03    0.126E-03
DAV:   5    -0.129529571428E+03   -0.20044E-06   -0.91870E-07   200   0.468E-03    0.581E-04
DAV:   6    -0.129529571553E+03   -0.12436E-06   -0.20323E-07   180   0.208E-03
  91 F= -.12952957E+03 E0= -.12952957E+03  d E =-.848495E-04
       N       E                     dE             d eps       ncg     rms          rms(c)
DAV:   1    -0.129529661991E+03   -0.90563E-04   -0.13586E-02   330   0.590E-01    0.264E-02
DAV:   2    -0.129529673885E+03   -0.11894E-04   -0.20589E-04   300   0.702E-02    0.169E-02
DAV:   3    -0.129529675291E+03   -0.14058E-05   -0.14608E-05   246   0.201E-02    0.817E-03
DAV:   4    -0.129529677024E+03   -0.17336E-05   -0.57971E-06   261   0.122E-02    0.167E-03
DAV:   5    -0.129529677173E+03   -0.14846E-06   -0.12359E-06   272   0.596E-03    0.844E-04
DAV:   6    -0.129529677275E+03   -0.10215E-06   -0.22486E-07   194   0.248E-03
  92 F= -.12952968E+03 E0= -.12952968E+03  d E =-.105722E-03
       N       E                     dE             d eps       ncg     rms          rms(c)
DAV:   1    -0.129529774805E+03   -0.97632E-04   -0.20507E-02   330   0.724E-01    0.326E-02
DAV:   2    -0.129529794457E+03   -0.19652E-04   -0.32828E-04   364   0.857E-02    0.217E-02
DAV:   3    -0.129529794191E+03    0.26634E-06   -0.96297E-06   203   0.190E-02    0.112E-02
DAV:   4    -0.129529797132E+03   -0.29406E-05   -0.91544E-06   237   0.152E-02    0.225E-03
DAV:   5    -0.129529797231E+03   -0.99406E-07   -0.18837E-06   256   0.743E-03    0.123E-03
DAV:   6    -0.129529797357E+03   -0.12595E-06   -0.28901E-07   192   0.278E-03
  93 F= -.12952980E+03 E0= -.12952980E+03  d E =-.120082E-03
       N       E                     dE             d eps       ncg     rms          rms(c)
DAV:   1    -0.129529914877E+03   -0.11765E-03   -0.29830E-02   328   0.874E-01    0.395E-02
DAV:   2    -0.129529945070E+03   -0.30192E-04   -0.48796E-04   394   0.104E-01    0.259E-02
DAV:   3    -0.129529944705E+03    0.36502E-06   -0.13689E-05   250   0.219E-02    0.131E-02
DAV:   4    -0.129529949133E+03   -0.44280E-05   -0.10805E-05   245   0.163E-02    0.219E-03
DAV:   5    -0.129529949347E+03   -0.21448E-06   -0.20311E-06   245   0.751E-03    0.132E-03
DAV:   6    -0.129529949534E+03   -0.18649E-06   -0.24172E-07   224   0.278E-03
  94 F= -.12952995E+03 E0= -.12952995E+03  d E =-.152177E-03
       N       E                     dE             d eps       ncg     rms          rms(c)
DAV:   1    -0.129530082934E+03   -0.13359E-03   -0.41581E-02   330   0.104E+00    0.461E-02
DAV:   2    -0.129530127327E+03   -0.44392E-04   -0.70194E-04   388   0.124E-01    0.303E-02
DAV:   3    -0.129530126707E+03    0.61927E-06   -0.17852E-05   217   0.255E-02    0.154E-02
DAV:   4    -0.129530132872E+03   -0.61644E-05   -0.17217E-05   261   0.202E-02    0.308E-03
DAV:   5    -0.129530133078E+03   -0.20602E-06   -0.31763E-06   237   0.963E-03    0.156E-03
DAV:   6    -0.129530133302E+03   -0.22446E-06   -0.37996E-07   200   0.330E-03
  95 F= -.12953013E+03 E0= -.12953013E+03  d E =-.183769E-03
       N       E                     dE             d eps       ncg     rms          rms(c)
DAV:   1    -0.129530293030E+03   -0.15995E-03   -0.51398E-02   331   0.116E+00    0.503E-02
DAV:   2    -0.129530354701E+03   -0.61671E-04   -0.93633E-04   329   0.142E-01    0.338E-02
DAV:   3    -0.129530353871E+03    0.82976E-06   -0.24639E-05   268   0.296E-02    0.181E-02
DAV:   4    -0.129530361753E+03   -0.78818E-05   -0.19360E-05   203   0.234E-02    0.322E-03
DAV:   5    -0.129530362085E+03   -0.33209E-06   -0.41413E-06   272   0.109E-02    0.189E-03
DAV:   6    -0.129530362362E+03   -0.27734E-06   -0.56674E-07   202   0.395E-03
  96 F= -.12953036E+03 E0= -.12953036E+03  d E =-.229060E-03
       N       E                     dE             d eps       ncg     rms          rms(c)
DAV:   1    -0.129530549140E+03   -0.18705E-03   -0.61977E-02   332   0.128E+00    0.536E-02
DAV:   2    -0.129530631609E+03   -0.82470E-04   -0.12035E-03   345   0.159E-01    0.354E-02
DAV:   3    -0.129530631763E+03   -0.15308E-06   -0.25795E-05   264   0.298E-02    0.191E-02
DAV:   4    -0.129530642080E+03   -0.10318E-04   -0.20645E-05   236   0.248E-02    0.326E-03
DAV:   5    -0.129530642581E+03   -0.50106E-06   -0.45363E-06   247   0.112E-02    0.197E-03
DAV:   6    -0.129530642983E+03   -0.40164E-06   -0.55375E-07   200   0.382E-03
  97 F= -.12953064E+03 E0= -.12953064E+03  d E =-.280621E-03
       N       E                     dE             d eps       ncg     rms          rms(c)
DAV:   1    -0.129530835563E+03   -0.19298E-03   -0.81647E-02   328   0.147E+00    0.598E-02
DAV:   2    -0.129530954758E+03   -0.11919E-03   -0.16860E-03   364   0.185E-01    0.395E-02
DAV:   3    -0.129530954672E+03    0.85943E-07   -0.32266E-05   314   0.328E-02    0.218E-02
DAV:   4    -0.129530968884E+03   -0.14213E-04   -0.25736E-05   228   0.288E-02    0.367E-03
DAV:   5    -0.129530969677E+03   -0.79312E-06   -0.60298E-06   246   0.128E-02    0.223E-03
DAV:   6    -0.129530970260E+03   -0.58241E-06   -0.70852E-07   200   0.423E-03
  98 F= -.12953097E+03 E0= -.12953097E+03  d E =-.327277E-03
       N       E                     dE             d eps       ncg     rms          rms(c)
DAV:   1    -0.129531147030E+03   -0.17735E-03   -0.11653E-01   328   0.176E+00    0.707E-02
DAV:   2    -0.129531327924E+03   -0.18089E-03   -0.25308E-03   337   0.226E-01    0.482E-02
DAV:   3    -0.129531324313E+03    0.36112E-05   -0.50597E-05   348   0.410E-02    0.281E-02
DAV:   4    -0.129531346587E+03   -0.22274E-04   -0.41112E-05   235   0.369E-02    0.485E-03
DAV:   5    -0.129531347696E+03   -0.11090E-05   -0.96977E-06   272   0.165E-02    0.297E-03
DAV:   6    -0.129531348406E+03   -0.71066E-06   -0.11473E-06   234   0.547E-03
  99 F= -.12953135E+03 E0= -.12953135E+03  d E =-.378147E-03
       N       E                     dE             d eps       ncg     rms          rms(c)
DAV:   1    -0.129531421497E+03   -0.73801E-04   -0.17916E-01   328   0.220E+00    0.873E-02
DAV:   2    -0.129531716756E+03   -0.29526E-03   -0.40372E-03   330   0.288E-01    0.584E-02
DAV:   3    -0.129531709002E+03    0.77534E-05   -0.76052E-05   349   0.487E-02    0.334E-02
DAV:   4    -0.129531737344E+03   -0.28341E-04   -0.66684E-05   264   0.458E-02    0.551E-03
DAV:   5    -0.129531739135E+03   -0.17914E-05   -0.13952E-05   272   0.194E-02    0.385E-03
DAV:   6    -0.129531740401E+03   -0.12660E-05   -0.17391E-06   272   0.685E-03
 100 F= -.12953174E+03 E0= -.12953174E+03  d E =-.391995E-03
       N       E                     dE             d eps       ncg     rms          rms(c)
DAV:   1    -0.129531292293E+03    0.44684E-03   -0.27271E-01   328   0.275E+00    0.118E-01
DAV:   2    -0.129531846165E+03   -0.55387E-03   -0.76690E-03   329   0.396E-01    0.853E-02
DAV:   3    -0.129531797981E+03    0.48184E-04   -0.20071E-04   358   0.796E-02    0.534E-02
DAV:   4    -0.129531817103E+03   -0.19122E-04   -0.16895E-04   328   0.726E-02    0.997E-03
DAV:   5    -0.129531820105E+03   -0.30024E-05   -0.34947E-05   304   0.308E-02    0.607E-03
DAV:   6    -0.129531821776E+03   -0.16703E-05   -0.40614E-06   262   0.106E-02
 101 F= -.12953182E+03 E0= -.12953182E+03  d E =-.813745E-04
       N       E                     dE             d eps       ncg     rms          rms(c)
DAV:   1    -0.129532228065E+03   -0.40796E-03   -0.34269E-02   363   0.965E-01    0.642E-02
DAV:   2    -0.129532343071E+03   -0.11501E-03   -0.15840E-03   393   0.179E-01    0.365E-02
DAV:   3    -0.129532330139E+03    0.12932E-04   -0.42997E-05   332   0.378E-02    0.206E-02
DAV:   4    -0.129532325132E+03    0.50067E-05   -0.34018E-05   273   0.304E-02    0.476E-03
DAV:   5    -0.129532325462E+03   -0.32985E-06   -0.81187E-06   335   0.141E-02    0.248E-03
DAV:   6    -0.129532325999E+03   -0.53681E-06   -0.12086E-06   252   0.560E-03
 102 F= -.12953233E+03 E0= -.12953233E+03  d E =-.504223E-03
       N       E                     dE             d eps       ncg     rms          rms(c)
DAV:   1    -0.129532330260E+03   -0.47983E-05   -0.10816E-05   276   0.173E-02    0.103E-03
DAV:   2    -0.129532330992E+03   -0.73232E-06   -0.62350E-07   272   0.426E-03    0.629E-04
DAV:   3    -0.129532331843E+03   -0.85071E-06   -0.11054E-07   236   0.168E-03    0.415E-04
DAV:   4    -0.129532333102E+03   -0.12593E-05   -0.55393E-08   262   0.110E-03    0.186E-04
DAV:   5    -0.129532333985E+03   -0.88246E-06   -0.69961E-09   268   0.618E-04    0.129E-04
DAV:   6    -0.129532335016E+03   -0.10307E-05   -0.29297E-09   236   0.515E-04
 103 F= -.12953234E+03 E0= -.12953234E+03  d E =-.901702E-05
       N       E                     dE             d eps       ncg     rms          rms(c)
DAV:   1    -0.129532342313E+03   -0.83282E-05   -0.39658E-05   291   0.337E-02    0.147E-03
DAV:   2    -0.129532342759E+03   -0.44621E-06   -0.22294E-06   272   0.820E-03    0.959E-04
DAV:   3    -0.129532342995E+03   -0.23612E-06   -0.22504E-07   202   0.255E-03    0.741E-04
DAV:   4    -0.129532343402E+03   -0.40661E-06   -0.15802E-08   235   0.151E-03    0.227E-04
DAV:   5    -0.129532343612E+03   -0.20963E-06    0.46092E-08   271   0.712E-04    0.130E-04
DAV:   6    -0.129532343789E+03   -0.17761E-06    0.67656E-08   202   0.413E-04
 104 F= -.12953234E+03 E0= -.12953234E+03  d E =-.877369E-05
       N       E                     dE             d eps       ncg     rms          rms(c)
DAV:   1    -0.129532352794E+03   -0.91827E-05   -0.77253E-05   254   0.472E-02    0.199E-03
DAV:   2    -0.129532353305E+03   -0.51019E-06   -0.49577E-06   234   0.125E-02    0.129E-03
DAV:   3    -0.129532353420E+03   -0.11546E-06   -0.56685E-07   220   0.382E-03    0.104E-03
DAV:   4    -0.129532353516E+03   -0.96082E-07   -0.81430E-08   245   0.213E-03    0.375E-04
DAV:   5    -0.129532353567E+03   -0.51057E-07    0.34664E-08   227   0.106E-03    0.191E-04
DAV:   6    -0.129532353595E+03   -0.28050E-07    0.70201E-08   164   0.632E-04
 105 F= -.12953235E+03 E0= -.12953235E+03  d E =-.980589E-05
       N       E                     dE             d eps       ncg     rms          rms(c)
DAV:   1    -0.129532364877E+03   -0.11310E-04   -0.12080E-04   186   0.586E-02    0.245E-03
DAV:   2    -0.129532365537E+03   -0.66058E-06   -0.74839E-06   184   0.153E-02    0.149E-03
DAV:   3    -0.129532365634E+03   -0.97185E-07   -0.89189E-07   164   0.467E-03    0.118E-03
DAV:   4    -0.129532365670E+03   -0.35351E-07   -0.15753E-07   164   0.253E-03    0.417E-04
DAV:   5    -0.129532365685E+03   -0.15657E-07    0.10551E-08   164   0.124E-03    0.217E-04
DAV:   6    -0.129532365695E+03   -0.93087E-08    0.59580E-08   164   0.733E-04
 106 F= -.12953237E+03 E0= -.12953237E+03  d E =-.120996E-04
