 vasp.5.4.1 24Jun15 (build Jan 13 2020 12:58:22) complex                        
  
 executed on           IFC91_ompi date 2020.02.03  09:56:59
 running on   15 total cores
 each image running on    1 cores
 distrk:  each k-point on    1 cores,    1 groups
 distr:  one band on NCORES_PER_BAND=   1 cores,    1 groups


--------------------------------------------------------------------------------------------------------


 INCAR:
 POTCAR:    PAW_PBE H 15Jun2001                   
 POTCAR:    PAW_PBE C 08Apr2002                   
 POTCAR:    PAW_PBE N 08Apr2002                   
 POTCAR:    PAW_PBE O 08Apr2002                   
 POTCAR:    PAW_PBE H 15Jun2001                   
   VRHFIN =H: ultrasoft test                                                    
   LEXCH  = PE                                                                  
   EATOM  =    12.4884 eV,    0.9179 Ry                                         
                                                                                
   TITEL  = PAW_PBE H 15Jun2001                                                 
   LULTRA =        F    use ultrasoft PP ?                                      
   IUNSCR =        0    unscreen: 0-lin 1-nonlin 2-no                           
   RPACOR =    0.000    partial core radius                                     
   POMASS =    1.000; ZVAL   =    1.000    mass and valenz                      
   RCORE  =    1.100    outmost cutoff radius                                   
   RWIGS  =    0.700; RWIGS  =    0.370    wigner-seitz radius (au A)           
   ENMAX  =  250.000; ENMIN  =  200.000 eV                                      
   RCLOC  =    0.701    cutoff for local pot                                    
   LCOR   =        T    correct aug charges                                     
   LPAW   =        T    paw PP                                                  
   EAUG   =  400.000                                                            
   RMAX   =    1.123    core radius for proj-oper                               
   RAUG   =    1.200    factor for augmentation sphere                          
   RDEP   =    1.112    radius for radial grids                                 
   RDEPT  =    0.926    core radius for aug-charge                              
                                                                                
   Atomic configuration                                                         
    2 entries                                                                   
     n  l   j            E        occ.                                          
     1  0  0.50        -6.4927   1.0000                                         
     2  1  0.50        -3.4015   0.0000                                         
   Description                                                                  
     l       E           TYP  RCUT    TYP  RCUT                                 
     0     -6.4927494     23  1.100                                             
     0      6.8029130     23  1.100                                             
     1     -4.0817478     23  1.100                                             
  local pseudopotential read in
  atomic valenz-charges read in
  non local Contribution for L=           0  read in
    real space projection operators read in
  non local Contribution for L=           0  read in
    real space projection operators read in
  non local Contribution for L=           1  read in
    real space projection operators read in
    PAW grid and wavefunctions read in
 
   number of l-projection  operators is LMAX  =           3
   number of lm-projection operators is LMMAX =           5
 
 POTCAR:    PAW_PBE C 08Apr2002                   
   VRHFIN =C: s2p2                                                              
   LEXCH  = PE                                                                  
   EATOM  =   147.1560 eV,   10.8157 Ry                                         
                                                                                
   TITEL  = PAW_PBE C 08Apr2002                                                 
   LULTRA =        F    use ultrasoft PP ?                                      
   IUNSCR =        1    unscreen: 0-lin 1-nonlin 2-no                           
   RPACOR =    1.200    partial core radius                                     
   POMASS =   12.011; ZVAL   =    4.000    mass and valenz                      
   RCORE  =    1.500    outmost cutoff radius                                   
   RWIGS  =    1.630; RWIGS  =    0.863    wigner-seitz radius (au A)           
   ENMAX  =  400.000; ENMIN  =  300.000 eV                                      
   ICORE  =        2    local potential                                         
   LCOR   =        T    correct aug charges                                     
   LPAW   =        T    paw PP                                                  
   EAUG   =  644.873                                                            
   DEXC   =    0.000                                                            
   RMAX   =    1.529    core radius for proj-oper                               
   RAUG   =    1.300    factor for augmentation sphere                          
   RDEP   =    1.501    radius for radial grids                                 
   RDEPT  =    1.300    core radius for aug-charge                              
                                                                                
   Atomic configuration                                                         
    4 entries                                                                   
     n  l   j            E        occ.                                          
     1  0  0.50      -273.3789   2.0000                                         
     2  0  0.50       -13.7508   2.0000                                         
     2  1  0.50        -5.2854   2.0000                                         
     3  2  1.50        -5.4423   0.0000                                         
   Description                                                                  
     l       E           TYP  RCUT    TYP  RCUT                                 
     0    -13.7508458     23  1.200                                             
     0     -8.2022199     23  1.200                                             
     1     -5.2854383     23  1.500                                             
     1     34.0145650     23  1.500                                             
     2     -5.4423304      7  1.500                                             
  local pseudopotential read in
  partial core-charges read in
  partial kinetic energy density read in
  atomic valenz-charges read in
  non local Contribution for L=           0  read in
    real space projection operators read in
  non local Contribution for L=           0  read in
    real space projection operators read in
  non local Contribution for L=           1  read in
    real space projection operators read in
  non local Contribution for L=           1  read in
    real space projection operators read in
    PAW grid and wavefunctions read in
 
   number of l-projection  operators is LMAX  =           4
   number of lm-projection operators is LMMAX =           8
 
 POTCAR:    PAW_PBE N 08Apr2002                   
   VRHFIN =N: s2p3                                                              
   LEXCH  = PE                                                                  
   EATOM  =   264.5486 eV,   19.4438 Ry                                         
                                                                                
   TITEL  = PAW_PBE N 08Apr2002                                                 
   LULTRA =        F    use ultrasoft PP ?                                      
   IUNSCR =        1    unscreen: 0-lin 1-nonlin 2-no                           
   RPACOR =    1.200    partial core radius                                     
   POMASS =   14.001; ZVAL   =    5.000    mass and valenz                      
   RCORE  =    1.500    outmost cutoff radius                                   
   RWIGS  =    1.400; RWIGS  =    0.741    wigner-seitz radius (au A)           
   ENMAX  =  400.000; ENMIN  =  300.000 eV                                      
   ICORE  =        2    local potential                                         
   LCOR   =        T    correct aug charges                                     
   LPAW   =        T    paw PP                                                  
   EAUG   =  627.112                                                            
   DEXC   =    0.000                                                            
   RMAX   =    1.529    core radius for proj-oper                               
   RAUG   =    1.300    factor for augmentation sphere                          
   RDEP   =    1.514    radius for radial grids                                 
   RDEPT  =    1.338    core radius for aug-charge                              
                                                                                
   Atomic configuration                                                         
    4 entries                                                                   
     n  l   j            E        occ.                                          
     1  0  0.50      -384.7179   2.0000                                         
     2  0  0.50       -18.5828   2.0000                                         
     2  1  0.50        -7.0898   3.0000                                         
     3  2  1.50        -6.8029   0.0000                                         
   Description                                                                  
     l       E           TYP  RCUT    TYP  RCUT                                 
     0    -18.5828119     23  1.200                                             
     0    -13.5018863     23  1.200                                             
     1     -7.0897853     23  1.500                                             
     1      9.5240782     23  1.500                                             
     2     -6.8029130      7  1.500                                             
  local pseudopotential read in
  partial core-charges read in
  partial kinetic energy density read in
  atomic valenz-charges read in
  non local Contribution for L=           0  read in
    real space projection operators read in
  non local Contribution for L=           0  read in
    real space projection operators read in
  non local Contribution for L=           1  read in
    real space projection operators read in
  non local Contribution for L=           1  read in
    real space projection operators read in
    PAW grid and wavefunctions read in
 
   number of l-projection  operators is LMAX  =           4
   number of lm-projection operators is LMMAX =           8
 
 POTCAR:    PAW_PBE O 08Apr2002                   
   VRHFIN =O: s2p4                                                              
   LEXCH  = PE                                                                  
   EATOM  =   432.3788 eV,   31.7789 Ry                                         
                                                                                
   TITEL  = PAW_PBE O 08Apr2002                                                 
   LULTRA =        F    use ultrasoft PP ?                                      
   IUNSCR =        1    unscreen: 0-lin 1-nonlin 2-no                           
   RPACOR =    1.200    partial core radius                                     
   POMASS =   16.000; ZVAL   =    6.000    mass and valenz                      
   RCORE  =    1.520    outmost cutoff radius                                   
   RWIGS  =    1.550; RWIGS  =    0.820    wigner-seitz radius (au A)           
   ENMAX  =  400.000; ENMIN  =  300.000 eV                                      
   ICORE  =        2    local potential                                         
   LCOR   =        T    correct aug charges                                     
   LPAW   =        T    paw PP                                                  
   EAUG   =  605.392                                                            
   DEXC   =    0.000                                                            
   RMAX   =    1.553    core radius for proj-oper                               
   RAUG   =    1.300    factor for augmentation sphere                          
   RDEP   =    1.550    radius for radial grids                                 
   RDEPT  =    1.329    core radius for aug-charge                              
                                                                                
   Atomic configuration                                                         
    4 entries                                                                   
     n  l   j            E        occ.                                          
     1  0  0.50      -514.6923   2.0000                                         
     2  0  0.50       -23.9615   2.0000                                         
     2  1  0.50        -9.0305   4.0000                                         
     3  2  1.50        -9.5241   0.0000                                         
   Description                                                                  
     l       E           TYP  RCUT    TYP  RCUT                                 
     0    -23.9615318     23  1.200                                             
     0     -9.5240782     23  1.200                                             
     1     -9.0304911     23  1.520                                             
     1      8.1634956     23  1.520                                             
     2     -9.5240782      7  1.500                                             
  local pseudopotential read in
  partial core-charges read in
  partial kinetic energy density read in
  kinetic energy density of atom read in
  atomic valenz-charges read in
  non local Contribution for L=           0  read in
    real space projection operators read in
  non local Contribution for L=           0  read in
    real space projection operators read in
  non local Contribution for L=           1  read in
    real space projection operators read in
  non local Contribution for L=           1  read in
    real space projection operators read in
    PAW grid and wavefunctions read in
 
   number of l-projection  operators is LMAX  =           4
   number of lm-projection operators is LMMAX =           8
 
 Optimization of the real space projectors (new method)

 maximal supplied QI-value         = 34.20
 optimisation between [QCUT,QGAM] = [  9.92, 20.18] = [ 27.55,114.04] Ry 
 Optimized for a Real-space Cutoff    1.26 Angstroem

   l    n(q)    QCUT    max X(q) W(low)/X(q) W(high)/X(q)  e(spline) 
   0      8     9.919    19.460    0.50E-03    0.23E-03    0.29E-06
   0      8     9.919    12.209    0.48E-03    0.23E-03    0.28E-06
   1      7     9.919     4.655    0.17E-03    0.75E-03    0.30E-06
 Optimization of the real space projectors (new method)

 maximal supplied QI-value         = 25.13
 optimisation between [QCUT,QGAM] = [ 10.05, 20.36] = [ 28.30,116.06] Ry 
 Optimized for a Real-space Cutoff    1.30 Angstroem

   l    n(q)    QCUT    max X(q) W(low)/X(q) W(high)/X(q)  e(spline) 
   0      8    10.053   115.676    0.49E-03    0.72E-03    0.18E-06
   0      8    10.053    87.132    0.49E-03    0.71E-03    0.18E-06
   1      7    10.053     4.429    0.32E-03    0.31E-03    0.18E-06
   1      7    10.053     2.733    0.23E-03    0.19E-03    0.20E-06
 Optimization of the real space projectors (new method)

 maximal supplied QI-value         = 25.13
 optimisation between [QCUT,QGAM] = [ 10.05, 20.36] = [ 28.30,116.06] Ry 
 Optimized for a Real-space Cutoff    1.65 Angstroem

   l    n(q)    QCUT    max X(q) W(low)/X(q) W(high)/X(q)  e(spline) 
   0     10    10.053    79.467    0.76E-04    0.72E-04    0.56E-06
   0     10    10.053    66.151    0.76E-04    0.72E-04    0.55E-06
   1     10    10.053     8.350    0.25E-03    0.92E-03    0.41E-05
   1     10    10.053     5.531    0.27E-03    0.10E-02    0.45E-05
 Optimization of the real space projectors (new method)

 maximal supplied QI-value         = 24.76
 optimisation between [QCUT,QGAM] = [ 10.15, 20.30] = [ 28.85,115.39] Ry 
 Optimized for a Real-space Cutoff    1.38 Angstroem

   l    n(q)    QCUT    max X(q) W(low)/X(q) W(high)/X(q)  e(spline) 
   0      8    10.150    20.381    0.22E-03    0.32E-03    0.29E-06
   0      8    10.150    15.268    0.23E-03    0.35E-03    0.30E-06
   1      8    10.150     5.964    0.46E-03    0.53E-03    0.21E-06
   1      8    10.150     5.382    0.38E-03    0.45E-03    0.19E-06
  PAW_PBE H 15Jun2001                   :
 energy of atom  1       EATOM=  -12.4884
 kinetic energy error for atom=    0.0098 (will be added to EATOM!!)
  PAW_PBE C 08Apr2002                   :
 energy of atom  2       EATOM= -147.1560
 kinetic energy error for atom=    0.0288 (will be added to EATOM!!)
  PAW_PBE N 08Apr2002                   :
 energy of atom  3       EATOM= -264.5486
 kinetic energy error for atom=    0.0736 (will be added to EATOM!!)
  PAW_PBE O 08Apr2002                   :
 energy of atom  4       EATOM= -432.3788
 kinetic energy error for atom=    0.1156 (will be added to EATOM!!)
 
 
 POSCAR: H12 C6 N2 O2                            
  positions in direct lattice
  velocities in cartesian coordinates
 exchange correlation table for  LEXCH =        8
   RHO(1)=    0.500       N(1)  =     2000
   RHO(2)=  100.500       N(2)  =     4000

 VTST: version 3.2, (02/03/18)

 CHAIN: initializing optimizer
 
 OPT: Using FIRE optimizer
 OPT: FIRE, Init
 OPT: FIRE, MAXMOVE       0.20000
 OPT: FIRE, TIMESTEP      0.10000
 OPT: FIRE, FTIMEMAX      1.00000
 OPT: FIRE, FTIMEINC      1.10000
 OPT: FIRE, FTIMEDEC      0.50000
 OPT: FIRE, FALPHADEC     0.99000
 OPT: FIRE, FALPHA        0.10000
 OPT: FIRE, FNMIN         5
 
 CHAIN: Read ICHAIN            0
 CHAIN: Running the NEB
 NEB:          SPRING     -5.000000
 NEB:          LCLIMB      T
 NEB:     LTANGENTOLD      F
 NEB:           LDNEB      F
 NEB:        LDNEBORG      F
 NEB:        LNEBCELL      F
 NEB:          EFIRST      0.000000
 NEB:           ELAST      0.000000
 
 POSCAR: H12 C6 N2 O2                            
  positions in direct lattice
  No initial velocities read in
 
 POSCAR: H12 C6 N2 O2                            
  positions in direct lattice
  No initial velocities read in
 


--------------------------------------------------------------------------------------------------------


 ion  position               nearest neighbor table
   1  0.378  0.542  0.516-  13 1.10
   2  0.385  0.497  0.477-  13 1.10
   3  0.377  0.485  0.534-  13 1.10
   4  0.451  0.450  0.488-  19 1.02
   5  0.518  0.486  0.549-  15 1.10
   6  0.561  0.418  0.525-  16 1.10
   7  0.522  0.407  0.483-  16 1.10
   8  0.505  0.403  0.540-  16 1.10
   9  0.522  0.553  0.513-  20 1.03
  10  0.609  0.559  0.468-  18 1.10
  11  0.565  0.573  0.431-  18 1.10
  12  0.572  0.605  0.481-  18 1.10
  13  0.392  0.509  0.511-   1 1.10   2 1.10   3 1.10  14 1.51
  14  0.442  0.512  0.518-  21 1.24  19 1.36  13 1.51
  15  0.514  0.471  0.515-   5 1.10  19 1.46  16 1.52  17 1.55
  16  0.526  0.422  0.516-   6 1.10   7 1.10   8 1.10  15 1.52
  17  0.545  0.497  0.483-  22 1.24  20 1.35  15 1.55
  18  0.574  0.571  0.466-  12 1.10  10 1.10  11 1.10  20 1.45
  19  0.467  0.476  0.504-   4 1.02  14 1.36  15 1.46
  20  0.545  0.541  0.491-   9 1.03  17 1.35  18 1.45
  21  0.460  0.544  0.537-  14 1.24
  22  0.568  0.478  0.454-  17 1.24
 
  LATTYP: Found a simple cubic cell.
 ALAT       =    30.0000000000
  
  Lattice vectors:
  
 A1 = (  30.0000000000,   0.0000000000,   0.0000000000)
 A2 = (   0.0000000000,  30.0000000000,   0.0000000000)
 A3 = (   0.0000000000,   0.0000000000,  30.0000000000)


Analysis of symmetry for initial positions (statically):
=====================================================================
 Subroutine PRICEL returns:
 Original cell was already a primitive cell.
 

 Routine SETGRP: Setting up the symmetry group for a 
 simple cubic supercell.


 Subroutine GETGRP returns: Found  1 space group operations
 (whereof  1 operations were pure point group operations)
 out of a pool of 48 trial point group operations.


The static configuration has the point symmetry C_1 .


Analysis of symmetry for dynamics (positions and initial velocities):
=====================================================================
 Subroutine PRICEL returns:
 Original cell was already a primitive cell.
 

 Routine SETGRP: Setting up the symmetry group for a 
 simple cubic supercell.


 Subroutine GETGRP returns: Found  1 space group operations
 (whereof  1 operations were pure point group operations)
 out of a pool of 48 trial point group operations.


The dynamic configuration has the point symmetry C_1 .
 
 
 KPOINTS: Mo2C                                    

Automatic generation of k-mesh.
Space group operators:
 irot       det(A)        alpha          n_x          n_y          n_z        tau_x        tau_y        tau_z
    1     1.000000     0.000000     1.000000     0.000000     0.000000     0.000000     0.000000     0.000000
 
 Subroutine IBZKPT returns following result:
 ===========================================
 
 Found      4 irreducible k-points:
 
 Following reciprocal coordinates:
            Coordinates               Weight
  0.250000  0.250000  0.250000      2.000000
 -0.250000  0.250000  0.250000      2.000000
  0.250000 -0.250000  0.250000      2.000000
 -0.250000 -0.250000  0.250000      2.000000
 
 Following cartesian coordinates:
            Coordinates               Weight
  0.008333  0.008333  0.008333      2.000000
 -0.008333  0.008333  0.008333      2.000000
  0.008333 -0.008333  0.008333      2.000000
 -0.008333 -0.008333  0.008333      2.000000
 


--------------------------------------------------------------------------------------------------------




 Dimension of arrays:
   k-points           NKPTS =      4   k-points in BZ     NKDIM =      4   number of bands    NBANDS=     41
   number of dos      NEDOS =    301   number of ions     NIONS =     22
   non local maximal  LDIM  =      4   non local SUM 2l+1 LMDIM =      8
   total plane-waves  NPLWV = ******
   max r-space proj   IRMAX =   2395   max aug-charges    IRDMAX=   1821
   dimension x,y,z NGX =   150 NGY =  150 NGZ =  150
   dimension x,y,z NGXF=   300 NGYF=  300 NGZF=  300
   support grid    NGXF=   300 NGYF=  300 NGZF=  300
   ions per type =              12   6   2   2
 NGX,Y,Z   is equivalent  to a cutoff of   8.31,  8.31,  8.31 a.u.
 NGXF,Y,Z  is equivalent  to a cutoff of  16.62, 16.62, 16.62 a.u.


 I would recommend the setting:
   dimension x,y,z NGX =   147 NGY =  147 NGZ =  147
 SYSTEM =  unknown system                          
 POSCAR =  H12 C6 N2 O2                            

 Startparameter for this run:
   NWRITE =      2    write-flag & timer
   PREC   = normal    normal or accurate (medium, high low for compatibility)
   ISTART =      0    job   : 0-new  1-cont  2-samecut
   ICHARG =      2    charge: 1-file 2-atom 10-const
   ISPIN  =      1    spin polarized calculation?
   LNONCOLLINEAR =      F non collinear calculations
   LSORBIT =      F    spin-orbit coupling
   INIWAV =      1    electr: 0-lowe 1-rand  2-diag
   LASPH  =      F    aspherical Exc in radial PAW
   METAGGA=      F    non-selfconsistent MetaGGA calc.

 Electronic Relaxation 1
   ENCUT  =  400.0 eV  29.40 Ry    5.42 a.u.  48.92 48.92 48.92*2*pi/ulx,y,z
   ENINI  =  400.0     initial cutoff
   ENAUG  =  644.9 eV  augmentation charge cutoff
   NELM   =    500;   NELMIN=  6; NELMDL= -5     # of ELM steps 
   EDIFF  = 0.1E-03   stopping-criterion for ELM
   LREAL  =      T    real-space projection
   NLSPLINE    = F    spline interpolate recip. space projectors
   LCOMPAT=      F    compatible to vasp.4.4
   GGA_COMPAT  = T    GGA compatible to vasp.4.4-vasp.4.6
   LMAXPAW     = -100 max onsite density
   LMAXMIX     =    2 max onsite mixed and CHGCAR
   VOSKOWN=      0    Vosko Wilk Nusair interpolation
   ROPT   =   -0.00050  -0.00050  -0.00050  -0.00050
 Ionic relaxation
   EDIFFG = -.1E+00   stopping-criterion for IOM
   NSW    =    300    number of steps for IOM
   NBLOCK =      1;   KBLOCK =    300    inner block; outer block 
   IBRION =      3    ionic relax: 0-MD 1-quasi-New 2-CG
   NFREE  =      0    steps in history (QN), initial steepest desc. (CG)
   ISIF   =      2    stress and relaxation
   IWAVPR =     11    prediction:  0-non 1-charg 2-wave 3-comb
   ISYM   =      2    0-nonsym 1-usesym 2-fastsym
   LCORR  =      T    Harris-Foulkes like correction to forces

   POTIM  = 0.0000    time-step for ionic-motion
   TEIN   =    0.0    initial temperature
   TEBEG  =    0.0;   TEEND  =   0.0 temperature during run
   SMASS  =   2.00    Nose mass-parameter (am)
   estimated Nose-frequenzy (Omega)   =  0.24E+10 period in steps =  0.00 mass=   0.137E-25a.u.
   SCALEE = 1.0000    scale energy and forces
   NPACO  =    256;   APACO  = 16.0  distance and # of slots for P.C.
   PSTRESS=    0.0 pullay stress

  Mass of Ions in am
   POMASS =   1.00 12.01 14.00 16.00
  Ionic Valenz
   ZVAL   =   1.00  4.00  5.00  6.00
  Atomic Wigner-Seitz radii
   RWIGS  =  -1.00 -1.00 -1.00 -1.00
  virtual crystal weights 
   VCA    =   1.00  1.00  1.00  1.00
   NELECT =      58.0000    total number of electrons
   NUPDOWN=      -1.0000    fix difference up-down

 DOS related values:
   EMIN   =  10.00;   EMAX   =-10.00  energy-range for DOS
   EFERMI =   0.00
   ISMEAR =     0;   SIGMA  =   0.20  broadening in eV -4-tet -1-fermi 0-gaus

 Electronic relaxation 2 (details)
   IALGO  =     38    algorithm
   LDIAG  =      T    sub-space diagonalisation (order eigenvalues)
   LSUBROT=      F    optimize rotation matrix (better conditioning)
   TURBO    =      0    0=normal 1=particle mesh
   IRESTART =      0    0=no restart 2=restart with 2 vectors
   NREBOOT  =      0    no. of reboots
   NMIN     =      0    reboot dimension
   EREF     =   0.00    reference energy to select bands
   IMIX   =      4    mixing-type and parameters
     AMIX     =   0.40;   BMIX     =  1.00
     AMIX_MAG =   1.60;   BMIX_MAG =  1.00
     AMIN     =   0.10
     WC   =   100.;   INIMIX=   1;  MIXPRE=   1;  MAXMIX= -45

 Intra band minimization:
   WEIMIN = 0.0010     energy-eigenvalue tresh-hold
   EBREAK =  0.61E-06  absolut break condition
   DEPER  =   0.30     relativ break condition  

   TIME   =   0.40     timestep for ELM

  volume/ion in A,a.u.               =    1227.27      8282.05
  Fermi-wavevector in a.u.,A,eV,Ry     =   0.211234  0.399174  0.607087  0.044620
  Thomas-Fermi vector in A             =   0.980021
 
 Write flags
   LWAVE  =      F    write WAVECAR
   LCHARG =      F    write CHGCAR
   LVTOT  =      F    write LOCPOT, total local potential
   LVHAR  =      F    write LOCPOT, Hartree potential only
   LELF   =      F    write electronic localiz. function (ELF)
   LORBIT =      0    0 simple, 1 ext, 2 COOP (PROOUT)


 Dipole corrections
   LMONO  =      F    monopole corrections only (constant potential shift)
   LDIPOL =      F    correct potential (dipole corrections)
   IDIPOL =      0    1-x, 2-y, 3-z, 4-all directions 
   EPSILON=  1.0000000 bulk dielectric constant

 Exchange correlation treatment:
   GGA     =    PE    GGA type
   LEXCH   =     8    internal setting for exchange type
   VOSKOWN=      0    Vosko Wilk Nusair interpolation
   LHFCALC =     F    Hartree Fock is set to
   LHFONE  =     F    Hartree Fock one center treatment
   AEXX    =    0.0000 exact exchange contribution

 Linear response parameters
   LEPSILON=     F    determine dielectric tensor
   LRPA    =     F    only Hartree local field effects (RPA)
   LNABLA  =     F    use nabla operator in PAW spheres
   LVEL    =     F    velocity operator in full k-point grid
   LINTERFAST=   F  fast interpolation
   KINTER  =     0    interpolate to denser k-point grid
   CSHIFT  =0.1000    complex shift for real part using Kramers Kronig
   OMEGAMAX=  -1.0    maximum frequency
   DEG_THRESHOLD= 0.2000000E-02 threshold for treating states as degnerate
   RTIME   =    0.100 relaxation time in fs

 Orbital magnetization related:
   ORBITALMAG=     F  switch on orbital magnetization
   LCHIMAG   =     F  perturbation theory with respect to B field
   DQ        =  0.001000  dq finite difference perturbation B field



--------------------------------------------------------------------------------------------------------


 quickmin algorithm: (dynamic with friction)
 charge density and potential will be updated during run
 non-spin polarized calculation
 Variant of blocked Davidson
 Davidson routine will perform the subspace rotation
 perform sub-space diagonalisation
    after iterative eigenvector-optimisation
 modified Broyden-mixing scheme, WC =      100.0
 initial mixing is a Kerker type mixing with AMIX =  0.4000 and BMIX =      1.0000
 Hartree-type preconditioning will be used
 using additional bands           12
 real space projection scheme for non local part
 use partial core corrections
 calculate Harris-corrections to forces 
   (improved forces if not selfconsistent)
 use gradient corrections 
 use of overlap-Matrix (Vanderbilt PP)
 Gauss-broadening in eV      SIGMA  =   0.20


--------------------------------------------------------------------------------------------------------


  energy-cutoff  :      400.00
  volume of cell :    27000.00
      direct lattice vectors                 reciprocal lattice vectors
    30.000000000  0.000000000  0.000000000     0.033333333  0.000000000  0.000000000
     0.000000000 30.000000000  0.000000000     0.000000000  0.033333333  0.000000000
     0.000000000  0.000000000 30.000000000     0.000000000  0.000000000  0.033333333

  length of vectors
    30.000000000 30.000000000 30.000000000     0.033333333  0.033333333  0.033333333


 
 k-points in units of 2pi/SCALE and weight: Mo2C                                    
   0.00833333  0.00833333  0.00833333       0.250
  -0.00833333  0.00833333  0.00833333       0.250
   0.00833333 -0.00833333  0.00833333       0.250
  -0.00833333 -0.00833333  0.00833333       0.250
 
 k-points in reciprocal lattice and weights: Mo2C                                    
   0.25000000  0.25000000  0.25000000       0.250
  -0.25000000  0.25000000  0.25000000       0.250
   0.25000000 -0.25000000  0.25000000       0.250
  -0.25000000 -0.25000000  0.25000000       0.250
 
 position of ions in fractional coordinates (direct lattice) 
   0.37756057  0.54166613  0.51572940
   0.38479949  0.49705488  0.47666435
   0.37730778  0.48516912  0.53432253
   0.45102559  0.45045631  0.48831046
   0.51791399  0.48578034  0.54856029
   0.56142168  0.41779165  0.52512123
   0.52216655  0.40736685  0.48254437
   0.50534594  0.40336973  0.53996070
   0.52182336  0.55336858  0.51251473
   0.60907860  0.55936824  0.46846783
   0.56535624  0.57316386  0.43085894
   0.57225992  0.60452721  0.48118766
   0.39242977  0.50873933  0.51051473
   0.44220445  0.51171164  0.51821282
   0.51383085  0.47074411  0.51526936
   0.52618233  0.42172741  0.51599372
   0.54488909  0.49688185  0.48304320
   0.57442924  0.57118828  0.46633823
   0.46655145  0.47598737  0.50432691
   0.54532887  0.54137487  0.49079241
   0.45997376  0.54419614  0.53688529
   0.56812063  0.47836869  0.45437769
 
 position of ions in cartesian coordinates  (Angst):
  11.32681714 16.24998404 15.47188199
  11.54398471 14.91164642 14.29993053
  11.31923348 14.55507373 16.02967594
  13.53076758 13.51368933 14.64931382
  15.53741956 14.57341020 16.45680863
  16.84265027 12.53374958 15.75363679
  15.66499641 12.22100539 14.47633110
  15.16037816 12.10109201 16.19882085
  15.65470091 16.60105749 15.37544202
  18.27235787 16.78104722 14.05403493
  16.96068714 17.19491586 12.92576818
  17.16779765 18.13581639 14.43562980
  11.77289323 15.26217997 15.31544185
  13.26613339 15.35134920 15.54638453
  15.41492553 14.12232329 15.45808069
  15.78546994 12.65182234 15.47981151
  16.34667275 14.90645558 14.49129601
  17.23287712 17.13564844 13.99014683
  13.99654363 14.27962119 15.12980737
  16.35986617 16.24124616 14.72377218
  13.79921275 16.32588415 16.10655857
  17.04361877 14.35106079 13.63133082
 


--------------------------------------------------------------------------------------------------------


 k-point  1 :   0.2500 0.2500 0.2500  plane waves:  490454
 k-point  2 :  -0.2500 0.2500 0.2500  plane waves:  490454
 k-point  3 :   0.2500-0.2500 0.2500  plane waves:  490454
 k-point  4 :  -0.2500-0.2500 0.2500  plane waves:  490454

 maximum and minimum number of plane-waves per node :    490454   490454

 maximum number of plane-waves:    490454
 maximum index in each direction: 
   IXMAX=   49   IYMAX=   49   IZMAX=   48
   IXMIN=  -49   IYMIN=  -49   IZMIN=  -49

 WARNING: aliasing errors must be expected set NGX to 198 to avoid them
 WARNING: aliasing errors must be expected set NGY to 198 to avoid them
 WARNING: aliasing errors must be expected set NGZ to 196 to avoid them
 aliasing errors are usually negligible using standard VASP settings
 and one can safely disregard these warnings

 serial   3D FFT for wavefunctions
 parallel 3D FFT for charge:
    minimum data exchange during FFTs selected (reduces bandwidth)


 total amount of memory used by VASP on root node  4333706. kBytes
========================================================================

   base      :      30000. kBytes
   nonlr-proj:       2401. kBytes
   fftplans  :     924480. kBytes
   grid      :    2089440. kBytes
   one-center:         67. kBytes
   wavefun   :    1287318. kBytes
 
     INWAV:  cpu time    0.0010: real time    0.0004
 Broyden mixing: mesh for mixing (old mesh)
   NGX = 97   NGY = 97   NGZ = 97
  (NGX  =300   NGY  =300   NGZ  =300)
  gives a total of 912673 points

 initial charge density was supplied:
 charge density of overlapping atoms calculated
 number of electron      58.0000000 magnetization 
 keeping initial charge density in first step


--------------------------------------------------------------------------------------------------------


 Maximum index for non-local projection operator         2277
 Maximum index for augmentation-charges         1576 (set IRDMAX)


--------------------------------------------------------------------------------------------------------


 First call to EWALD:  gamma=   0.059
 Maximum number of real-space cells 3x 3x 3
 Maximum number of reciprocal cells 3x 3x 3

 FEWALD executed in parallel
    FEWALD:  cpu time    0.0050: real time    0.0051


----------------------------------------- Iteration    1(   1)  ---------------------------------------


    POTLOK:  cpu time   25.8281: real time   25.8080
    SETDIJ:  cpu time    0.0300: real time    0.0296
     EDDAV:  cpu time  303.7668: real time  303.5194
       DOS:  cpu time    0.0000: real time    0.0009
    --------------------------------------------
      LOOP:  cpu time  329.6289: real time  329.3627

 eigenvalue-minimisations  :   392
 total energy-change (2. order) : 0.6109065E+03  (-0.7954572E+03)
 number of electron      58.0000000 magnetization 
 augmentation part       58.0000000 magnetization 

 Free energy of the ion-electron system (eV)
  ---------------------------------------------------
  alpha Z        PSCENC =         0.51957394
  Ewald energy   TEWEN  =      6064.52822863
  -Hartree energ DENC   =     -7806.60687706
  -exchange      EXHF   =         0.00000000
  -V(xc)+E(xc)   XCENC  =       202.06320857
  PAW double counting   =      1779.70502452    -1789.20730229
  entropy T*S    EENTRO =        -0.80703738
  eigenvalues    EBANDS =      -265.27168170
  atomic energy  EATOM  =      2425.98333211
  Solvation  Ediel_sol  =         0.00000000
  ---------------------------------------------------
  free energy    TOTEN  =       610.90646933 eV

  energy without entropy =      611.71350671  energy(sigma->0) =      611.30998802


--------------------------------------------------------------------------------------------------------




----------------------------------------- Iteration    1(   2)  ---------------------------------------


     EDDAV:  cpu time  413.3522: real time  413.0161
       DOS:  cpu time    0.0010: real time    0.0008
    --------------------------------------------
      LOOP:  cpu time  413.3552: real time  413.0200

 eigenvalue-minimisations  :   563
 total energy-change (2. order) :-0.3314482E+03  (-0.3205875E+03)
 number of electron      58.0000000 magnetization 
 augmentation part       58.0000000 magnetization 

 Free energy of the ion-electron system (eV)
  ---------------------------------------------------
  alpha Z        PSCENC =         0.51957394
  Ewald energy   TEWEN  =      6064.52822863
  -Hartree energ DENC   =     -7806.60687706
  -exchange      EXHF   =         0.00000000
  -V(xc)+E(xc)   XCENC  =       202.06320857
  PAW double counting   =      1779.70502452    -1789.20730229
  entropy T*S    EENTRO =        -0.53115512
  eigenvalues    EBANDS =      -596.99579292
  atomic energy  EATOM  =      2425.98333211
  Solvation  Ediel_sol  =         0.00000000
  ---------------------------------------------------
  free energy    TOTEN  =       279.45824036 eV

  energy without entropy =      279.98939549  energy(sigma->0) =      279.72381793


--------------------------------------------------------------------------------------------------------




----------------------------------------- Iteration    1(   3)  ---------------------------------------


     EDDAV:  cpu time  370.2557: real time  369.9532
       DOS:  cpu time    0.0000: real time    0.0006
    --------------------------------------------
      LOOP:  cpu time  370.2557: real time  369.9573

 eigenvalue-minimisations  :   496
 total energy-change (2. order) :-0.3242092E+03  (-0.3150672E+03)
 number of electron      58.0000000 magnetization 
 augmentation part       58.0000000 magnetization 

 Free energy of the ion-electron system (eV)
  ---------------------------------------------------
  alpha Z        PSCENC =         0.51957394
  Ewald energy   TEWEN  =      6064.52822863
  -Hartree energ DENC   =     -7806.60687706
  -exchange      EXHF   =         0.00000000
  -V(xc)+E(xc)   XCENC  =       202.06320857
  PAW double counting   =      1779.70502452    -1789.20730229
  entropy T*S    EENTRO =        -0.00014586
  eigenvalues    EBANDS =      -921.73602700
  atomic energy  EATOM  =      2425.98333211
  Solvation  Ediel_sol  =         0.00000000
  ---------------------------------------------------
  free energy    TOTEN  =       -44.75098444 eV

  energy without entropy =      -44.75083858  energy(sigma->0) =      -44.75091151


--------------------------------------------------------------------------------------------------------




----------------------------------------- Iteration    1(   4)  ---------------------------------------


     EDDAV:  cpu time  306.5674: real time  306.3175
       DOS:  cpu time    0.0010: real time    0.0005
    --------------------------------------------
      LOOP:  cpu time  306.5694: real time  306.4307

 eigenvalue-minimisations  :   397
 total energy-change (2. order) :-0.9198642E+02  (-0.9183966E+02)
 number of electron      58.0000000 magnetization 
 augmentation part       58.0000000 magnetization 

 Free energy of the ion-electron system (eV)
  ---------------------------------------------------
  alpha Z        PSCENC =         0.51957394
  Ewald energy   TEWEN  =      6064.52822863
  -Hartree energ DENC   =     -7806.60687706
  -exchange      EXHF   =         0.00000000
  -V(xc)+E(xc)   XCENC  =       202.06320857
  PAW double counting   =      1779.70502452    -1789.20730229
  entropy T*S    EENTRO =         0.00000000
  eigenvalues    EBANDS =     -1013.72259328
  atomic energy  EATOM  =      2425.98333211
  Solvation  Ediel_sol  =         0.00000000
  ---------------------------------------------------
  free energy    TOTEN  =      -136.73740487 eV

  energy without entropy =     -136.73740487  energy(sigma->0) =     -136.73740487


--------------------------------------------------------------------------------------------------------




----------------------------------------- Iteration    1(   5)  ---------------------------------------


     EDDAV:  cpu time  339.5334: real time  339.2569
       DOS:  cpu time    0.0000: real time    0.0005
    CHARGE:  cpu time   19.6160: real time   19.6001
    MIXING:  cpu time    0.7089: real time    0.7088
    --------------------------------------------
      LOOP:  cpu time  359.8593: real time  359.5697

 eigenvalue-minimisations  :   448
 total energy-change (2. order) :-0.5215362E+01  (-0.5201542E+01)
 number of electron      57.9999973 magnetization 
 augmentation part        2.9724864 magnetization 

 Broyden mixing:
  rms(total) = 0.19557E+01    rms(broyden)= 0.19535E+01
  rms(prec ) = 0.20311E+01
  weight for this iteration     100.00

 Free energy of the ion-electron system (eV)
  ---------------------------------------------------
  alpha Z        PSCENC =         0.51957394
  Ewald energy   TEWEN  =      6064.52822863
  -Hartree energ DENC   =     -7806.60687706
  -exchange      EXHF   =         0.00000000
  -V(xc)+E(xc)   XCENC  =       202.06320857
  PAW double counting   =      1779.70502452    -1789.20730229
  entropy T*S    EENTRO =         0.00000000
  eigenvalues    EBANDS =     -1018.93795491
  atomic energy  EATOM  =      2425.98333211
  Solvation  Ediel_sol  =         0.00000000
  ---------------------------------------------------
  free energy    TOTEN  =      -141.95276650 eV

  energy without entropy =     -141.95276650  energy(sigma->0) =     -141.95276650


--------------------------------------------------------------------------------------------------------




----------------------------------------- Iteration    1(   6)  ---------------------------------------


    POTLOK:  cpu time   23.4954: real time   23.4766
    SETDIJ:  cpu time    0.0290: real time    0.0288
     EDDAV:  cpu time  296.2550: real time  296.0125
       DOS:  cpu time    0.0000: real time    0.0005
    CHARGE:  cpu time   17.1734: real time   17.1600
    MIXING:  cpu time    0.6619: real time    0.6605
    --------------------------------------------
      LOOP:  cpu time  337.6177: real time  337.3432

 eigenvalue-minimisations  :   414
 total energy-change (2. order) : 0.1014871E+02  (-0.2380994E+01)
 number of electron      57.9999970 magnetization 
 augmentation part        2.6307181 magnetization 

 Broyden mixing:
  rms(total) = 0.10015E+01    rms(broyden)= 0.10010E+01
  rms(prec ) = 0.10296E+01
  weight for this iteration     100.00

 eigenvalues of (default mixing * dielectric matrix)
  average eigenvalue GAMMA=   1.2719
  1.2719

 Free energy of the ion-electron system (eV)
  ---------------------------------------------------
  alpha Z        PSCENC =         0.51957394
  Ewald energy   TEWEN  =      6064.52822863
  -Hartree energ DENC   =     -7922.25325264
  -exchange      EXHF   =         0.00000000
  -V(xc)+E(xc)   XCENC  =       208.14856050
  PAW double counting   =      2778.96291188    -2789.82614423
  entropy T*S    EENTRO =         0.00000000
  eigenvalues    EBANDS =      -897.86726369
  atomic energy  EATOM  =      2425.98333211
  Solvation  Ediel_sol  =         0.00000000
  ---------------------------------------------------
  free energy    TOTEN  =      -131.80405350 eV

  energy without entropy =     -131.80405350  energy(sigma->0) =     -131.80405350


--------------------------------------------------------------------------------------------------------




----------------------------------------- Iteration    1(   7)  ---------------------------------------


    POTLOK:  cpu time   19.4970: real time   19.4810
    SETDIJ:  cpu time    0.0290: real time    0.0288
     EDDAV:  cpu time  314.8061: real time  314.5508
       DOS:  cpu time    0.0000: real time    0.0005
    CHARGE:  cpu time   19.7620: real time   19.7456
    MIXING:  cpu time    0.7429: real time    0.7430
    --------------------------------------------
      LOOP:  cpu time  354.8391: real time  354.5535

 eigenvalue-minimisations  :   424
 total energy-change (2. order) : 0.1757624E+01  (-0.4458304E+00)
 number of electron      57.9999970 magnetization 
 augmentation part        2.6210787 magnetization 

 Broyden mixing:
  rms(total) = 0.51612E+00    rms(broyden)= 0.51600E+00
  rms(prec ) = 0.52876E+00
  weight for this iteration     100.00

 eigenvalues of (default mixing * dielectric matrix)
  average eigenvalue GAMMA=   1.5646
  1.0946  2.0346

 Free energy of the ion-electron system (eV)
  ---------------------------------------------------
  alpha Z        PSCENC =         0.51957394
  Ewald energy   TEWEN  =      6064.52822863
  -Hartree energ DENC   =     -7984.09885222
  -exchange      EXHF   =         0.00000000
  -V(xc)+E(xc)   XCENC  =       211.14910027
  PAW double counting   =      3748.29530212    -3759.42488923
  entropy T*S    EENTRO =         0.00000000
  eigenvalues    EBANDS =      -836.99822484
  atomic energy  EATOM  =      2425.98333211
  Solvation  Ediel_sol  =         0.00000000
  ---------------------------------------------------
  free energy    TOTEN  =      -130.04642922 eV

  energy without entropy =     -130.04642922  energy(sigma->0) =     -130.04642922


--------------------------------------------------------------------------------------------------------




----------------------------------------- Iteration    1(   8)  ---------------------------------------


    POTLOK:  cpu time   23.6784: real time   23.6604
    SETDIJ:  cpu time    0.0300: real time    0.0296
     EDDAV:  cpu time  319.4044: real time  319.1440
       DOS:  cpu time    0.0000: real time    0.0005
    CHARGE:  cpu time   19.1691: real time   19.1529
    MIXING:  cpu time    0.8909: real time    0.8910
    --------------------------------------------
      LOOP:  cpu time  363.1758: real time  362.8816

 eigenvalue-minimisations  :   432
 total energy-change (2. order) : 0.4874020E+00  (-0.8817721E-01)
 number of electron      57.9999970 magnetization 
 augmentation part        2.5910846 magnetization 

 Broyden mixing:
  rms(total) = 0.15483E+00    rms(broyden)= 0.15476E+00
  rms(prec ) = 0.16229E+00
  weight for this iteration     100.00

 eigenvalues of (default mixing * dielectric matrix)
  average eigenvalue GAMMA=   1.5436
  2.3857  0.9403  1.3048

 Free energy of the ion-electron system (eV)
  ---------------------------------------------------
  alpha Z        PSCENC =         0.51957394
  Ewald energy   TEWEN  =      6064.52822863
  -Hartree energ DENC   =     -8025.23475090
  -exchange      EXHF   =         0.00000000
  -V(xc)+E(xc)   XCENC  =       213.29309113
  PAW double counting   =      4577.59840891    -4588.91833435
  entropy T*S    EENTRO =         0.00000000
  eigenvalues    EBANDS =      -797.32857664
  atomic energy  EATOM  =      2425.98333211
  Solvation  Ediel_sol  =         0.00000000
  ---------------------------------------------------
  free energy    TOTEN  =      -129.55902718 eV

  energy without entropy =     -129.55902718  energy(sigma->0) =     -129.55902718


--------------------------------------------------------------------------------------------------------




----------------------------------------- Iteration    1(   9)  ---------------------------------------


    POTLOK:  cpu time   23.2085: real time   23.1903
    SETDIJ:  cpu time    0.0300: real time    0.0297
     EDDAV:  cpu time  332.1825: real time  331.9112
       DOS:  cpu time    0.0000: real time    0.0005
    CHARGE:  cpu time   19.4240: real time   19.4083
    MIXING:  cpu time    0.8659: real time    0.8648
    --------------------------------------------
      LOOP:  cpu time  375.7129: real time  375.4093

 eigenvalue-minimisations  :   464
 total energy-change (2. order) : 0.6682200E-01  (-0.1008257E-01)
 number of electron      57.9999970 magnetization 
 augmentation part        2.5832141 magnetization 

 Broyden mixing:
  rms(total) = 0.56930E-01    rms(broyden)= 0.56902E-01
  rms(prec ) = 0.65264E-01
  weight for this iteration     100.00

 eigenvalues of (default mixing * dielectric matrix)
  average eigenvalue GAMMA=   1.5145
  2.2155  1.0489  1.0489  1.7449

 Free energy of the ion-electron system (eV)
  ---------------------------------------------------
  alpha Z        PSCENC =         0.51957394
  Ewald energy   TEWEN  =      6064.52822863
  -Hartree energ DENC   =     -8038.72395143
  -exchange      EXHF   =         0.00000000
  -V(xc)+E(xc)   XCENC  =       213.83952962
  PAW double counting   =      4811.94563634    -4823.23237161
  entropy T*S    EENTRO =         0.00000000
  eigenvalues    EBANDS =      -784.35218276
  atomic energy  EATOM  =      2425.98333211
  Solvation  Ediel_sol  =         0.00000000
  ---------------------------------------------------
  free energy    TOTEN  =      -129.49220517 eV

  energy without entropy =     -129.49220517  energy(sigma->0) =     -129.49220517


--------------------------------------------------------------------------------------------------------




----------------------------------------- Iteration    1(  10)  ---------------------------------------


    POTLOK:  cpu time   23.5864: real time   23.5675
    SETDIJ:  cpu time    0.0290: real time    0.0293
     EDDAV:  cpu time  322.2650: real time  322.0014
       DOS:  cpu time    0.0000: real time    0.0005
    CHARGE:  cpu time   19.0031: real time   18.9880
    MIXING:  cpu time    0.8639: real time    0.8636
    --------------------------------------------
      LOOP:  cpu time  365.7494: real time  365.4542

 eigenvalue-minimisations  :   440
 total energy-change (2. order) : 0.1039300E-01  (-0.2567474E-02)
 number of electron      57.9999971 magnetization 
 augmentation part        2.5901214 magnetization 

 Broyden mixing:
  rms(total) = 0.25851E-01    rms(broyden)= 0.25829E-01
  rms(prec ) = 0.35612E-01
  weight for this iteration     100.00

 eigenvalues of (default mixing * dielectric matrix)
  average eigenvalue GAMMA=   1.4847
  2.1745  2.1745  0.9502  0.9502  1.1741

 Free energy of the ion-electron system (eV)
  ---------------------------------------------------
  alpha Z        PSCENC =         0.51957394
  Ewald energy   TEWEN  =      6064.52822863
  -Hartree energ DENC   =     -8043.72357347
  -exchange      EXHF   =         0.00000000
  -V(xc)+E(xc)   XCENC  =       213.85214064
  PAW double counting   =      4805.56668225    -4816.80421139
  entropy T*S    EENTRO =         0.00000000
  eigenvalues    EBANDS =      -779.40398488
  atomic energy  EATOM  =      2425.98333211
  Solvation  Ediel_sol  =         0.00000000
  ---------------------------------------------------
  free energy    TOTEN  =      -129.48181218 eV

  energy without entropy =     -129.48181218  energy(sigma->0) =     -129.48181218


--------------------------------------------------------------------------------------------------------




----------------------------------------- Iteration    1(  11)  ---------------------------------------


    POTLOK:  cpu time   22.2966: real time   22.2790
    SETDIJ:  cpu time    0.0280: real time    0.0288
     EDDAV:  cpu time  318.2146: real time  317.9545
       DOS:  cpu time    0.0000: real time    0.0005
    CHARGE:  cpu time   19.1541: real time   19.1383
    MIXING:  cpu time    1.0218: real time    1.0207
    --------------------------------------------
      LOOP:  cpu time  360.7172: real time  360.4259

 eigenvalue-minimisations  :   440
 total energy-change (2. order) : 0.4797025E-02  (-0.7825473E-03)
 number of electron      57.9999971 magnetization 
 augmentation part        2.5857909 magnetization 

 Broyden mixing:
  rms(total) = 0.16060E-01    rms(broyden)= 0.16055E-01
  rms(prec ) = 0.24667E-01
  weight for this iteration     100.00

 eigenvalues of (default mixing * dielectric matrix)
  average eigenvalue GAMMA=   1.5519
  2.4755  2.4755  0.9439  0.9439  1.2362  1.2362

 Free energy of the ion-electron system (eV)
  ---------------------------------------------------
  alpha Z        PSCENC =         0.51957394
  Ewald energy   TEWEN  =      6064.52822863
  -Hartree energ DENC   =     -8049.51455161
  -exchange      EXHF   =         0.00000000
  -V(xc)+E(xc)   XCENC  =       213.95553659
  PAW double counting   =      4808.06984312    -4819.30578580
  entropy T*S    EENTRO =         0.00000000
  eigenvalues    EBANDS =      -773.71319213
  atomic energy  EATOM  =      2425.98333211
  Solvation  Ediel_sol  =         0.00000000
  ---------------------------------------------------
  free energy    TOTEN  =      -129.47701515 eV

  energy without entropy =     -129.47701515  energy(sigma->0) =     -129.47701515


--------------------------------------------------------------------------------------------------------




----------------------------------------- Iteration    1(  12)  ---------------------------------------


    POTLOK:  cpu time   22.5006: real time   22.4827
    SETDIJ:  cpu time    0.0290: real time    0.0292
     EDDAV:  cpu time  297.8367: real time  297.5951
       DOS:  cpu time    0.0000: real time    0.0005
    CHARGE:  cpu time   18.3892: real time   18.3747
    MIXING:  cpu time    0.9659: real time    0.9642
    --------------------------------------------
      LOOP:  cpu time  339.7244: real time  339.4505

 eigenvalue-minimisations  :   396
 total energy-change (2. order) :-0.1223163E-02  (-0.6161594E-03)
 number of electron      57.9999971 magnetization 
 augmentation part        2.5849740 magnetization 

 Broyden mixing:
  rms(total) = 0.97311E-02    rms(broyden)= 0.97267E-02
  rms(prec ) = 0.15636E-01
  weight for this iteration     100.00

 eigenvalues of (default mixing * dielectric matrix)
  average eigenvalue GAMMA=   1.6119
  2.7422  2.7422  1.4025  1.2309  1.2309  0.9674  0.9674

 Free energy of the ion-electron system (eV)
  ---------------------------------------------------
  alpha Z        PSCENC =         0.51957394
  Ewald energy   TEWEN  =      6064.52822863
  -Hartree energ DENC   =     -8056.46002810
  -exchange      EXHF   =         0.00000000
  -V(xc)+E(xc)   XCENC  =       214.04671760
  PAW double counting   =      4803.59400405    -4814.81997527
  entropy T*S    EENTRO =         0.00000000
  eigenvalues    EBANDS =      -766.87009127
  atomic energy  EATOM  =      2425.98333211
  Solvation  Ediel_sol  =         0.00000000
  ---------------------------------------------------
  free energy    TOTEN  =      -129.47823831 eV

  energy without entropy =     -129.47823831  energy(sigma->0) =     -129.47823831


--------------------------------------------------------------------------------------------------------




----------------------------------------- Iteration    1(  13)  ---------------------------------------


    POTLOK:  cpu time   22.4196: real time   22.4022
    SETDIJ:  cpu time    0.0290: real time    0.0296
     EDDAV:  cpu time  305.3516: real time  305.1014
       DOS:  cpu time    0.0000: real time    0.0005
    CHARGE:  cpu time   18.8791: real time   18.8635
    MIXING:  cpu time    1.1188: real time    1.1176
    --------------------------------------------
      LOOP:  cpu time  347.7991: real time  347.5185

 eigenvalue-minimisations  :   432
 total energy-change (2. order) :-0.6289328E-02  (-0.4225959E-03)
 number of electron      57.9999971 magnetization 
 augmentation part        2.5837505 magnetization 

 Broyden mixing:
  rms(total) = 0.57367E-02    rms(broyden)= 0.57317E-02
  rms(prec ) = 0.92883E-02
  weight for this iteration     100.00

 eigenvalues of (default mixing * dielectric matrix)
  average eigenvalue GAMMA=   1.7175
  4.1149  2.4999  1.6168  1.4810  1.0102  1.0102  1.0035  1.0035

 Free energy of the ion-electron system (eV)
  ---------------------------------------------------
  alpha Z        PSCENC =         0.51957394
  Ewald energy   TEWEN  =      6064.52822863
  -Hartree energ DENC   =     -8062.07677608
  -exchange      EXHF   =         0.00000000
  -V(xc)+E(xc)   XCENC  =       214.11167585
  PAW double counting   =      4797.67617815    -4808.90166287
  entropy T*S    EENTRO =         0.00000000
  eigenvalues    EBANDS =      -761.32507736
  atomic energy  EATOM  =      2425.98333211
  Solvation  Ediel_sol  =         0.00000000
  ---------------------------------------------------
  free energy    TOTEN  =      -129.48452764 eV

  energy without entropy =     -129.48452764  energy(sigma->0) =     -129.48452764


--------------------------------------------------------------------------------------------------------




----------------------------------------- Iteration    1(  14)  ---------------------------------------


    POTLOK:  cpu time   22.7805: real time   22.7627
    SETDIJ:  cpu time    0.0290: real time    0.0292
     EDDAV:  cpu time  309.0550: real time  308.8024
       DOS:  cpu time    0.0010: real time    0.0005
    CHARGE:  cpu time   18.3862: real time   18.3711
    MIXING:  cpu time    1.0828: real time    1.0824
    --------------------------------------------
      LOOP:  cpu time  351.3356: real time  351.0520

 eigenvalue-minimisations  :   416
 total energy-change (2. order) :-0.6473553E-02  (-0.1643110E-03)
 number of electron      57.9999971 magnetization 
 augmentation part        2.5831743 magnetization 

 Broyden mixing:
  rms(total) = 0.37030E-02    rms(broyden)= 0.37001E-02
  rms(prec ) = 0.56947E-02
  weight for this iteration     100.00

 eigenvalues of (default mixing * dielectric matrix)
  average eigenvalue GAMMA=   1.8282
  5.0445  2.4439  2.2044  1.2663  1.2663  1.2379  1.0396  0.9756  0.9756

 Free energy of the ion-electron system (eV)
  ---------------------------------------------------
  alpha Z        PSCENC =         0.51957394
  Ewald energy   TEWEN  =      6064.52822863
  -Hartree energ DENC   =     -8065.52328574
  -exchange      EXHF   =         0.00000000
  -V(xc)+E(xc)   XCENC  =       214.13473111
  PAW double counting   =      4792.25404413    -4803.47700700
  entropy T*S    EENTRO =         0.00000000
  eigenvalues    EBANDS =      -757.91061837
  atomic energy  EATOM  =      2425.98333211
  Solvation  Ediel_sol  =         0.00000000
  ---------------------------------------------------
  free energy    TOTEN  =      -129.49100119 eV

  energy without entropy =     -129.49100119  energy(sigma->0) =     -129.49100119


--------------------------------------------------------------------------------------------------------




----------------------------------------- Iteration    1(  15)  ---------------------------------------


    POTLOK:  cpu time   21.5917: real time   21.5750
    SETDIJ:  cpu time    0.0290: real time    0.0295
     EDDAV:  cpu time  282.0851: real time  281.8551
       DOS:  cpu time    0.0000: real time    0.0005
    CHARGE:  cpu time   19.6450: real time   19.6289
    MIXING:  cpu time    1.2858: real time    1.2843
    --------------------------------------------
      LOOP:  cpu time  324.6396: real time  324.4147

 eigenvalue-minimisations  :   398
 total energy-change (2. order) :-0.7627103E-02  (-0.7524447E-04)
 number of electron      57.9999971 magnetization 
 augmentation part        2.5830097 magnetization 

 Broyden mixing:
  rms(total) = 0.22714E-02    rms(broyden)= 0.22705E-02
  rms(prec ) = 0.34158E-02
  weight for this iteration     100.00

 eigenvalues of (default mixing * dielectric matrix)
  average eigenvalue GAMMA=   1.9305
  5.7139  2.8707  2.3970  1.8170  1.3616  1.0711  1.0711  0.9972  1.0029  1.0029

 Free energy of the ion-electron system (eV)
  ---------------------------------------------------
  alpha Z        PSCENC =         0.51957394
  Ewald energy   TEWEN  =      6064.52822863
  -Hartree energ DENC   =     -8067.24406334
  -exchange      EXHF   =         0.00000000
  -V(xc)+E(xc)   XCENC  =       214.13540176
  PAW double counting   =      4791.39188350    -4802.61348831
  entropy T*S    EENTRO =         0.00000000
  eigenvalues    EBANDS =      -756.19949659
  atomic energy  EATOM  =      2425.98333211
  Solvation  Ediel_sol  =         0.00000000
  ---------------------------------------------------
  free energy    TOTEN  =      -129.49862830 eV

  energy without entropy =     -129.49862830  energy(sigma->0) =     -129.49862830


--------------------------------------------------------------------------------------------------------




----------------------------------------- Iteration    1(  16)  ---------------------------------------


    POTLOK:  cpu time   22.7155: real time   22.6977
    SETDIJ:  cpu time    0.0290: real time    0.0290
     EDDAV:  cpu time  262.9300: real time  262.7152
       DOS:  cpu time    0.0000: real time    0.0005
    CHARGE:  cpu time   18.9411: real time   18.9259
    MIXING:  cpu time    1.3878: real time    1.3858
    --------------------------------------------
      LOOP:  cpu time  306.0045: real time  305.7582

 eigenvalue-minimisations  :   332
 total energy-change (2. order) :-0.6043567E-02  (-0.4925721E-04)
 number of electron      57.9999971 magnetization 
 augmentation part        2.5830817 magnetization 

 Broyden mixing:
  rms(total) = 0.12952E-02    rms(broyden)= 0.12948E-02
  rms(prec ) = 0.19253E-02
  weight for this iteration     100.00

 eigenvalues of (default mixing * dielectric matrix)
  average eigenvalue GAMMA=   1.9913
  6.4574  3.2455  2.3009  1.9997  1.4024  1.4024  1.0425  1.0425  1.0160  0.9975
  0.9975

 Free energy of the ion-electron system (eV)
  ---------------------------------------------------
  alpha Z        PSCENC =         0.51957394
  Ewald energy   TEWEN  =      6064.52822863
  -Hartree energ DENC   =     -8067.92905480
  -exchange      EXHF   =         0.00000000
  -V(xc)+E(xc)   XCENC  =       214.12590191
  PAW double counting   =      4791.72376836    -4802.94466090
  entropy T*S    EENTRO =         0.00000000
  eigenvalues    EBANDS =      -755.51176112
  atomic energy  EATOM  =      2425.98333211
  Solvation  Ediel_sol  =         0.00000000
  ---------------------------------------------------
  free energy    TOTEN  =      -129.50467186 eV

  energy without entropy =     -129.50467186  energy(sigma->0) =     -129.50467186


--------------------------------------------------------------------------------------------------------




----------------------------------------- Iteration    1(  17)  ---------------------------------------


    POTLOK:  cpu time   21.7857: real time   21.7686
    SETDIJ:  cpu time    0.0290: real time    0.0294
     EDDAV:  cpu time  245.5887: real time  245.3861
       DOS:  cpu time    0.0000: real time    0.0005
    CHARGE:  cpu time   19.1491: real time   19.1335
    MIXING:  cpu time    1.9057: real time    1.9036
    --------------------------------------------
      LOOP:  cpu time  288.4591: real time  288.2258

 eigenvalue-minimisations  :   334
 total energy-change (2. order) :-0.2804912E-02  (-0.1499784E-04)
 number of electron      57.9999971 magnetization 
 augmentation part        2.5829718 magnetization 

 Broyden mixing:
  rms(total) = 0.78386E-03    rms(broyden)= 0.78349E-03
  rms(prec ) = 0.11565E-02
  weight for this iteration     100.00

 eigenvalues of (default mixing * dielectric matrix)
  average eigenvalue GAMMA=   2.0541
  7.1882  3.7018  2.3441  2.3441  1.5275  1.5275  1.0556  1.0556  0.9409  0.9409
  1.0117  1.0117

 Free energy of the ion-electron system (eV)
  ---------------------------------------------------
  alpha Z        PSCENC =         0.51957394
  Ewald energy   TEWEN  =      6064.52822863
  -Hartree energ DENC   =     -8068.27482333
  -exchange      EXHF   =         0.00000000
  -V(xc)+E(xc)   XCENC  =       214.12198555
  PAW double counting   =      4791.61116440    -4802.83216512
  entropy T*S    EENTRO =         0.00000000
  eigenvalues    EBANDS =      -755.16477296
  atomic energy  EATOM  =      2425.98333211
  Solvation  Ediel_sol  =         0.00000000
  ---------------------------------------------------
  free energy    TOTEN  =      -129.50747678 eV

  energy without entropy =     -129.50747678  energy(sigma->0) =     -129.50747678


--------------------------------------------------------------------------------------------------------




----------------------------------------- Iteration    1(  18)  ---------------------------------------


    POTLOK:  cpu time   24.9992: real time   24.9808
    SETDIJ:  cpu time    0.0300: real time    0.0291
     EDDAV:  cpu time  243.4010: real time  243.2030
       DOS:  cpu time    0.0000: real time    0.0005
    CHARGE:  cpu time   18.6052: real time   18.5903
    MIXING:  cpu time    1.4688: real time    1.4665
    --------------------------------------------
      LOOP:  cpu time  288.5061: real time  288.2749

 eigenvalue-minimisations  :   302
 total energy-change (2. order) :-0.1494511E-02  (-0.1010940E-04)
 number of electron      57.9999971 magnetization 
 augmentation part        2.5829359 magnetization 

 Broyden mixing:
  rms(total) = 0.51697E-03    rms(broyden)= 0.51680E-03
  rms(prec ) = 0.73474E-03
  weight for this iteration     100.00

 eigenvalues of (default mixing * dielectric matrix)
  average eigenvalue GAMMA=   2.1006
  7.6303  4.2543  2.3805  2.3805  1.7589  1.4338  1.4338  1.0545  1.0545  0.9748
  0.9748  0.9882  0.9882

 Free energy of the ion-electron system (eV)
  ---------------------------------------------------
  alpha Z        PSCENC =         0.51957394
  Ewald energy   TEWEN  =      6064.52822863
  -Hartree energ DENC   =     -8068.41680873
  -exchange      EXHF   =         0.00000000
  -V(xc)+E(xc)   XCENC  =       214.11945459
  PAW double counting   =      4791.86403279    -4803.08493829
  entropy T*S    EENTRO =         0.00000000
  eigenvalues    EBANDS =      -755.02184632
  atomic energy  EATOM  =      2425.98333211
  Solvation  Ediel_sol  =         0.00000000
  ---------------------------------------------------
  free energy    TOTEN  =      -129.50897129 eV

  energy without entropy =     -129.50897129  energy(sigma->0) =     -129.50897129


--------------------------------------------------------------------------------------------------------




----------------------------------------- Iteration    1(  19)  ---------------------------------------


    POTLOK:  cpu time   21.9987: real time   21.9821
    SETDIJ:  cpu time    0.0290: real time    0.0292
     EDDAV:  cpu time  251.1878: real time  250.9828
       DOS:  cpu time    0.0000: real time    0.0005
    CHARGE:  cpu time   18.1262: real time   18.1108
    MIXING:  cpu time    1.5738: real time    1.5730
    --------------------------------------------
      LOOP:  cpu time  292.9175: real time  292.6825

 eigenvalue-minimisations  :   324
 total energy-change (2. order) :-0.8579737E-03  (-0.4414777E-05)
 number of electron      57.9999971 magnetization 
 augmentation part        2.5829179 magnetization 

 Broyden mixing:
  rms(total) = 0.31197E-03    rms(broyden)= 0.31183E-03
  rms(prec ) = 0.43899E-03
  weight for this iteration     100.00

 eigenvalues of (default mixing * dielectric matrix)
  average eigenvalue GAMMA=   2.1589
  8.1412  4.8297  2.6560  2.6560  1.7127  1.5894  1.5894  1.0708  1.0708  0.9499
  0.9774  0.9774  1.0020  1.0020

 Free energy of the ion-electron system (eV)
  ---------------------------------------------------
  alpha Z        PSCENC =         0.51957394
  Ewald energy   TEWEN  =      6064.52822863
  -Hartree energ DENC   =     -8068.48570223
  -exchange      EXHF   =         0.00000000
  -V(xc)+E(xc)   XCENC  =       214.11873376
  PAW double counting   =      4792.06390323    -4803.28485531
  entropy T*S    EENTRO =         0.00000000
  eigenvalues    EBANDS =      -754.95304340
  atomic energy  EATOM  =      2425.98333211
  Solvation  Ediel_sol  =         0.00000000
  ---------------------------------------------------
  free energy    TOTEN  =      -129.50982926 eV

  energy without entropy =     -129.50982926  energy(sigma->0) =     -129.50982926


--------------------------------------------------------------------------------------------------------




----------------------------------------- Iteration    1(  20)  ---------------------------------------


    POTLOK:  cpu time   20.6859: real time   20.6691
    SETDIJ:  cpu time    0.0290: real time    0.0287
     EDDAV:  cpu time  236.0071: real time  235.8141
       DOS:  cpu time    0.0000: real time    0.0006
    CHARGE:  cpu time   20.7388: real time   20.7220
    MIXING:  cpu time    1.7597: real time    1.7580
    --------------------------------------------
      LOOP:  cpu time  279.2226: real time  278.9979

 eigenvalue-minimisations  :   320
 total energy-change (2. order) :-0.4317650E-03  (-0.1952948E-05)
 number of electron      57.9999971 magnetization 
 augmentation part        2.5829124 magnetization 

 Broyden mixing:
  rms(total) = 0.21758E-03    rms(broyden)= 0.21752E-03
  rms(prec ) = 0.28224E-03
  weight for this iteration     100.00

 eigenvalues of (default mixing * dielectric matrix)
  average eigenvalue GAMMA=   2.1566
  8.2891  5.2303  2.7871  2.4647  2.1728  1.6095  1.2669  1.2669  1.1101  1.1101
  0.9993  0.9826  0.9826  1.0385  1.0385

 Free energy of the ion-electron system (eV)
  ---------------------------------------------------
  alpha Z        PSCENC =         0.51957394
  Ewald energy   TEWEN  =      6064.52822863
  -Hartree energ DENC   =     -8068.50812051
  -exchange      EXHF   =         0.00000000
  -V(xc)+E(xc)   XCENC  =       214.11764460
  PAW double counting   =      4791.73434375    -4802.95520645
  entropy T*S    EENTRO =         0.00000000
  eigenvalues    EBANDS =      -754.93005710
  atomic energy  EATOM  =      2425.98333211
  Solvation  Ediel_sol  =         0.00000000
  ---------------------------------------------------
  free energy    TOTEN  =      -129.51026103 eV

  energy without entropy =     -129.51026103  energy(sigma->0) =     -129.51026103


--------------------------------------------------------------------------------------------------------




----------------------------------------- Iteration    1(  21)  ---------------------------------------


    POTLOK:  cpu time   22.8695: real time   22.8512
    SETDIJ:  cpu time    0.0310: real time    0.0306
     EDDAV:  cpu time  272.0496: real time  271.8282
       DOS:  cpu time    0.0010: real time    0.0005
    CHARGE:  cpu time   19.3681: real time   19.3532
    MIXING:  cpu time    2.0057: real time    2.0034
    --------------------------------------------
      LOOP:  cpu time  316.3259: real time  316.0715

 eigenvalue-minimisations  :   350
 total energy-change (2. order) :-0.1733985E-03  (-0.6764741E-06)
 number of electron      57.9999971 magnetization 
 augmentation part        2.5829005 magnetization 

 Broyden mixing:
  rms(total) = 0.11551E-03    rms(broyden)= 0.11545E-03
  rms(prec ) = 0.16376E-03
  weight for this iteration     100.00

 eigenvalues of (default mixing * dielectric matrix)
  average eigenvalue GAMMA=   2.2296
  8.5169  5.8230  3.4466  2.6469  2.3493  1.6423  1.6423  1.3355  1.1610  1.1610
  1.0215  1.0215  1.0495  0.9336  0.9611  0.9611

 Free energy of the ion-electron system (eV)
  ---------------------------------------------------
  alpha Z        PSCENC =         0.51957394
  Ewald energy   TEWEN  =      6064.52822863
  -Hartree energ DENC   =     -8068.51481065
  -exchange      EXHF   =         0.00000000
  -V(xc)+E(xc)   XCENC  =       214.11743285
  PAW double counting   =      4791.83407697    -4803.05496788
  entropy T*S    EENTRO =         0.00000000
  eigenvalues    EBANDS =      -754.92330039
  atomic energy  EATOM  =      2425.98333211
  Solvation  Ediel_sol  =         0.00000000
  ---------------------------------------------------
  free energy    TOTEN  =      -129.51043443 eV

  energy without entropy =     -129.51043443  energy(sigma->0) =     -129.51043443


--------------------------------------------------------------------------------------------------------




----------------------------------------- Iteration    1(  22)  ---------------------------------------


    POTLOK:  cpu time   22.9085: real time   22.8910
    SETDIJ:  cpu time    0.0290: real time    0.0287
     EDDAV:  cpu time  216.3801: real time  216.2019
       DOS:  cpu time    0.0000: real time    0.0005
    CHARGE:  cpu time   16.9614: real time   16.9469
    MIXING:  cpu time    1.5738: real time    1.5731
    --------------------------------------------
      LOOP:  cpu time  257.8538: real time  257.6457

 eigenvalue-minimisations  :   280
 total energy-change (2. order) :-0.1401880E-03  (-0.3891585E-06)
 number of electron      57.9999971 magnetization 
 augmentation part        2.5829070 magnetization 

 Broyden mixing:
  rms(total) = 0.99354E-04    rms(broyden)= 0.99322E-04
  rms(prec ) = 0.11665E-03
  weight for this iteration     100.00

 eigenvalues of (default mixing * dielectric matrix)
  average eigenvalue GAMMA=   2.2180
  8.6208  6.1448  3.7260  2.4645  2.3810  2.0758  1.4502  1.2581  1.2581  1.2905
  1.0373  1.0373  1.0680  1.0680  0.9580  0.9580  0.9096

 Free energy of the ion-electron system (eV)
  ---------------------------------------------------
  alpha Z        PSCENC =         0.51957394
  Ewald energy   TEWEN  =      6064.52822863
  -Hartree energ DENC   =     -8068.52987339
  -exchange      EXHF   =         0.00000000
  -V(xc)+E(xc)   XCENC  =       214.11713908
  PAW double counting   =      4791.71385450    -4802.93473299
  entropy T*S    EENTRO =         0.00000000
  eigenvalues    EBANDS =      -754.90809649
  atomic energy  EATOM  =      2425.98333211
  Solvation  Ediel_sol  =         0.00000000
  ---------------------------------------------------
  free energy    TOTEN  =      -129.51057461 eV

  energy without entropy =     -129.51057461  energy(sigma->0) =     -129.51057461


--------------------------------------------------------------------------------------------------------




----------------------------------------- Iteration    1(  23)  ---------------------------------------


    POTLOK:  cpu time   18.9461: real time   18.9310
    SETDIJ:  cpu time    0.0280: real time    0.0287
     EDDAV:  cpu time  267.4873: real time  267.2691
       DOS:  cpu time    0.0000: real time    0.0005
    --------------------------------------------
      LOOP:  cpu time  286.4644: real time  286.3089

 eigenvalue-minimisations  :   360
 total energy-change (2. order) :-0.3362872E-04  (-0.9280876E-07)
 number of electron      57.9999971 magnetization 
 augmentation part        2.5829070 magnetization 

 Free energy of the ion-electron system (eV)
  ---------------------------------------------------
  alpha Z        PSCENC =         0.51957394
  Ewald energy   TEWEN  =      6064.52822863
  -Hartree energ DENC   =     -8068.53666478
  -exchange      EXHF   =         0.00000000
  -V(xc)+E(xc)   XCENC  =       214.11713011
  PAW double counting   =      4791.73830985    -4802.95916852
  entropy T*S    EENTRO =         0.00000000
  eigenvalues    EBANDS =      -754.90134957
  atomic energy  EATOM  =      2425.98333211
  Solvation  Ediel_sol  =         0.00000000
  ---------------------------------------------------
  free energy    TOTEN  =      -129.51060824 eV

  energy without entropy =     -129.51060824  energy(sigma->0) =     -129.51060824


--------------------------------------------------------------------------------------------------------




 average (electrostatic) potential at core
  the test charge radii are     0.5201  0.6991  0.7089  0.7215
  (the norm of the test charge is              1.0000)
       1 -42.2751       2 -42.5436       3 -42.5013       4 -44.7152       5 -42.2373
       6 -41.8883       7 -41.8445       8 -41.9839       9 -43.5818      10 -41.8041
      11 -41.7945      12 -42.1046      13 -59.0475      14 -61.3853      15 -59.8932
      16 -58.6183      17 -60.7669      18 -59.1930      19 -74.6853      20 -74.0153
      21 -79.8853      22 -79.3496
 
 
 
 E-fermi :  -4.4919     XC(G=0):  -0.1530     alpha+bet : -0.0465


 k-point     1 :       0.2500    0.2500    0.2500
  band No.  band energies     occupation 
      1     -26.1411      2.00000
      2     -25.5655      2.00000
      3     -23.3786      2.00000
      4     -22.7398      2.00000
      5     -19.5625      2.00000
      6     -18.2205      2.00000
      7     -17.5702      2.00000
      8     -15.7405      2.00000
      9     -14.9113      2.00000
     10     -14.0632      2.00000
     11     -13.1203      2.00000
     12     -12.2309      2.00000
     13     -12.0061      2.00000
     14     -11.3564      2.00000
     15     -11.0951      2.00000
     16     -10.7346      2.00000
     17     -10.2380      2.00000
     18     -10.1062      2.00000
     19      -9.9163      2.00000
     20      -9.5272      2.00000
     21      -9.3789      2.00000
     22      -9.1533      2.00000
     23      -9.0732      2.00000
     24      -8.7968      2.00000
     25      -8.5390      2.00000
     26      -6.7798      2.00000
     27      -6.1651      2.00000
     28      -5.8764      2.00000
     29      -5.4639      2.00000
     30      -1.0473      0.00000
     31      -0.8789      0.00000
     32      -0.5206      0.00000
     33      -0.3369      0.00000
     34      -0.1876      0.00000
     35      -0.0656      0.00000
     36       0.0163      0.00000
     37       0.1000      0.00000
     38       0.1069      0.00000
     39       0.1100      0.00000
     40       0.1573      0.00000
     41       0.1779      0.00000

 k-point     2 :      -0.2500    0.2500    0.2500
  band No.  band energies     occupation 
      1     -26.1411      2.00000
      2     -25.5655      2.00000
      3     -23.3786      2.00000
      4     -22.7398      2.00000
      5     -19.5625      2.00000
      6     -18.2205      2.00000
      7     -17.5702      2.00000
      8     -15.7405      2.00000
      9     -14.9113      2.00000
     10     -14.0632      2.00000
     11     -13.1203      2.00000
     12     -12.2309      2.00000
     13     -12.0061      2.00000
     14     -11.3564      2.00000
     15     -11.0951      2.00000
     16     -10.7346      2.00000
     17     -10.2380      2.00000
     18     -10.1063      2.00000
     19      -9.9163      2.00000
     20      -9.5272      2.00000
     21      -9.3790      2.00000
     22      -9.1533      2.00000
     23      -9.0732      2.00000
     24      -8.7968      2.00000
     25      -8.5390      2.00000
     26      -6.7798      2.00000
     27      -6.1651      2.00000
     28      -5.8764      2.00000
     29      -5.4639      2.00000
     30      -1.0474      0.00000
     31      -0.8789      0.00000
     32      -0.5206      0.00000
     33      -0.3369      0.00000
     34      -0.1877      0.00000
     35      -0.0666      0.00000
     36       0.0224      0.00000
     37       0.0879      0.00000
     38       0.1013      0.00000
     39       0.1173      0.00000
     40       0.1641      0.00000
     41       0.1716      0.00000

 k-point     3 :       0.2500   -0.2500    0.2500
  band No.  band energies     occupation 
      1     -26.1411      2.00000
      2     -25.5655      2.00000
      3     -23.3786      2.00000
      4     -22.7398      2.00000
      5     -19.5625      2.00000
      6     -18.2205      2.00000
      7     -17.5702      2.00000
      8     -15.7405      2.00000
      9     -14.9113      2.00000
[...]

 Free energy of the ion-electron system (eV)
  ---------------------------------------------------
  alpha Z        PSCENC =         0.51957394
  Ewald energy   TEWEN  =      6065.90189604
  -Hartree energ DENC   =     -8069.50189998
  -exchange      EXHF   =         0.00000000
  -V(xc)+E(xc)   XCENC  =       214.08955721
  PAW double counting   =      4788.32048524    -4799.53854836
  entropy T*S    EENTRO =         0.00000000
  eigenvalues    EBANDS =      -755.30676188
  atomic energy  EATOM  =      2425.98333211
  Solvation  Ediel_sol  =         0.00000000
  ---------------------------------------------------
  free energy    TOTEN  =      -129.53236569 eV

  energy without entropy =     -129.53236569  energy(sigma->0) =     -129.53236569


--------------------------------------------------------------------------------------------------------




 average (electrostatic) potential at core
  the test charge radii are     0.5201  0.6991  0.7089  0.7215
  (the norm of the test charge is              1.0000)
       1 -42.2816       2 -42.5311       3 -42.5036       4 -44.7166       5 -42.2636
       6 -41.8975       7 -41.8484       8 -41.9855       9 -43.6164      10 -41.8077
      11 -41.7958      12 -42.1094      13 -59.0483      14 -61.3881      15 -59.9125
      16 -58.6239      17 -60.7901      18 -59.2017      19 -74.6966      20 -74.0397
      21 -79.8715      22 -79.3730
 
 
 
 E-fermi :  -4.4757     XC(G=0):  -0.1342     alpha+bet : -0.0465


 k-point     1 :       0.2500    0.2500    0.2500
  band No.  band energies     occupation 
      1     -26.1333      2.00000
      2     -25.5985      2.00000
      3     -23.3900      2.00000
      4     -22.7484      2.00000
      5     -19.5589      2.00000
      6     -18.2094      2.00000
      7     -17.5663      2.00000
      8     -15.7695      2.00000
      9     -14.9139      2.00000
     10     -14.0894      2.00000
     11     -13.1341      2.00000
     12     -12.2385      2.00000
     13     -11.9963      2.00000
     14     -11.3496      2.00000
     15     -11.0964      2.00000
     16     -10.7319      2.00000
     17     -10.2205      2.00000
     18     -10.1180      2.00000
     19      -9.9141      2.00000
     20      -9.5504      2.00000
     21      -9.3922      2.00000
     22      -9.1520      2.00000
     23      -9.0726      2.00000
     24      -8.8226      2.00000
     25      -8.5621      2.00000
     26      -6.7768      2.00000
     27      -6.1561      2.00000
     28      -5.9092      2.00000
     29      -5.4822      2.00000
     30      -1.0589      0.00000
     31      -0.8727      0.00000
     32      -0.5039      0.00000
     33      -0.3299      0.00000
     34      -0.1984      0.00000
     35      -0.0718      0.00000
     36       0.0383      0.00000
     37       0.1226      0.00000
     38       0.1270      0.00000
     39       0.1313      0.00000
     40       0.1747      0.00000
     41       0.1926      0.00000

 k-point     2 :      -0.2500    0.2500    0.2500
  band No.  band energies     occupation 
      1     -26.1333      2.00000
      2     -25.5985      2.00000
      3     -23.3900      2.00000
      4     -22.7484      2.00000
      5     -19.5589      2.00000
      6     -18.2094      2.00000
      7     -17.5663      2.00000
      8     -15.7695      2.00000
      9     -14.9139      2.00000
     10     -14.0894      2.00000
     11     -13.1341      2.00000
     12     -12.2385      2.00000
     13     -11.9963      2.00000
     14     -11.3496      2.00000
     15     -11.0964      2.00000
     16     -10.7319      2.00000
     17     -10.2205      2.00000
     18     -10.1180      2.00000
     19      -9.9141      2.00000
     20      -9.5504      2.00000
     21      -9.3922      2.00000
     22      -9.1520      2.00000
     23      -9.0726      2.00000
     24      -8.8226      2.00000
     25      -8.5621      2.00000
     26      -6.7768      2.00000
     27      -6.1561      2.00000
     28      -5.9092      2.00000
     29      -5.4822      2.00000
     30      -1.0589      0.00000
     31      -0.8727      0.00000
     32      -0.5039      0.00000
     33      -0.3299      0.00000
     34      -0.1985      0.00000
     35      -0.0723      0.00000
     36       0.0438      0.00000
     37       0.1090      0.00000
     38       0.1210      0.00000
     39       0.1396      0.00000
     40       0.1839      0.00000
     41       0.1912      0.00000

 k-point     3 :       0.2500   -0.2500    0.2500
  band No.  band energies     occupation 
      1     -26.1333      2.00000
      2     -25.5985      2.00000
      3     -23.3900      2.00000
      4     -22.7484      2.00000
      5     -19.5589      2.00000
      6     -18.2094      2.00000
      7     -17.5663      2.00000
      8     -15.7695      2.00000
      9     -14.9139      2.00000
     10     -14.0894      2.00000
     11     -13.1341      2.00000
     12     -12.2385      2.00000
     13     -11.9963      2.00000
     14     -11.3496      2.00000
     15     -11.0964      2.00000
     16     -10.7319      2.00000
     17     -10.2205      2.00000
     18     -10.1180      2.00000
     19      -9.9141      2.00000
     20      -9.5504      2.00000
     21      -9.3922      2.00000
     22      -9.1520      2.00000
     23      -9.0726      2.00000
     24      -8.8226      2.00000
     25      -8.5621      2.00000
     26      -6.7769      2.00000
     27      -6.1561      2.00000
     28      -5.9092      2.00000
     29      -5.4822      2.00000
     30      -1.0589      0.00000
     31      -0.8727      0.00000
     32      -0.5039      0.00000
     33      -0.3299      0.00000
     34      -0.1985      0.00000
     35      -0.0717      0.00000
     36       0.0425      0.00000
     37       0.1043      0.00000
     38       0.1301      0.00000
     39       0.1368      0.00000
     40       0.1793      0.00000
     41       0.1944      0.00000

 k-point     4 :      -0.2500   -0.2500    0.2500
  band No.  band energies     occupation 
      1     -26.1333      2.00000
      2     -25.5985      2.00000
      3     -23.3900      2.00000
      4     -22.7484      2.00000
      5     -19.5589      2.00000
      6     -18.2094      2.00000
      7     -17.5663      2.00000
      8     -15.7695      2.00000
      9     -14.9139      2.00000
     10     -14.0894      2.00000
     11     -13.1341      2.00000
     12     -12.2385      2.00000
     13     -11.9963      2.00000
     14     -11.3496      2.00000
     15     -11.0964      2.00000
     16     -10.7319      2.00000
     17     -10.2205      2.00000
     18     -10.1180      2.00000
     19      -9.9141      2.00000
     20      -9.5504      2.00000
     21      -9.3922      2.00000
     22      -9.1520      2.00000
     23      -9.0726      2.00000
     24      -8.8226      2.00000
     25      -8.5621      2.00000
     26      -6.7768      2.00000
     27      -6.1561      2.00000
     28      -5.9092      2.00000
     29      -5.4823      2.00000
     30      -1.0589      0.00000
     31      -0.8727      0.00000
     32      -0.5039      0.00000
     33      -0.3299      0.00000
     34      -0.1985      0.00000
     35      -0.0724      0.00000
     36       0.0458      0.00000
     37       0.1073      0.00000
     38       0.1270      0.00000
     39       0.1306      0.00000
     40       0.1771      0.00000
     41       0.1964      0.00000


--------------------------------------------------------------------------------------------------------


 soft charge-density along one line, spin component           1
         0         1         2         3         4         5         6         7         8         9
 total charge-density along one line
 
 pseudopotential strength for first ion, spin component:           1
 -2.352  -4.054   0.002   0.000  -0.001
 -4.054  -6.903   0.005   0.000  -0.002
  0.002   0.005  -0.332   0.000  -0.002
  0.000   0.000   0.000  -0.336   0.000
 -0.001  -0.002  -0.002   0.000  -0.336
 total augmentation occupancy for first ion, spin component:           1
  3.531  -0.636  -0.406  -0.038   0.172
 -0.636   0.129   0.075   0.007  -0.031
 -0.406   0.075   0.048   0.004  -0.017
 -0.038   0.007   0.004   0.009  -0.002
  0.172  -0.031  -0.017  -0.002   0.015


------------------------ aborting loop because EDIFF is reached ----------------------------------------


    CHARGE:  cpu time   16.9624: real time   16.9487
    FORLOC:  cpu time    5.8061: real time    5.8014
    FORNL :  cpu time   61.9086: real time   61.8570
    STRESS:  cpu time  188.5183: real time  188.3630
    FORCOR:  cpu time   24.1643: real time   24.1439
    FORHAR:  cpu time   10.6584: real time   10.6492
    MIXING:  cpu time    0.7979: real time    0.7975
    OFIELD:  cpu time    0.0000: real time    0.0000

  FORCE on cell =-STRESS in cart. coord.  units (eV):
  Direction    XX          YY          ZZ          XY          YZ          ZX
  --------------------------------------------------------------------------------------
  Alpha Z     0.51957     0.51957     0.51957
  Ewald    2797.34917  2509.18517   759.36634    -8.35517   142.73824  -830.15993
  Hartree  3384.76788  3001.54406  1683.18984    -6.62420     0.51142  -681.28958
  E(xc)    -230.25246  -229.64000  -231.22381    -0.06397     0.95239    -0.65109
  Local   -6795.05416 -6105.34429 -3058.20293    14.13580  -109.67647  1501.26070
  n-local  -132.35107  -133.81845  -133.89279     0.32951    -2.43520     0.95633
  augment    14.79834    14.47264    14.08990    -0.12556    -1.02209     0.04117
  Kinetic   956.34504   939.64727   962.43394     0.57823   -30.86277     9.82795
  Fock        0.00000     0.00000     0.00000     0.00000     0.00000     0.00000
  -------------------------------------------------------------------------------------
  Total      -3.87770    -3.43403    -3.71993    -0.12536     0.20553    -0.01445
  in kB      -0.23010    -0.20378    -0.22074    -0.00744     0.01220    -0.00086
  external pressure =       -0.22 kB  Pullay stress =        0.00 kB


 VOLUME and BASIS-vectors are now :
 -----------------------------------------------------------------------------
  energy-cutoff  :      400.00
  volume of cell :    27000.00
      direct lattice vectors                 reciprocal lattice vectors
    30.000000000  0.000000000  0.000000000     0.033333333  0.000000000  0.000000000
     0.000000000 30.000000000  0.000000000     0.000000000  0.033333333  0.000000000
     0.000000000  0.000000000 30.000000000     0.000000000  0.000000000  0.033333333

  length of vectors
    30.000000000 30.000000000 30.000000000     0.033333333  0.033333333  0.033333333


 FORCES acting on ions
    electron-ion (+dipol)            ewald-force                    non-local-force                 convergence-correction
 -----------------------------------------------------------------------------------------------
   0.614E+02 -.608E+02 -.154E+01   -.636E+02 0.660E+02 0.201E+01   0.221E+01 -.519E+01 -.489E+00   0.254E-05 -.975E-05 -.171E-05
   0.512E+02 0.201E+02 0.633E+02   -.523E+02 -.220E+02 -.682E+02   0.117E+01 0.195E+01 0.500E+01   0.829E-06 0.773E-05 0.767E-05
   0.642E+02 0.372E+02 -.434E+02   -.666E+02 -.404E+02 0.471E+02   0.248E+01 0.321E+01 -.368E+01   -.151E-05 0.253E-05 -.993E-05
   0.582E+02 0.811E+02 0.554E+02   -.615E+02 -.865E+02 -.593E+02   0.329E+01 0.535E+01 0.393E+01   -.163E-04 0.216E-04 -.271E-05
   -.246E+02 -.667E+01 -.951E+02   0.253E+02 0.886E+01 0.100E+03   -.671E+00 -.220E+01 -.519E+01   -.115E-04 0.150E-04 -.181E-05
   -.704E+02 0.466E+02 -.303E+02   0.757E+02 -.474E+02 0.316E+02   -.536E+01 0.778E+00 -.139E+01   0.153E-05 0.285E-05 0.926E-06
   0.988E+00 0.700E+02 0.544E+02   -.142E+01 -.722E+02 -.595E+02   0.434E+00 0.218E+01 0.508E+01   -.137E-04 0.480E-05 -.172E-04
   0.270E+02 0.682E+02 -.510E+02   -.301E+02 -.710E+02 0.546E+02   0.315E+01 0.277E+01 -.356E+01   -.151E-04 0.171E-05 0.238E-05
   0.257E+02 -.681E+02 -.509E+02   -.308E+02 0.707E+02 0.555E+02   0.506E+01 -.257E+01 -.461E+01   -.915E-05 0.159E-04 -.691E-05
   -.860E+02 -.117E+02 0.127E+02   0.913E+02 0.996E+01 -.128E+02   -.536E+01 0.177E+01 0.103E+00   0.676E-05 0.168E-04 0.636E-06
   0.207E+01 -.327E+02 0.796E+02   -.377E+01 0.329E+02 -.849E+02   0.169E+01 -.143E+00 0.529E+01   0.926E-05 0.977E-05 0.602E-05
   -.166E+02 -.849E+02 -.127E+02   0.164E+02 0.901E+02 0.149E+02   0.181E+00 -.523E+01 -.214E+01   0.904E-05 0.697E-05 -.268E-05
   0.225E+03 -.742E+01 0.217E+02   -.225E+03 0.838E+01 -.218E+02   0.824E+00 -.960E+00 0.869E-01   -.608E-05 0.743E-05 -.245E-04
   0.182E+03 0.822E+00 0.267E+01   -.187E+03 -.396E+00 -.347E+01   0.495E+01 -.429E+00 0.798E+00   -.864E-04 -.126E-04 -.752E-04
   -.537E+02 0.871E+02 -.108E+03   0.593E+02 -.879E+02 0.110E+03   -.557E+01 0.812E+00 -.163E+01   -.906E-04 0.671E-04 -.392E-04
   -.502E+02 0.227E+03 -.527E+02   0.508E+02 -.228E+03 0.525E+02   -.530E+00 0.105E+01 0.242E+00   -.483E-04 0.274E-04 -.255E-04
   -.420E+02 0.166E+02 -.139E+02   0.392E+02 -.192E+02 0.164E+02   0.285E+01 0.259E+01 -.247E+01   -.445E-05 0.374E-04 -.849E-04
   -.127E+03 -.183E+03 0.954E+02   0.130E+03 0.186E+03 -.986E+02   -.319E+01 -.281E+01 0.327E+01   0.548E-04 0.692E-04 -.131E-04
   0.132E+03 0.163E+03 0.648E+02   -.129E+03 -.163E+03 -.651E+02   -.220E+01 0.224E+00 0.244E+00   -.142E-03 0.469E-04 -.646E-04
   -.646E+02 -.204E+03 -.469E+02   0.662E+02 0.206E+03 0.505E+02   -.157E+01 -.225E+01 -.358E+01   -.523E-05 0.590E-04 -.721E-04
   0.350E+02 -.328E+03 -.251E+03   -.166E+02 0.369E+03 0.277E+03   -.184E+02 -.407E+02 -.262E+02   -.125E-03 -.418E-04 -.593E-04
   -.284E+03 0.185E+03 0.302E+03   0.314E+03 -.210E+03 -.339E+03   -.300E+02 0.245E+02 0.366E+02   0.539E-04 0.634E-04 -.698E-04
 -----------------------------------------------------------------------------------------------
   0.446E+02 0.154E+02 -.565E+01   0.000E+00 -.284E-13 -.568E-13   -.446E+02 -.154E+02 0.568E+01   -.437E-03 0.419E-03 -.554E-03
 
 
 POSITION                                       TOTAL-FORCE (eV/Angst)
 -----------------------------------------------------------------------------------
     11.37873     16.29620     15.38660         0.007799      0.006653     -0.013508
     11.59348     14.88844     14.29708         0.005103     -0.004606     -0.001447
     11.32035     14.63911     16.03733        -0.000735      0.013298     -0.000245
     13.57258     13.56487     14.61824         0.004914      0.004435     -0.006765
     15.56926     14.53477     16.50529         0.001110     -0.006649      0.003947
     16.83449     12.48425     15.78481        -0.000226     -0.005155     -0.000072
     15.66888     12.19804     14.49189         0.002212     -0.000941     -0.002468
     15.14572     12.08461     16.20863        -0.000774     -0.006335     -0.003404
     15.64829     16.60435     15.38534        -0.002447     -0.003395      0.003880
     18.20744     16.79348     13.92176        -0.008644      0.004431     -0.007436
     16.81575     17.16641     12.88409        -0.014657      0.001801      0.001919
     17.11249     18.14164     14.35733        -0.006477      0.001832      0.000848
     11.80814     15.29256     15.29722         0.004242      0.004120     -0.004480
     13.29434     15.36161     15.58362         0.002131     -0.002414      0.000506
     15.44086     14.10782     15.49666         0.001824     -0.003199      0.002865
     15.78506     12.62719     15.49768         0.000552     -0.004057     -0.001230
     16.37156     14.89720     14.53646         0.006817     -0.004213      0.001502
     17.16145     17.13269     13.93008        -0.008600      0.001534     -0.000322
     14.02856     14.29746     15.15610         0.002933     -0.000327      0.001431
     16.35611     16.23742     14.73986        -0.002987      0.001098      0.004662
     13.81165     16.31072     16.19911         0.002395     -0.002921      0.008555
     17.07482     14.33923     13.68472         0.003514      0.005011      0.011261
 -----------------------------------------------------------------------------------
    total drift:                               -0.011343      0.000187      0.023710


--------------------------------------------------------------------------------------------------------



  FREE ENERGIE OF THE ION-ELECTRON SYSTEM (eV)
  ---------------------------------------------------
  free  energy   TOTEN  =      -129.53236569 eV

  energy  without entropy=     -129.53236569  energy(sigma->0) =     -129.53236569
 
 d Force = 0.1202435E-04[ 0.118E-04, 0.122E-04]  d Energy = 0.1209957E-04-0.752E-07
 d Force =-0.5496393E-02[-0.549E-02,-0.550E-02]  d Ewald  =-0.5496393E-02 0.119E-09


--------------------------------------------------------------------------------------------------------


    POTLOK:  cpu time   22.0656: real time   22.0482


--------------------------------------------------------------------------------------------------------


 NEB: the previous image is higher in energy: T
 NEB: the next image is higher in energy    : T
 NEB: image is at an extrema
 NEB: diff energy (min, max):     0.000812    0.001661

 NEB: Tangent
 ----------------------------------------------
     -0.01665     -0.03659     -0.05013
      0.00267      0.00263     -0.09803
     -0.03658     -0.05885     -0.11233
      0.00731      0.03716     -0.18964
     -0.06025     -0.14547     -0.03619
     -0.03267     -0.07027     -0.19364
      0.01245      0.05919     -0.25888
     -0.04739     -0.10892     -0.29236
     -0.02334     -0.03695      0.16536
      0.05869      0.11879      0.35908
      0.13758      0.16680      0.27563
     -0.00469      0.06366      0.36613
     -0.01742     -0.03438     -0.07867
     -0.02452     -0.05281     -0.03672
     -0.02161     -0.04368     -0.08102
     -0.02255     -0.04100     -0.21498
      0.01995      0.04698      0.03935
      0.05204      0.09729      0.29804
     -0.00843     -0.00856     -0.11471
      0.00527      0.02487      0.16333
     -0.04497     -0.10861      0.06468
      0.06505      0.12865      0.02566

 NEB: forces: par spring, perp REAL, dneb     0.004177    0.041550    0.000000
 NEB: distance to prev, next image, angle between     1.331593    1.330758  170.356725
 NEB: projections on to tangent (spring, REAL)    -0.004177    0.004714

 stress matrix after NEB project (eV)
     -3.87770     -0.12536     -0.01445
     -0.12536     -3.43403      0.20553
     -0.01445      0.20553     -3.71993
  FORCES: max atom, RMS     0.016807    0.008903
  FORCE total and by dimension    0.041760    0.015880
  Stress total and by dimension    6.386183    3.877696
 OPT: skip step - force has converged


--------------------------------------------------------------------------------------------------------


  
 reached required accuracy - stopping structural energy minimisation
     LOOP+:  cpu time 1818.7015: real time 1817.2370
    4ORBIT:  cpu time    0.0000: real time    0.0000

 total amount of memory used by VASP on root node  4333706. kBytes
========================================================================

   base      :      30000. kBytes
   nonlr-proj:       2401. kBytes
   fftplans  :     924480. kBytes
   grid      :    2089440. kBytes
   one-center:         67. kBytes
   wavefun   :    1287318. kBytes
 
  
  
 General timing and accounting informations for this job:
 ========================================================
  
                  Total CPU time used (sec):   226693.141
                            User time (sec):   225244.803
                          System time (sec):     1448.344
                         Elapsed time (sec):   226579.129
  
                   Maximum memory used (kb):     5900632.
                   Average memory used (kb):           0.
  
                          Minor page faults:    318200507
                          Major page faults:            6
                 Voluntary context switches:        13682
