unknown system                          
           1
    30.000000    0.000000    0.000000
     0.000000   30.000000    0.000000
     0.000000    0.000000   30.000000
   H    C    N    O 
  12   6   2   2
Direct configuration=     1
   0.37756210  0.54166946  0.51572423
   0.38478362  0.49704834  0.47665262
   0.37731971  0.48518353  0.53431340
   0.45103044  0.45046084  0.48831487
   0.51792713  0.48577315  0.54856913
   0.56140603  0.41778417  0.52512980
   0.52217351  0.40734077  0.48254553
   0.50535827  0.40337874  0.53996555
   0.52181895  0.55338281  0.51251001
   0.60907554  0.55936869  0.46844109
   0.56535006  0.57316055  0.43083399
   0.57225831  0.60452979  0.48117030
   0.39242939  0.50873809  0.51052706
   0.44221418  0.51171241  0.51822039
   0.51382946  0.47074857  0.51527861
   0.52618844  0.42170681  0.51599894
   0.54490295  0.49689336  0.48303576
   0.57442290  0.57119088  0.46633945
   0.46655584  0.47601083  0.50432818
   0.54532394  0.54135677  0.49080479
   0.45996763  0.54420034  0.53689563
   0.56810174  0.47836373  0.45439751
Direct configuration=     2
   0.37756538  0.54167566  0.51571406
   0.38475398  0.49703774  0.47663695
   0.37733953  0.48520652  0.53430105
   0.45104235  0.45047518  0.48832577
   0.51795316  0.48575824  0.54858772
   0.56138157  0.41776789  0.52514774
   0.52218765  0.40728921  0.48254858
   0.50537941  0.40339240  0.53997757
   0.52180915  0.55340845  0.51250158
   0.60906858  0.55937035  0.46839006
   0.56533901  0.57315406  0.43079349
   0.57225440  0.60453696  0.48113891
   0.39243172  0.50873875  0.51053617
   0.44222538  0.51171805  0.51823536
   0.51383132  0.47075285  0.51529331
   0.52619431  0.42167603  0.51600147
   0.54491240  0.49690919  0.48304087
   0.57440788  0.57119124  0.46633443
   0.46656675  0.47604545  0.50432574
   0.54532123  0.54134044  0.49082639
   0.45995720  0.54421083  0.53691857
   0.56807778  0.47834715  0.45442105
Direct configuration=     3
   0.37757067  0.54168377  0.51569951
   0.38471542  0.49702680  0.47662813
   0.37736111  0.48522969  0.53429393
   0.45106221  0.45050297  0.48834412
   0.51799012  0.48573509  0.54861602
   0.56135875  0.41774207  0.52517543
   0.52220825  0.40721563  0.48255485
   0.50540300  0.40340423  0.53999994
   0.52179336  0.55344133  0.51249097
   0.60905608  0.55937396  0.46831968
   0.56532424  0.57314412  0.43075165
   0.57224760  0.60454944  0.48109764
   0.39243975  0.50874596  0.51052294
   0.44222927  0.51173284  0.51825541
   0.51384174  0.47075045  0.51530870
   0.52619220  0.42165091  0.51599234
   0.54490356  0.49691405  0.48307206
   0.57438367  0.57118574  0.46631221
   0.46658656  0.47607837  0.50431682
   0.54532870  0.54134845  0.49085197
   0.45994461  0.54422852  0.53695549
   0.56805929  0.47831827  0.45443702
Direct configuration=     4
   0.37757793  0.54169302  0.51568020
   0.38467222  0.49701700  0.47662915
   0.37738148  0.48524986  0.53429476
   0.45108729  0.45054062  0.48836603
   0.51803532  0.48570128  0.54865185
   0.56134254  0.41770693  0.52521076
   0.52223379  0.40712420  0.48256376
   0.50542393  0.40341027  0.54003199
   0.52177198  0.55347985  0.51247931
   0.60903627  0.55938013  0.46823514
   0.56530445  0.57313041  0.43071694
   0.57223799  0.60456425  0.48104823
   0.39245203  0.50876149  0.51048413
   0.44222857  0.51175759  0.51827534
   0.51386121  0.47073873  0.51532397
   0.52618160  0.42163805  0.51597133
   0.54488825  0.49689929  0.48311614
   0.57435534  0.57117956  0.46626901
   0.46661534  0.47611263  0.50430671
   0.54534607  0.54137810  0.49087903
   0.45992879  0.54424937  0.53700573
   0.56803775  0.47829002  0.45445732
Direct configuration=     5
   0.37758662  0.54170407  0.51565432
   0.38462681  0.49700663  0.47663217
   0.37740291  0.48527211  0.53429798
   0.45111366  0.45058150  0.48838544
   0.51808664  0.48565213  0.54869130
   0.56132977  0.41766384  0.52524929
   0.52226223  0.40701883  0.48257356
   0.50544043  0.40341090  0.54006785
   0.52174742  0.55352477  0.51246575
   0.60900859  0.55938928  0.46813966
   0.56527452  0.57311277  0.43068686
   0.57222643  0.60457618  0.48098864
   0.39246317  0.50878192  0.51043790
   0.44223479  0.51178933  0.51828758
   0.51388501  0.47072162  0.51534232
   0.52617017  0.42162871  0.51594979
   0.54488684  0.49688109  0.48315565
   0.57433058  0.57118368  0.46621360
   0.46664968  0.47616125  0.50430489
   0.54536537  0.54140050  0.49090748
   0.45990580  0.54426715  0.53706870
   0.56800271  0.47827440  0.45449611
Direct configuration=     6
   0.37759531  0.54171890  0.51562086
   0.38458155  0.49699317  0.47662570
   0.37742919  0.48530382  0.53429540
   0.45114088  0.45062563  0.48840057
   0.51814160  0.48558559  0.54873071
   0.56131409  0.41761631  0.52528524
   0.52229073  0.40690774  0.48258443
   0.50545317  0.40340932  0.54009817
   0.52172561  0.55357302  0.51244723
   0.60897714  0.55940113  0.46803794
   0.56522904  0.57309236  0.43065228
   0.57221411  0.60458427  0.48091954
   0.39247014  0.50880034  0.51040862
   0.44225161  0.51182431  0.51828779
   0.51390772  0.47070867  0.51536654
   0.52616641  0.42160502  0.51594239
   0.54489584  0.49689050  0.48319941
   0.57431063  0.57119835  0.46616307
   0.46668318  0.47622082  0.50431158
   0.54537907  0.54139789  0.49093719
   0.45987553  0.54428097  0.53714349
   0.56796761  0.47826456  0.45453866
Direct configuration=     7
   0.37760353  0.54174217  0.51557507
   0.38453597  0.49697553  0.47660703
   0.37746352  0.48535046  0.53428651
   0.45117517  0.45068584  0.48841477
   0.51820439  0.48549333  0.54877728
   0.56129407  0.41756127  0.52531976
   0.52232015  0.40678858  0.48260418
   0.50546115  0.40340533  0.54012128
   0.52171117  0.55362349  0.51241791
   0.60894501  0.55941633  0.46792185
   0.56515593  0.57306721  0.43060448
   0.57219939  0.60459597  0.48083646
   0.39247675  0.50881543  0.51039704
   0.44227137  0.51186706  0.51827859
   0.51393051  0.47070263  0.51539791
   0.52617164  0.42155465  0.51595176
   0.54490735  0.49692325  0.48326083
   0.57428350  0.57120913  0.46612066
   0.46671648  0.47627779  0.50432000
   0.54538965  0.54139649  0.49097053
   0.45983812  0.54429630  0.53723930
   0.56794536  0.47825443  0.45457364
Direct configuration=     8
   0.37761119  0.54177410  0.51551634
   0.38449871  0.49695888  0.47659147
   0.37749947  0.48540310  0.53428555
   0.45121498  0.45076196  0.48842377
   0.51827249  0.48537859  0.54884291
   0.56128213  0.41749799  0.52535602
   0.52234838  0.40667156  0.48264419
   0.50545568  0.40339220  0.54014292
   0.52170376  0.55367370  0.51238162
   0.60891716  0.55943314  0.46779203
   0.56504861  0.57303498  0.43055097
   0.57218095  0.60462061  0.48074240
   0.39249098  0.50883671  0.51037114
   0.44228213  0.51191956  0.51827642
   0.51395826  0.47068987  0.51542824
   0.52617724  0.42149315  0.51596390
   0.54493107  0.49692442  0.48331651
   0.57423464  0.57119838  0.46607225
   0.46675506  0.47632405  0.50432989
   0.54540848  0.54144102  0.49100231
   0.45979740  0.54431304  0.53735030
   0.56793141  0.47826168  0.45461567
Direct configuration=     9
   0.37762012  0.54181062  0.51544317
   0.38448014  0.49694629  0.47659010
   0.37753321  0.48545786  0.53430307
   0.45125018  0.45083701  0.48841365
   0.51834248  0.48524734  0.54893251
   0.56128935  0.41742526  0.52539979
   0.52237089  0.40656201  0.48270529
   0.50542902  0.40336315  0.54017196
   0.52169213  0.55373339  0.51235281
   0.60888736  0.55945035  0.46764486
   0.56490019  0.57299059  0.43050010
   0.57215977  0.60465104  0.48062810
   0.39251172  0.50887773  0.51030977
   0.44229335  0.51196954  0.51829802
   0.51399712  0.47064899  0.51545839
   0.52617417  0.42144753  0.51597950
   0.54495638  0.49692435  0.48337656
   0.57417271  0.57119198  0.46599060
   0.46680227  0.47638552  0.50435782
   0.54543886  0.54147374  0.49102217
   0.45975487  0.54432648  0.53746544
   0.56794389  0.47828196  0.45465312
Direct configuration=    10
   0.37763095  0.54185461  0.51535261
   0.38448545  0.49693004  0.47657966
   0.37757506  0.48553890  0.53431949
   0.45128752  0.45092397  0.48839013
   0.51841114  0.48510061  0.54902967
   0.56130008  0.41734683  0.52545251
   0.52238092  0.40646147  0.48277470
   0.50538626  0.40332485  0.54020665
   0.52168656  0.55379995  0.51232676
   0.60883584  0.55947131  0.46746898
   0.56470089  0.57292966  0.43043683
   0.57213480  0.60467121  0.48047830
   0.39253021  0.50892507  0.51026726
   0.44231323  0.51200154  0.51834351
   0.51404938  0.47060895  0.51551814
   0.52617482  0.42140839  0.51602732
   0.54499282  0.49694333  0.48343067
   0.57412929  0.57121449  0.46587320
   0.46684010  0.47643647  0.50439452
   0.54544685  0.54145088  0.49105174
   0.45972006  0.54434966  0.53758629
   0.56798793  0.47831055  0.45468787
Direct configuration=    11
   0.37764297  0.54191285  0.51523974
   0.38452417  0.49690596  0.47654666
   0.37761892  0.48565377  0.53432030
   0.45132892  0.45102851  0.48833854
   0.51847211  0.48494421  0.54913176
   0.56129541  0.41726153  0.52550214
   0.52237595  0.40638901  0.48283422
   0.50533706  0.40328113  0.54022151
   0.52169180  0.55385160  0.51231479
   0.60876749  0.55950140  0.46727987
   0.56445671  0.57286360  0.43036330
   0.57209958  0.60469662  0.48032257
   0.39255613  0.50895755  0.51026481
   0.44233887  0.51203062  0.51841105
   0.51409367  0.47059531  0.51558866
   0.52618471  0.42134276  0.51609416
   0.54505390  0.49690098  0.48346757
   0.57406284  0.57120774  0.46577779
   0.46688500  0.47645554  0.50444007
   0.54546082  0.54149536  0.49108717
   0.45969482  0.54436193  0.53771087
   0.56805832  0.47836479  0.45473926
Direct configuration=    12
   0.37764475  0.54191239  0.51523611
   0.38453224  0.49690637  0.47655030
   0.37761307  0.48565195  0.53432366
   0.45132862  0.45102777  0.48833012
   0.51847058  0.48494720  0.54913401
   0.56129526  0.41725903  0.52550164
   0.52237393  0.40639585  0.48283134
   0.50533580  0.40327851  0.54021800
   0.52169035  0.55384984  0.51232164
   0.60876767  0.55950212  0.46728058
   0.56445369  0.57286446  0.43036755
   0.57209785  0.60469759  0.48032498
   0.39256014  0.50896092  0.51025569
   0.44234031  0.51202666  0.51841111
   0.51409293  0.47058761  0.51558326
   0.52618135  0.42134356  0.51608731
   0.54504801  0.49692137  0.48348332
   0.57405297  0.57120819  0.46578058
   0.46688674  0.47645900  0.50444603
   0.54546496  0.54148426  0.49108480
   0.45969808  0.54435870  0.53771272
   0.56807089  0.47835943  0.45473203
Direct configuration=    13
   0.37764869  0.54191232  0.51522875
   0.38454861  0.49690655  0.47655621
   0.37760262  0.48565094  0.53432928
   0.45132947  0.45102868  0.48831588
   0.51846766  0.48495328  0.54913756
   0.56129399  0.41725452  0.52550215
   0.52236944  0.40640865  0.48282662
   0.50533355  0.40327445  0.54021308
   0.52169001  0.55384525  0.51233241
   0.60876552  0.55950343  0.46727780
   0.56444524  0.57286449  0.43037297
   0.57209370  0.60469895  0.48032642
   0.39256782  0.50896612  0.51024246
   0.44234342  0.51202101  0.51841238
   0.51409223  0.47057687  0.51557671
   0.52617606  0.42134446  0.51607717
   0.54504610  0.49694529  0.48350108
   0.57403595  0.57120754  0.46578290
   0.46688863  0.47646103  0.50445641
   0.54546915  0.54147089  0.49108348
   0.45970504  0.54435294  0.53771622
   0.56808729  0.47835509  0.45472888
Direct configuration=    14
   0.37764924  0.54191265  0.51522795
   0.38455032  0.49690628  0.47655616
   0.37760213  0.48565191  0.53432929
   0.45133008  0.45102960  0.48831538
   0.51846745  0.48495388  0.54913751
   0.56129347  0.41725424  0.52550273
   0.52236884  0.40640956  0.48282645
   0.50533342  0.40327446  0.54021332
   0.52169081  0.55384441  0.51233251
   0.60876432  0.55950353  0.46727599
   0.56444347  0.57286387  0.43037229
   0.57209303  0.60469884  0.48032531
   0.39256836  0.50896603  0.51024327
   0.44234389  0.51202128  0.51841295
   0.51409248  0.47057757  0.51557765
   0.52617606  0.42134433  0.51607759
   0.54504880  0.49694204  0.48349866
   0.57403531  0.57120701  0.46578195
   0.46688828  0.47645951  0.50445688
   0.54546820  0.54147255  0.49108445
   0.45970591  0.54435265  0.53771650
   0.56808630  0.47835655  0.45473201
Direct configuration=    15
   0.37765040  0.54191342  0.51522649
   0.38455377  0.49690577  0.47655635
   0.37760125  0.48565399  0.53432963
   0.45133123  0.45103126  0.48831487
   0.51846721  0.48495550  0.54913760
   0.56129252  0.41725382  0.52550451
   0.52236758  0.40641115  0.48282694
   0.50533325  0.40327477  0.54021471
   0.52169240  0.55384295  0.51233233
   0.60876182  0.55950345  0.46727120
   0.56443945  0.57286214  0.43037002
   0.57209173  0.60469847  0.48032191
   0.39256950  0.50896599  0.51024502
   0.44234491  0.51202188  0.51841419
   0.51409303  0.47057895  0.51557971
   0.52617607  0.42134418  0.51607911
   0.54505360  0.49693612  0.48349450
   0.57403379  0.57120577  0.46577913
   0.46688771  0.47645671  0.50445829
   0.54546652  0.54147541  0.49108572
   0.45970779  0.54435238  0.53771693
   0.56808465  0.47835868  0.45473765
Direct configuration=    16
   0.37765219  0.54191466  0.51522440
   0.38455898  0.49690503  0.47655693
   0.37759999  0.48565719  0.53433047
   0.45133281  0.45103342  0.48831445
   0.51846703  0.48495835  0.54913796
   0.56129121  0.41725330  0.52550777
   0.52236566  0.40641335  0.48282843
   0.50533305  0.40327547  0.54021759
   0.52169458  0.55384102  0.51233186
   0.60875803  0.55950305  0.46726294
   0.56443299  0.57285909  0.43036578
   0.57208984  0.60469779  0.48031572
   0.39257127  0.50896612  0.51024766
   0.44234654  0.51202277  0.51841614
   0.51409389  0.47058080  0.51558283
   0.52617603  0.42134410  0.51608202
   0.54505944  0.49692881  0.48348993
   0.57403120  0.57120385  0.46577412
   0.46688709  0.47645302  0.50446096
   0.54546448  0.54147872  0.49108670
   0.45971073  0.54435227  0.53771749
   0.56808317  0.47836057  0.45474466
Direct configuration=    17
   0.37765464  0.54191641  0.51522178
   0.38456591  0.49690410  0.47655809
   0.37759837  0.48566149  0.53433200
   0.45133468  0.45103578  0.48831422
   0.51846702  0.48496264  0.54913875
   0.56128964  0.41725273  0.52551274
   0.52236307  0.40641601  0.48283130
   0.50533285  0.40327666  0.54022233
   0.52169708  0.55383888  0.51233114
   0.60875302  0.55950217  0.46725081
   0.56442392  0.57285455  0.43035922
   0.57208741  0.60469674  0.48030623
   0.39257371  0.50896661  0.51025106
   0.44234880  0.51202378  0.51841879
   0.51409504  0.47058281  0.51558687
   0.52617589  0.42134420  0.51608658
   0.54506497  0.49692182  0.48348666
   0.57402731  0.57120132  0.46576661
   0.46688665  0.47644898  0.50446527
   0.54546254  0.54148149  0.49108665
   0.45971477  0.54435250  0.53771813
   0.56808292  0.47836110  0.45475159
Direct configuration=    18
   0.37765772  0.54191867  0.51521872
   0.38457443  0.49690302  0.47656000
   0.37759645  0.48566681  0.53433440
   0.45133666  0.45103802  0.48831428
   0.51846728  0.48496851  0.54914010
   0.56128794  0.41725215  0.52551962
   0.52235986  0.40641901  0.48283586
   0.50533269  0.40327841  0.54022923
   0.52169965  0.55383676  0.51233018
   0.60874692  0.55950068  0.46723454
   0.56441222  0.57284840  0.43035008
   0.57208452  0.60469528  0.48029312
   0.39257680  0.50896759  0.51025506
   0.44235165  0.51202478  0.51842208
   0.51409644  0.47058470  0.51559167
   0.52617562  0.42134456  0.51609300
   0.54506901  0.49691661  0.48348604
   0.57402197  0.57119827  0.46575640
   0.46688662  0.47644514  0.50447150
   0.54546116  0.54148283  0.49108494
   0.45971989  0.54435321  0.53771880
   0.56808469  0.47835938  0.45475721
Direct configuration=    19
   0.37766143  0.54192145  0.51521533
   0.38458443  0.49690183  0.47656281
   0.37759428  0.48567307  0.53433780
   0.45133866  0.45103994  0.48831478
   0.51846790  0.48497605  0.54914212
   0.56128624  0.41725161  0.52552852
   0.52235606  0.40642223  0.48284242
   0.50533258  0.40328080  0.54023852
   0.52170213  0.55383485  0.51232894
   0.60873983  0.55949846  0.46721394
   0.56439789  0.57284055  0.43033818
   0.57208123  0.60469338  0.48027611
   0.39258051  0.50896917  0.51025947
   0.44235506  0.51202570  0.51842607
   0.51409808  0.47058627  0.51559714
   0.52617522  0.42134527  0.51610139
   0.54507103  0.49691387  0.48348861
   0.57401512  0.57119469  0.46574330
   0.46688713  0.47644189  0.50447980
   0.54546057  0.54148221  0.49108118
   0.45972606  0.54435455  0.53771943
   0.56808877  0.47835494  0.45476097
Direct configuration=    20
   0.37766629  0.54192513  0.51521110
   0.38459725  0.49690037  0.47656695
   0.37759154  0.48568100  0.53434270
   0.45134089  0.45104167  0.48831559
   0.51846897  0.48498623  0.54914516
   0.56128441  0.41725097  0.52554053
   0.52235122  0.40642615  0.48285182
   0.50533244  0.40328409  0.54025130
   0.52170466  0.55383300  0.51232745
   0.60873091  0.55949521  0.46718646
   0.56437904  0.57283003  0.43032214
   0.57207707  0.60469083  0.48025312
   0.39258534  0.50897165  0.51026457
   0.44235946  0.51202650  0.51843129
   0.51410011  0.47058748  0.51560383
   0.52617455  0.42134648  0.51611267
   0.54507108  0.49691378  0.48349495
   0.57400575  0.57119023  0.46572570
   0.46688839  0.47643915  0.50449133
   0.54546089  0.54147909  0.49107476
   0.45973406  0.54435664  0.53772015
   0.56809588  0.47834711  0.45476324
Direct configuration=    21
   0.37767264  0.54192992  0.51520573
   0.38461367  0.49689857  0.47657273
   0.37758804  0.48569095  0.53434941
   0.45134354  0.45104333  0.48831658
   0.51847055  0.48499949  0.54914948
   0.56128245  0.41725009  0.52555611
   0.52234513  0.40643109  0.48286456
   0.50533215  0.40328836  0.54026803
   0.52170740  0.55383111  0.51232577
   0.60871973  0.55949075  0.46715079
   0.56435460  0.57281633  0.43030137
   0.57207172  0.60468755  0.48022313
   0.39259156  0.50897525  0.51027025
   0.44236508  0.51202712  0.51843820
   0.51410261  0.47058824  0.51561205
   0.52617354  0.42134829  0.51612714
   0.54507005  0.49691569  0.48350437
   0.57399326  0.57118470  0.46570268
   0.46689050  0.47643695  0.50450659
   0.54546200  0.54147333  0.49106557
   0.45974434  0.54435948  0.53772106
   0.56810565  0.47833618  0.45476521
Direct configuration=    22
   0.37768092  0.54193615  0.51519869
   0.38463465  0.49689624  0.47658035
   0.37758358  0.48570345  0.53435812
   0.45134712  0.45104553  0.48831764
   0.51847267  0.48501612  0.54915531
   0.56128032  0.41724873  0.52557566
   0.52233756  0.40643754  0.48288102
   0.50533148  0.40329367  0.54028902
   0.52171085  0.55382882  0.51232380
   0.60870565  0.55948500  0.46710556
   0.56432325  0.57279896  0.43027546
   0.57206462  0.60468353  0.48018525
   0.39259947  0.50898019  0.51027654
   0.44237217  0.51202772  0.51844745
   0.51410571  0.47058881  0.51562242
   0.52617215  0.42135072  0.51614501
   0.54507074  0.49691654  0.48351369
   0.57397725  0.57117771  0.46567314
   0.46689332  0.47643469  0.50452570
   0.54546315  0.54146601  0.49105438
   0.45975729  0.54436291  0.53772236
   0.56811628  0.47832374  0.45477027
Direct configuration=    23
   0.37769160  0.54194420  0.51518937
   0.38466109  0.49689313  0.47658964
   0.37757805  0.48571906  0.53436867
   0.45135245  0.45104941  0.48831859
   0.51847530  0.48503596  0.54916265
   0.56127789  0.41724654  0.52559902
   0.52232838  0.40644605  0.48290108
   0.50533013  0.40329993  0.54031385
   0.52171587  0.55382543  0.51232139
   0.60868801  0.55947808  0.46705017
   0.56428386  0.57277774  0.43024457
   0.57205509  0.60467885  0.48013944
   0.39260933  0.50898638  0.51028362
   0.44238088  0.51202865  0.51845978
   0.51410960  0.47058991  0.51563571
   0.52617048  0.42135381  0.51616624
   0.54507684  0.49691161  0.48351856
   0.57395760  0.57116869  0.46563623
   0.46689637  0.47643098  0.50454793
   0.54546290  0.54145956  0.49104299
   0.45977323  0.54436655  0.53772444
   0.56812525  0.47831230  0.45478287
Direct configuration=    24
   0.37770525  0.54195454  0.51517679
   0.38469409  0.49688876  0.47660005
   0.37757136  0.48573862  0.53438053
   0.45136057  0.45105642  0.48831886
   0.51847840  0.48505853  0.54917136
   0.56127490  0.41724293  0.52562563
   0.52231744  0.40645733  0.48292409
   0.50532763  0.40330689  0.54034144
   0.52172320  0.55382006  0.51231879
   0.60866599  0.55947026  0.46698430
   0.56423494  0.57275268  0.43020906
   0.57204222  0.60467359  0.48008603
   0.39262148  0.50899353  0.51029203
   0.44239129  0.51203015  0.51847587
   0.51411461  0.47059235  0.51565262
   0.52616862  0.42135729  0.51619067
   0.54508926  0.49689857  0.48351821
   0.57393425  0.57115748  0.46559234
   0.46689931  0.47642428  0.50457231
   0.54546023  0.54145603  0.49103311
   0.45979253  0.54436995  0.53772812
   0.56813266  0.47830259  0.45480458
Direct configuration=    25
   0.37772298  0.54196796  0.51515910
   0.38473559  0.49688228  0.47661055
   0.37756331  0.48576353  0.53439273
   0.45137242  0.45106762  0.48831639
   0.51848203  0.48508316  0.54918136
   0.56127093  0.41723676  0.52565432
   0.52230449  0.40647256  0.48294850
   0.50532319  0.40331396  0.54036953
   0.52173250  0.55381194  0.51231785
   0.60863847  0.55946201  0.46690769
   0.56417385  0.57272398  0.43016941
   0.57202456  0.60466763  0.48002544
   0.39263642  0.50900147  0.51030255
   0.44240368  0.51203194  0.51849631
   0.51412125  0.47059643  0.51567346
   0.52616661  0.42136074  0.51621824
   0.54510191  0.49688309  0.48352172
   0.57390584  0.57114426  0.46554330
   0.46690279  0.47641458  0.50459848
   0.54545603  0.54145425  0.49102476
   0.45981580  0.54437224  0.53773527
   0.56814556  0.47829045  0.45482983
Direct configuration=    26
   0.37774516  0.54198448  0.51513501
   0.38478583  0.49687318  0.47661999
   0.37755370  0.48579377  0.53440423
   0.45138723  0.45108157  0.48830775
   0.51848607  0.48510837  0.54919282
   0.56126586  0.41722699  0.52568267
   0.52228982  0.40649224  0.48297150
   0.50531601  0.40332009  0.54039460
   0.52174130  0.55380183  0.51232201
   0.60860574  0.55945404  0.46682346
   0.56410038  0.57269307  0.43012804
   0.57200144  0.60466103  0.47996063
   0.39265447  0.50901050  0.51031466
   0.44241804  0.51203197  0.51851999
   0.51412909  0.47060004  0.51569633
   0.52616445  0.42136394  0.51624758
   0.54510725  0.49687618  0.48354044
   0.57387185  0.57113113  0.46549379
   0.46690877  0.47640629  0.50462723
   0.54545359  0.54144843  0.49101575
   0.45984268  0.54437243  0.53774789
   0.56817152  0.47827129  0.45485044
Direct configuration=    27
   0.37777308  0.54200451  0.51510203
   0.38484633  0.49686080  0.47662787
   0.37754183  0.48582948  0.53441433
   0.45140530  0.45109782  0.48828843
   0.51849038  0.48513198  0.54920697
   0.56125988  0.41721178  0.52570760
   0.52227390  0.40651763  0.48298981
   0.50530436  0.40332368  0.54041228
   0.52174826  0.55379000  0.51233483
   0.60856742  0.55944723  0.46673448
   0.56401294  0.57266133  0.43008916
   0.57197098  0.60465440  0.47989547
   0.39267646  0.50902171  0.51032577
   0.44243514  0.51202889  0.51854648
   0.51413727  0.47060159  0.51572025
   0.52616221  0.42136664  0.51627540
   0.54511389  0.49687382  0.48356676
   0.57383074  0.57111957  0.46544668
   0.46691898  0.47640338  0.50465871
   0.54545313  0.54143675  0.49100794
   0.45987275  0.54436834  0.53776926
   0.56820500  0.47825154  0.45487630
Direct configuration=    28
   0.37780679  0.54202788  0.51505975
   0.38491584  0.49684550  0.47663469
   0.37752766  0.48586956  0.53442287
   0.45142876  0.45111977  0.48825945
   0.51849485  0.48515160  0.54922442
   0.56125376  0.41719067  0.52572710
   0.52225777  0.40654829  0.48300172
   0.50528743  0.40332374  0.54042049
   0.52175576  0.55377530  0.51235444
   0.60852390  0.55944262  0.46664421
   0.56391340  0.57263020  0.43005706
   0.57193265  0.60464925  0.47983451
   0.39270189  0.50903474  0.51033203
   0.44245562  0.51202606  0.51857660
   0.51414706  0.47060273  0.51574603
   0.52615932  0.42136835  0.51629824
   0.54513688  0.49685925  0.48358162
   0.57378405  0.57110852  0.46540128
   0.46693114  0.47640078  0.50468769
   0.54544896  0.54142747  0.49100889
   0.45990392  0.54435853  0.53780043
   0.56823283  0.47824208  0.45492330
Direct configuration=    29
   0.37784768  0.54205537  0.51500553
   0.38499457  0.49682656  0.47663972
   0.37751157  0.48591515  0.53442877
   0.45146065  0.45115164  0.48822026
   0.51850016  0.48516445  0.54924643
   0.56124789  0.41716187  0.52573896
   0.52224233  0.40658384  0.48300453
   0.50526382  0.40331851  0.54041594
   0.52176406  0.55375628  0.51238140
   0.60847440  0.55944160  0.46655413
   0.56379985  0.57260081  0.43003477
   0.57188469  0.60464667  0.47978091
   0.39273260  0.50905016  0.51033152
   0.44247862  0.51202516  0.51861010
   0.51416065  0.47060246  0.51577298
   0.52615437  0.42136800  0.51631337
   0.54516142  0.49684381  0.48360530
   0.57373064  0.57109923  0.46535854
   0.46694550  0.47639454  0.50470944
   0.54544030  0.54142156  0.49102154
   0.45993496  0.54434247  0.53784669
   0.56826950  0.47823275  0.45497597
Direct configuration=    30
   0.37789605  0.54208751  0.51493835
   0.38508066  0.49680337  0.47664083
   0.37749595  0.48596886  0.53443037
   0.45149854  0.45118912  0.48816871
   0.51850707  0.48516918  0.54927357
   0.56124103  0.41712515  0.52574327
   0.52222822  0.40662188  0.48299737
   0.50523387  0.40330791  0.54039894
   0.52176862  0.55373575  0.51241824
   0.60841844  0.55944460  0.46646295
   0.56367071  0.57257307  0.43001880
   0.57182747  0.60464603  0.47973308
   0.39276691  0.50906823  0.51032766
   0.44250394  0.51202164  0.51864366
   0.51417749  0.47059807  0.51580020
   0.52614878  0.42136414  0.51632276
   0.54517263  0.49684379  0.48365766
   0.57366923  0.57109316  0.46532348
   0.46696676  0.47639509  0.50472862
   0.54543481  0.54141119  0.49103770
   0.45996593  0.54432173  0.53791181
   0.56832714  0.47821341  0.45501880
Direct configuration=    31
   0.37795261  0.54212612  0.51485655
   0.38517256  0.49677561  0.47663699
   0.37748305  0.48603397  0.53442747
   0.45154313  0.45123212  0.48810517
   0.51851599  0.48516289  0.54930712
   0.56123152  0.41708005  0.52574122
   0.52221631  0.40665990  0.48298088
   0.50519778  0.40329241  0.54037128
   0.52176974  0.55371564  0.51246324
   0.60835357  0.55945221  0.46636634
   0.56352276  0.57254564  0.43000613
   0.57176004  0.60464707  0.47968851
   0.39280491  0.50908866  0.51032035
   0.44253539  0.51201914  0.51868032
   0.51419627  0.47059158  0.51583357
   0.52614490  0.42135413  0.51632685
   0.54521196  0.49682268  0.48369017
   0.57359942  0.57108993  0.46529420
   0.46699582  0.47640671  0.50474643
   0.54542821  0.54140289  0.49106157
   0.45999412  0.54429261  0.53799651
   0.56837019  0.47821096  0.45509592
Direct configuration=    32
   0.37801905  0.54217324  0.51475715
   0.38526915  0.49674339  0.47662968
   0.37747388  0.48611267  0.53442360
   0.45160104  0.45129109  0.48803648
   0.51852962  0.48514314  0.54935001
   0.56122056  0.41702452  0.52573657
   0.52220752  0.40669426  0.48295706
   0.50515694  0.40327077  0.54033507
   0.52176941  0.55369393  0.51251153
   0.60827767  0.55946602  0.46625753
   0.56335202  0.57251764  0.42999580
   0.57168158  0.60465145  0.47964337
   0.39285277  0.50911514  0.51030014
   0.44257083  0.51202419  0.51872533
   0.51422195  0.47058070  0.51587312
   0.52613718  0.42133677  0.51632684
   0.54523911  0.49681929  0.48375752
   0.57351549  0.57109029  0.46526199
   0.46703146  0.47641734  0.50475481
   0.54541812  0.54138930  0.49109547
   0.46001851  0.54425549  0.53810638
   0.56843639  0.47819229  0.45516135
Direct configuration=    33
   0.37809652  0.54222932  0.51463668
   0.38536939  0.49670641  0.47661690
   0.37747152  0.48621028  0.53441948
   0.45166812  0.45135940  0.48795877
   0.51854851  0.48510680  0.54940822
   0.56120660  0.41695644  0.52573360
   0.52220216  0.40672195  0.48292972
   0.50511144  0.40324064  0.54029554
   0.52176631  0.55367204  0.51256189
   0.60818554  0.55948777  0.46612922
   0.56315410  0.57248753  0.42998558
   0.57159048  0.60466007  0.47959341
   0.39290969  0.50915087  0.51026803
   0.44260782  0.51201720  0.51876915
   0.51425554  0.47056317  0.51591762
   0.52612856  0.42131323  0.51632116
   0.54529403  0.49678629  0.48381240
   0.57341579  0.57109084  0.46521868
   0.46707928  0.47644772  0.50476695
   0.54540558  0.54138513  0.49113954
   0.46004573  0.54422207  0.53825260
   0.56848755  0.47818775  0.45526169
Direct configuration=    34
   0.37818592  0.54229548  0.51449419
   0.38547152  0.49666505  0.47659623
   0.37747796  0.48633138  0.53441281
   0.45174890  0.45144593  0.48787878
   0.51857428  0.48505158  0.54947741
   0.56118764  0.41687561  0.52573539
   0.52219902  0.40674026  0.48289932
   0.50506506  0.40320140  0.54025243
   0.52175029  0.55365351  0.51262022
   0.60807840  0.55951824  0.46597862
   0.56292689  0.57245680  0.42996573
   0.57148868  0.60466909  0.47953202
   0.39296881  0.50918842  0.51022922
   0.44267372  0.51205545  0.51884314
   0.51429742  0.47053846  0.51597077
   0.52611646  0.42128071  0.51631717
   0.54530546  0.49681000  0.48394185
   0.57329927  0.57109771  0.46517614
   0.46713792  0.47647374  0.50477199
   0.54540714  0.54135400  0.49117371
   0.46005283  0.54415199  0.53841137
   0.56858666  0.47814809  0.45531829
Direct configuration=    35
   0.37818733  0.54229706  0.51449017
   0.38547254  0.49666461  0.47659543
   0.37747886  0.48633469  0.53441373
   0.45174931  0.45144718  0.48787701
   0.51857509  0.48504750  0.54948037
   0.56118659  0.41687327  0.52573669
   0.52219928  0.40673888  0.48289979
   0.50506467  0.40319988  0.54025271
   0.52175428  0.55365177  0.51261644
   0.60807560  0.55951979  0.46597408