<?xml version="1.0" encoding="ISO-8859-1"?>
<modeling>
 <generator>
  <i name="program" type="string">vasp </i>
  <i name="version" type="string">5.4.1  </i>
  <i name="subversion" type="string">24Jun15 (build Jan 13 2020 12:58:22) complex                          parallel </i>
  <i name="platform" type="string">IFC91_ompi </i>
  <i name="date" type="string">2020 02 05 </i>
  <i name="time" type="string">18:18:08 </i>
 </generator>
 <incar>
  <i type="int" name="ISTART">     0</i>
  <i type="string" name="PREC">normal</i>
  <i type="int" name="NELM">   500</i>
  <i type="int" name="NELMIN">     6</i>
  <i type="int" name="IBRION">     3</i>
  <i name="EDIFF">      0.00010000</i>
  <i name="EDIFFG">     -0.10000000</i>
  <i type="int" name="NSW">   300</i>
  <i type="int" name="ISIF">     2</i>
  <i name="ENCUT">    400.00000000</i>
  <i name="POTIM">      0.00000000</i>
  <i name="SMASS">      2.00000000</i>
  <i type="string" name="LREAL"> Auto</i>
  <i type="int" name="ISMEAR">     0</i>
  <i name="SIGMA">      0.20000000</i>
  <i type="logical" name="LWAVE"> F  </i>
  <i type="logical" name="LCHARG"> F  </i>
  <v type="int" name="KPOINT_BSE">    -1     0     0     0</v>
  <i type="int" name="NELM">   500</i>
  <i type="string" name="GGA"> PE</i>
 </incar>
 <kpoints>
  <generation param="Monkhorst-Pack">
   <v type="int" name="divisions">       2        2        2 </v>
   <v name="usershift">      0.00000000       0.00000000       0.00000000 </v>
   <v name="genvec1">      0.50000000       0.00000000       0.00000000 </v>
   <v name="genvec2">      0.00000000       0.50000000       0.00000000 </v>
   <v name="genvec3">      0.00000000       0.00000000       0.50000000 </v>
   <v name="shift">      0.50000000       0.50000000       0.50000000 </v>
  </generation>
  <varray name="kpointlist" >
   <v>       0.25000000       0.25000000       0.25000000 </v>
   <v>      -0.25000000       0.25000000       0.25000000 </v>
   <v>       0.25000000      -0.25000000       0.25000000 </v>
   <v>      -0.25000000      -0.25000000       0.25000000 </v>
  </varray>
  <varray name="weights" >
   <v>       0.25000000 </v>
   <v>       0.25000000 </v>
   <v>       0.25000000 </v>
   <v>       0.25000000 </v>
  </varray>
 </kpoints>
 <parameters>
  <separator name="general" >
   <i type="string" name="SYSTEM">unknown system</i>
   <i type="logical" name="LCOMPAT"> F  </i>
  </separator>
  <separator name="electronic" >
   <i type="string" name="PREC">normal</i>
   <i name="ENMAX">    400.00000000</i>
   <i name="ENAUG">    644.87300000</i>
   <i name="EDIFF">      0.00010000</i>
   <i type="int" name="IALGO">    38</i>
   <i type="int" name="IWAVPR">    11</i>
   <i type="int" name="NBANDS">    12</i>
   <i name="NELECT">     16.00000000</i>
   <i type="int" name="TURBO">     0</i>
   <i type="int" name="IRESTART">     0</i>
   <i type="int" name="NREBOOT">     0</i>
   <i type="int" name="NMIN">     0</i>
   <i name="EREF">      0.00000000</i>
   <separator name="electronic smearing" >
    <i type="int" name="ISMEAR">     0</i>
    <i name="SIGMA">      0.20000000</i>
    <i name="KSPACING">      0.50000000</i>
    <i type="logical" name="KGAMMA"> T  </i>
   </separator>
   <separator name="electronic projectors" >
    <i type="logical" name="LREAL"> T  </i>
    <v name="ROPT">     -0.00050000     -0.00050000     -0.00050000</v>
    <i type="int" name="LMAXPAW">  -100</i>
    <i type="int" name="LMAXMIX">     2</i>
    <i type="logical" name="NLSPLINE"> F  </i>
   </separator>
   <separator name="electronic startup" >
    <i type="int" name="ISTART">     0</i>
    <i type="int" name="ICHARG">     2</i>
    <i type="int" name="INIWAV">     1</i>
   </separator>
   <separator name="electronic spin" >
    <i type="int" name="ISPIN">     1</i>
    <i type="logical" name="LNONCOLLINEAR"> F  </i>
    <v name="MAGMOM">      1.00000000      1.00000000      1.00000000      1.00000000      1.00000000      1.00000000</v>
    <i name="NUPDOWN">     -1.00000000</i>
    <i type="logical" name="LSORBIT"> F  </i>
    <v name="SAXIS">      0.00000000      0.00000000      1.00000000</v>
    <i type="logical" name="LSPIRAL"> F  </i>
    <v name="QSPIRAL">      0.00000000      0.00000000      0.00000000</v>
    <i type="logical" name="LZEROZ"> F  </i>
   </separator>
   <separator name="electronic exchange-correlation" >
    <i type="logical" name="LASPH"> F  </i>
    <i type="logical" name="LMETAGGA"> F  </i>
   </separator>
   <separator name="electronic convergence" >
    <i type="int" name="NELM">   500</i>
    <i type="int" name="NELMDL">    -5</i>
    <i type="int" name="NELMIN">     6</i>
    <i name="ENINI">    400.00000000</i>
    <separator name="electronic convergence detail" >
     <i type="logical" name="LDIAG"> T  </i>
     <i type="logical" name="LSUBROT"> F  </i>
     <i name="WEIMIN">      0.00100000</i>
     <i name="EBREAK">      0.00000208</i>
     <i name="DEPER">      0.30000000</i>
     <i type="int" name="NRMM">     4</i>
     <i name="TIME">      0.40000000</i>
    </separator>
   </separator>
   <separator name="electronic mixer" >
    <i name="AMIX">      0.40000000</i>
    <i name="BMIX">      1.00000000</i>
    <i name="AMIN">      0.10000000</i>
    <i name="AMIX_MAG">      1.60000000</i>
    <i name="BMIX_MAG">      1.00000000</i>
    <separator name="electronic mixer details" >
     <i type="int" name="IMIX">     4</i>
     <i type="logical" name="MIXFIRST"> F  </i>
     <i type="int" name="MAXMIX">   -45</i>
     <i name="WC">    100.00000000</i>
     <i type="int" name="INIMIX">     1</i>
     <i type="int" name="MIXPRE">     1</i>
     <i type="int" name="MREMOVE">     5</i>
    </separator>
   </separator>
   <separator name="electronic dipolcorrection" >
    <i type="logical" name="LDIPOL"> F  </i>
    <i type="logical" name="LMONO"> F  </i>
    <i type="int" name="IDIPOL">     0</i>
    <i name="EPSILON">      1.00000000</i>
    <v name="DIPOL">   -100.00000000   -100.00000000   -100.00000000</v>
    <i name="EFIELD">      0.00000000</i>
   </separator>
  </separator>
  <separator name="grids" >
   <i type="int" name="NGX">   150</i>
   <i type="int" name="NGY">   150</i>
   <i type="int" name="NGZ">   150</i>
   <i type="int" name="NGXF">   300</i>
   <i type="int" name="NGYF">   300</i>
   <i type="int" name="NGZF">   300</i>
   <i type="logical" name="ADDGRID"> F  </i>
  </separator>
  <separator name="ionic" >
   <i type="int" name="NSW">   300</i>
   <i type="int" name="IBRION">     3</i>
   <i type="int" name="ISIF">     2</i>
   <i name="PSTRESS">      0.00000000</i>
   <i name="EDIFFG">     -0.10000000</i>
   <i type="int" name="NFREE">     0</i>
   <i name="POTIM">      0.00000000</i>
   <i name="SMASS">      2.00000000</i>
   <i name="SCALEE">      1.00000000</i>
  </separator>
  <separator name="ionic md" >
   <i name="TEBEG">      0.00010000</i>
   <i name="TEEND">      0.00010000</i>
   <i type="int" name="NBLOCK">     1</i>
   <i type="int" name="KBLOCK">   300</i>
   <i type="int" name="NPACO">   256</i>
   <i name="APACO">     16.00000000</i>
  </separator>
  <separator name="symmetry" >
   <i type="int" name="ISYM">     2</i>
   <i name="SYMPREC">      0.00001000</i>
  </separator>
  <separator name="dos" >
   <i type="logical" name="LORBIT"> F  </i>
   <v name="RWIGS">     -1.00000000     -1.00000000     -1.00000000</v>
   <i type="int" name="NEDOS">   301</i>
   <i name="EMIN">     10.00000000</i>
   <i name="EMAX">    -10.00000000</i>
   <i name="EFERMI">      0.00000000</i>
  </separator>
  <separator name="writing" >
   <i type="int" name="NWRITE">     2</i>
   <i type="logical" name="LWAVE"> F  </i>
   <i type="logical" name="LCHARG"> F  </i>
   <i type="logical" name="LPARD"> F  </i>
   <i type="logical" name="LVTOT"> F  </i>
   <i type="logical" name="LVHAR"> F  </i>
   <i type="logical" name="LELF"> F  </i>
   <i type="logical" name="LOPTICS"> F  </i>
   <v name="STM">      0.00000000      0.00000000      0.00000000      0.00000000      0.00000000      0.00000000      0.00000000</v>
  </separator>
  <separator name="performance" >
   <i type="int" name="NPAR">     1</i>
   <i type="int" name="NSIM">     4</i>
   <i type="int" name="NBLK">    -1</i>
   <i type="logical" name="LPLANE"> T  </i>
   <i type="logical" name="LSCALAPACK"> T  </i>
   <i type="logical" name="LSCAAWARE"> F  </i>
   <i type="logical" name="LSCALU"> F  </i>
   <i type="logical" name="LASYNC"> F  </i>
   <i type="logical" name="LORBITALREAL"> F  </i>
  </separator>
  <separator name="miscellaneous" >
   <i type="int" name="IDIOT">     3</i>
   <i type="logical" name="LMUSIC"> F  </i>
   <v name="POMASS">      1.00000000     12.01100000     14.00100000</v>
   <v name="DARWINR">      0.00000000      0.00000000      0.00000000</v>
   <v name="DARWINV">      1.00000000      1.00000000      1.00000000</v>
   <i type="logical" name="LCORR"> T  </i>
  </separator>
  <i type="logical" name="GGA_COMPAT"> T  </i>
  <i type="logical" name="LBERRY"> F  </i>
  <i type="int" name="ICORELEVEL">     0</i>
  <i type="logical" name="LDAU"> F  </i>
  <i type="int" name="I_CONSTRAINED_M">     0</i>
  <separator name="electronic exchange-correlation" >
   <i type="string" name="GGA">PE</i>
   <i type="int" name="VOSKOWN">     0</i>
   <i type="logical" name="LHFCALC"> F  </i>
   <i type="string" name="PRECFOCK"></i>
   <i type="logical" name="LSYMGRAD"> F  </i>
   <i type="logical" name="LHFONE"> F  </i>
   <i type="logical" name="LRHFCALC"> F  </i>
   <i type="logical" name="LTHOMAS"> F  </i>
   <i type="logical" name="LMODELHF"> F  </i>
   <i name="ENCUT4O">     -1.00000000</i>
   <i type="int" name="EXXOEP">     0</i>
   <i type="int" name="FOURORBIT">     0</i>
   <i name="AEXX">      0.00000000</i>
   <i name="HFALPHA">      0.00000000</i>
   <i name="MCALPHA">      0.00000000</i>
   <i name="ALDAX">      1.00000000</i>
   <i name="AGGAX">      1.00000000</i>
   <i name="ALDAC">      1.00000000</i>
   <i name="AGGAC">      1.00000000</i>
   <i type="int" name="NKREDX">     1</i>
   <i type="int" name="NKREDY">     1</i>
   <i type="int" name="NKREDZ">     1</i>
   <i type="logical" name="SHIFTRED"> F  </i>
   <i type="logical" name="ODDONLY"> F  </i>
   <i type="logical" name="EVENONLY"> F  </i>
   <i type="int" name="LMAXFOCK">     0</i>
   <i type="int" name="NMAXFOCKAE">     0</i>
   <i type="logical" name="LFOCKAEDFT"> F  </i>
   <i name="HFSCREEN">      0.00000000</i>
   <i name="HFSCREENC">      0.00000000</i>
   <i type="int" name="NBANDSGWLOW">     0</i>
  </separator>
  <separator name="vdW DFT" >
   <i type="logical" name="LUSE_VDW"> F  </i>
   <i name="Zab_VDW">     -0.84910000</i>
   <i name="PARAM1">      0.12340000</i>
   <i name="PARAM2">      1.00000000</i>
   <i name="PARAM3">      0.00000000</i>
  </separator>
  <separator name="model GW" >
   <i type="int" name="MODEL_GW">     0</i>
   <i name="MODEL_EPS0">   2700.00000000</i>
   <i name="MODEL_ALPHA">      1.00000000</i>
  </separator>
  <separator name="linear response parameters" >
   <i type="logical" name="LEPSILON"> F  </i>
   <i type="logical" name="LRPA"> F  </i>
   <i type="logical" name="LNABLA"> F  </i>
   <i type="logical" name="LVEL"> F  </i>
   <i type="int" name="KINTER">     0</i>
   <i name="CSHIFT">      0.10000000</i>
   <i name="OMEGAMAX">     -1.00000000</i>
   <i name="DEG_THRESHOLD">      0.00200000</i>
  </separator>
  <separator name="orbital magnetization" >
   <i type="logical" name="NUCIND"> F  </i>
   <v name="MAGPOS">      0.00000000      0.00000000      0.00000000</v>
   <i type="logical" name="LNICSALL"> T  </i>
   <i type="logical" name="ORBITALMAG"> F  </i>
   <i type="logical" name="LMAGBLOCH"> F  </i>
   <i type="logical" name="LCHIMAG"> F  </i>
   <i type="logical" name="LGAUGE"> T  </i>
   <i type="int" name="MAGATOM">     0</i>
   <v name="MAGDIPOL">      0.00000000      0.00000000      0.00000000</v>
   <v name="AVECCONST">      0.00000000      0.00000000      0.00000000</v>
  </separator>
  <separator name="response functions" >
   <i type="logical" name="LADDER"> F  </i>
   <i type="logical" name="LFXC"> F  </i>
   <i type="logical" name="LHARTREE"> T  </i>
   <i type="int" name="IBSE">     0</i>
   <v type="int" name="KPOINT">    -1     0     0     0</v>
   <i type="logical" name="LTCTE"> F  </i>
   <i type="logical" name="LTETE"> F  </i>
   <i type="logical" name="LTRIPLET"> F  </i>
   <i type="logical" name="LFXCEPS"> F  </i>
   <i type="logical" name="LFXHEG"> F  </i>
   <i type="int" name="NATURALO">     0</i>
   <i type="logical" name="L2ORDER"> F  </i>
   <i type="logical" name="LUSEW"> F  </i>
   <i name="ENCUTGW">     -2.00000000</i>
   <i name="ENCUTGWSOFT">     -2.00000000</i>
   <i name="ENCUTLF">     -1.00000000</i>
   <i type="int" name="LMAXMP2">    -1</i>
   <i name="SCISSOR">      0.00000000</i>
   <i type="int" name="NOMEGA">     0</i>
   <i type="int" name="NOMEGAR">     0</i>
   <i type="int" name="NBANDSGW">    -1</i>
   <i type="int" name="NBANDSO">    -1</i>
   <i type="int" name="NBANDSV">    -1</i>
   <i type="int" name="NELM">   500</i>
   <i type="int" name="NELMHF">     1</i>
   <i type="int" name="DIM">     3</i>
   <i type="int" name="ANTIRES">     0</i>
   <i name="OMEGAMAX">    -30.00000000</i>
   <i name="OMEGAMIN">    -30.00000000</i>
   <i name="OMEGATL">   -200.00000000</i>
   <i type="int" name="OMEGAGRID">     0</i>
   <i name="CSHIFT">     -0.10000000</i>
   <i type="logical" name="SELFENERGY"> F  </i>
   <i type="logical" name="LSPECTRAL"> F  </i>
   <i type="logical" name="LSPECTRALGW"> F  </i>
   <i type="logical" name="LSINGLES"> F  </i>
   <i type="logical" name="LFERMIGW"> F  </i>
   <i type="logical" name="ODDONLYGW"> F  </i>
   <i type="logical" name="EVENONLYGW"> F  </i>
   <i type="int" name="NKREDLFX">     1</i>
   <i type="int" name="NKREDLFY">     1</i>
   <i type="int" name="NKREDLFZ">     1</i>
   <i type="int" name="MAXMEM">  1800</i>
   <i type="int" name="TELESCOPE">     0</i>
   <i type="int" name="TAUPAR">     1</i>
   <i type="int" name="OMEGAPAR">    -1</i>
   <i name="LAMBDA">      1.00000000</i>
  </separator>
  <separator name="External order field" >
   <i name="OFIELD_KAPPA">      0.00000000</i>
   <v name="OFIELD_K">      0.00000000      0.00000000      0.00000000</v>
   <i name="OFIELD_Q6_NEAR">      0.00000000</i>
   <i name="OFIELD_Q6_FAR">      0.00000000</i>
   <i name="OFIELD_A">      0.00000000</i>
  </separator>
  <separator name="solvation model" >
   <i type="logical" name="LSOL"> F  </i>
  </separator>
 </parameters>
 <atominfo>
  <atoms>       6 </atoms>
  <types>       3 </types>
  <array name="atoms" >
   <dimension dim="1">ion</dimension>
   <field type="string">element</field>
   <field type="int">atomtype</field>
   <set>
    <rc><c>H </c><c>   1</c></rc>
    <rc><c>H </c><c>   1</c></rc>
    <rc><c>H </c><c>   1</c></rc>
    <rc><c>C </c><c>   2</c></rc>
    <rc><c>C </c><c>   2</c></rc>
    <rc><c>N </c><c>   3</c></rc>
   </set>
  </array>
  <array name="atomtypes" >
   <dimension dim="1">type</dimension>
   <field type="int">atomspertype</field>
   <field type="string">element</field>
   <field>mass</field>
   <field>valence</field>
   <field type="string">pseudopotential</field>
   <set>
    <rc><c>   3</c><c>H </c><c>      1.00000000</c><c>      1.00000000</c><c>  PAW_PBE H 15Jun2001                   </c></rc>
    <rc><c>   2</c><c>C </c><c>     12.01100000</c><c>      4.00000000</c><c>  PAW_PBE C 08Apr2002                   </c></rc>
    <rc><c>   1</c><c>N </c><c>     14.00100000</c><c>      5.00000000</c><c>  PAW_PBE N 08Apr2002                   </c></rc>
   </set>
  </array>
 </atominfo>
 <structure name="initialpos" >
  <crystal>
   <varray name="basis" >
    <v>      30.00000000       0.00000000       0.00000000 </v>
    <v>       0.00000000      30.00000000       0.00000000 </v>
    <v>       0.00000000       0.00000000      30.00000000 </v>
   </varray>
   <i name="volume">  27000.00000000 </i>
   <varray name="rec_basis" >
    <v>       0.03333333       0.00000000       0.00000000 </v>
    <v>       0.00000000       0.03333333       0.00000000 </v>
    <v>       0.00000000       0.00000000       0.03333333 </v>
   </varray>
  </crystal>
  <varray name="positions" >
   <v>       0.47335344       0.46442364       0.50616606 </v>
   <v>       0.47314231       0.51022622       0.46558057 </v>
   <v>       0.47754126       0.52119528       0.52407594 </v>
   <v>       0.48551865       0.49728719       0.49705574 </v>
   <v>       0.53647475       0.49171117       0.49050614 </v>
   <v>       0.55399206       0.51514532       0.51659555 </v>
  </varray>
 </structure>
 <calculation>
  <scstep>
   <time name="dav">  141.04  141.38</time>
   <time name="total">  171.53  171.95</time>
   <energy>
    <i name="alphaZ">      0.04144063 </i>
    <i name="ewald">    702.62410954 </i>
    <i name="hartreedc">  -1116.99265866 </i>
    <i name="XCdc">     51.41635419 </i>
    <i name="pawpsdc">    428.37890668 </i>
    <i name="pawaedc">   -430.73533574 </i>
    <i name="eentropy">     -0.19092021 </i>
    <i name="bandstr">   -118.51397656 </i>
    <i name="atom">    596.16534815 </i>
    <i name="e_fr_energy">    112.19326801 </i>
    <i name="e_wo_entrp">    112.38418822 </i>
    <i name="e_0_energy">    112.28872812 </i>
   </energy>
  </scstep>
  <scstep>
   <time name="dav">  163.85  164.35</time>
   <time name="total">  163.85  164.35</time>
   <energy>
    <i name="e_fr_energy">     -1.81297729 </i>
    <i name="e_wo_entrp">     -1.81297584 </i>
    <i name="e_0_energy">     -1.81297656 </i>
   </energy>
  </scstep>
  <scstep>
   <time name="dav">  137.39  137.71</time>
   <time name="total">  137.39  137.72</time>
   <energy>
    <i name="e_fr_energy">    -35.16150670 </i>
    <i name="e_wo_entrp">    -35.16150670 </i>
    <i name="e_0_energy">    -35.16150670 </i>
   </energy>
  </scstep>
  <scstep>
   <time name="dav">  124.88  125.18</time>
   <time name="total">  124.88  125.18</time>
   <energy>
    <i name="e_fr_energy">    -39.02851477 </i>
    <i name="e_wo_entrp">    -39.02851477 </i>
    <i name="e_0_energy">    -39.02851477 </i>
   </energy>
  </scstep>
  <scstep>
   <time name="dav">  110.34  110.61</time>
   <time name="total">  119.73  120.02</time>
   <energy>
    <i name="e_fr_energy">    -39.11877128 </i>
    <i name="e_wo_entrp">    -39.11877128 </i>
    <i name="e_0_energy">    -39.11877128 </i>
   </energy>
  </scstep>
  <scstep>
   <time name="dav">  109.39  109.65</time>
   <time name="total">  150.75  156.60</time>
   <energy>
    <i name="e_fr_energy">    -36.40693844 </i>
    <i name="e_wo_entrp">    -36.40693844 </i>
    <i name="e_0_energy">    -36.40693844 </i>
   </energy>
  </scstep>
  <scstep>
   <time name="dav">  122.76  123.05</time>
   <time name="total">  163.67  164.07</time>
   <energy>
    <i name="e_fr_energy">    -35.69918073 </i>
    <i name="e_wo_entrp">    -35.69918073 </i>
    <i name="e_0_energy">    -35.69918073 </i>
   </energy>
  </scstep>
  <scstep>
   <time name="dav">  122.18  122.47</time>
   <time name="total">  162.81  163.20</time>
   <energy>
    <i name="e_fr_energy">    -35.63082450 </i>
    <i name="e_wo_entrp">    -35.63082450 </i>
    <i name="e_0_energy">    -35.63082450 </i>
   </energy>
  </scstep>
  <scstep>
   <time name="dav">  117.94  118.23</time>
   <time name="total">  157.21  157.60</time>
   <energy>
    <i name="e_fr_energy">    -35.61302631 </i>
    <i name="e_wo_entrp">    -35.61302631 </i>
    <i name="e_0_energy">    -35.61302631 </i>
   </energy>
  </scstep>
  <scstep>
   <time name="dav">  121.62  121.92</time>
   <time name="total">  161.60  162.00</time>
   <energy>
    <i name="e_fr_energy">    -35.61280554 </i>
    <i name="e_wo_entrp">    -35.61280554 </i>
    <i name="e_0_energy">    -35.61280554 </i>
   </energy>
  </scstep>
  <scstep>
   <time name="dav">  121.92  122.21</time>
   <time name="total">  161.08  161.47</time>
   <energy>
    <i name="e_fr_energy">    -35.61444557 </i>
    <i name="e_wo_entrp">    -35.61444557 </i>
    <i name="e_0_energy">    -35.61444557 </i>
   </energy>
  </scstep>
  <scstep>
   <time name="dav">  118.87  119.16</time>
   <time name="total">  158.13  158.51</time>
   <energy>
    <i name="e_fr_energy">    -35.62009765 </i>
    <i name="e_wo_entrp">    -35.62009765 </i>
    <i name="e_0_energy">    -35.62009765 </i>
   </energy>
  </scstep>
  <scstep>
   <time name="dav">  121.46  121.75</time>
   <time name="total">  160.11  160.50</time>
   <energy>
    <i name="e_fr_energy">    -35.62611705 </i>
    <i name="e_wo_entrp">    -35.62611705 </i>
    <i name="e_0_energy">    -35.62611705 </i>
   </energy>
  </scstep>
  <scstep>
   <time name="dav">  117.79  118.07</time>
   <time name="total">  159.10  159.48</time>
   <energy>
    <i name="e_fr_energy">    -35.63013751 </i>
    <i name="e_wo_entrp">    -35.63013751 </i>
    <i name="e_0_energy">    -35.63013751 </i>
   </energy>
  </scstep>
  <scstep>
   <time name="dav">  119.41  119.70</time>
   <time name="total">  160.84  161.22</time>
   <energy>
    <i name="e_fr_energy">    -35.63341602 </i>
    <i name="e_wo_entrp">    -35.63341602 </i>
    <i name="e_0_energy">    -35.63341602 </i>
   </energy>
  </scstep>
  <scstep>
   <time name="dav">  116.81  117.08</time>
   <time name="total">  152.67  153.03</time>
   <energy>
    <i name="e_fr_energy">    -35.63461607 </i>
    <i name="e_wo_entrp">    -35.63461607 </i>
    <i name="e_0_energy">    -35.63461607 </i>
   </energy>
  </scstep>
  <scstep>
   <time name="dav">   89.94   90.16</time>
   <time name="total">  131.98  132.30</time>
   <energy>
    <i name="e_fr_energy">    -35.63546028 </i>
    <i name="e_wo_entrp">    -35.63546028 </i>
    <i name="e_0_energy">    -35.63546028 </i>
   </energy>
  </scstep>
  <scstep>
   <time name="dav">   92.46   92.68</time>
   <time name="total">  133.55  133.88</time>
   <energy>
    <i name="e_fr_energy">    -33.95297274 </i>
    <i name="e_wo_entrp">    -33.95297274 </i>
    <i name="e_0_energy">    -33.95297274 </i>
   </energy>
  </scstep>
  <scstep>
   <time name="dav">   86.08   86.27</time>
   <time name="total">  127.66  127.96</time>
   <energy>
    <i name="e_fr_energy">    -33.95312595 </i>
    <i name="e_wo_entrp">    -33.95312595 </i>
    <i name="e_0_energy">    -33.95312595 </i>
   </energy>
  </scstep>
  <scstep>
   <time name="dav">   91.70   91.91</time>
   <time name="total">  122.44  122.73</time>
   <energy>
    <i name="alphaZ">      0.04144063 </i>
    <i name="ewald">    702.12366378 </i>
    <i name="hartreedc">  -1179.85518098 </i>
    <i name="XCdc">     54.29651856 </i>
    <i   <time name="dav">   64.46   64.61</time>
   <time name="total">   92.51   92.73</time>
   <energy>
    <i name="alphaZ">      0.04144063 </i>
    <i name="ewald">    672.99543210 </i>
    <i name="hartreedc">  -1153.48662565 </i>
    <i name="XCdc">     54.96689013 </i>
    <i name="pawpsdc">   1373.40206135 </i>
    <i name="pawaedc">  -1376.20202236 </i>
    <i name="eent  <structure>
   <crystal>
    <varray name="basis" >
     <v>      30.00000000       0.00000000       0.00000000 </v>
     <v>       0.00000000      30.00000000       0.00000000 </v>
     <v>       0.00000000       0.00000000      30.00000000 </v>
    </varray>
    <i name="volu  <structure>
   <crystal>
    <varray name="basis" >
     <v>      30.00000000       0.00000000       0.00000000 </v>
     <v>       0.00000000      30.00000000       0.00000000 </v>
     <v>       0.00000000       0.00000000      30.00000000 </v>
    </varray>
    <i name="volume">  27000.00000000 </i>
    <varray name="rec_basis" >
     <v>       0.03333333       0.00000000       0.00000000 </v>
     <v>       0.00000000       0.03333333       0.00000000 </v>
     <v>       0.00000000       0.00000000       0.03333333 </v>
    </varray>
   </crystal>
   <varray name="positions" >
    <v>       0.47355722       0.46386187       0.50400265 </v>
    <v>       0.47400185       0.50815602       0.46425205 </v>
    <v>       0.46637846       0.52013072       0.52206255 </v>
    <v>       0.48389126       0.49853451       0.49819851 </v>
    <v>       0.53183125       0.50291425       0.50358483 </v>
    <v>       0.57032965       0.50643682       0.50786057 </v>
   </varray>
  </structure>
  <varray name="forces" >
   <v>       0.00027311       0.00009688       0.00070769 </v>
   <v>      -0.00130512       0.00021462       0.00082592 </v>
   <v>       0.00042896      -0.00037592       0.00094514 </v>
   <v>      -0.00378422      -0.00011971       0.00023372 </v>
   <v>       0.02585433       0.00252256       0.00251466 </v>
   <v>      -0.0214670  <energy>
   <i name="e_fr_energy">    -35.63607259 </i>
   <i name="e_wo_entrp">    -35.63607259 </i>
   <i name="e_0_energy">      0.00000000 </i>
  </energy>
  <time name="totalsc"> 3187.91 3196.61</time>
 </calculation>
503      -0.00010210      -0.05583476 </v>
  </varray>
  <energy>
   <i name="e_fr_energy">    -36.70489363 </i>
   <i name="e_wo_entrp">    -36.70489363 </i>
   <i name="e_0_energy">      0.00000000 </i>
  </energy>
  <time name="totalsc"> 31   <time name="dav">   70.45   70.60</time>
   <time name="total">   98.93   99.14</time>
   <energy>
    <i name="   <time name="dav">   63.63   68.28</time>
   <time name="total">  106.28  113.30</time>
   <energy>
     <time name="dav">   76.06   80.34</time>
   <time name="total">  118.25  123.58</time>
   <energy>
    <i name="alphaZ">      0.04144063 </i>
      <time   <time name="dav">   87.91   92.66</time>
   <time name="total">  129.62  137.22</time>
   <energy>
    <i name="alphaZ">      0.04144063 </i>
    <i name="ewald">    710.15875375 </i>
    <i name="hartreedc">  -1186.01578059 </i>
    <i name="XCdc">     54.84646200 </i>
    <i name="pawpsdc"   <time name="dav">   69.27   69.42</time>
   <time name="total">   97.26   97.48</time>   <time name="dav">   77.   <time name="dav">   77.82   80.43</time>
   <time name="total">  118.22  121.64</time>
   <energy>
     <time name="dav">   95.29   96.85</time>
   <time name="to   <time name="dav">   75.75   75.91</time>
   <time name="total">  105.97  106.20</time>
   <energy>
    <i name="   <time name="dav">   66.54   66.70</time>
   <time name="total">  108.25  108.50</time>
   <energy>
     <time name="dav">   56.89   57.01</time>
   <time name="to   <time name="dav">   69.32   69.46</time>
   <time name="total">   98.16   98.37</time>
   <energy>
    <i name="   <time name="dav">   74.68   76.58</time>
   <time name="total">  113.06  115.29</time>
   <energy>
     <time name="dav">   70.70   73.73</time>
   <time name="to   <time name="dav">   73.38   73.53</time>   <time name="dav">   91.44  100.18</time>
   <time name="total">  131.   <time name="dav">   63.99   69.92</time>
   <time name="total">  102.53  111.84</time>
   <energy>
    <i name="e_fr_energy">    -36.33172107 </i   <time name="to   <time name="dav">   56.35   56.46</time>   <time name="dav">   57.78   57.93</time>
   <time name="total">   93.   <time name="dav">   56.70   69.61</time>
   <time name="total">   77.15   90.11</time>
   <energy>
    <i name="alphaZ">      0.04144063 </i>
    <i name="ewald">    683.31846050 </i>
    <i name="hartreed   <time name="dav">   51.33   51.44</time>
   <time name="total">   79.28   82.05</time>
   <energy>
    <i name="alphaZ">      0.04144063 </i>
    <i name="ewald">    701.05939999 </i>
    <i name="hartreedc">  -1176.28064358 </i>
    <i name="XCdc">     54.81131594 </i>
    <i name="pawpsdc">   1317.23677728 </i>
    <i name="pawaedc">  -1320.09649105 </i>
    <i name="eentropy">      0.00000000 </i>
    <i name="bandstr">   -208.57273411 </i>
  <structure>
   <crystal>
    <varray name="basis" >
     <v>      30.00000000       0.00000000       0.00000000 </v>
     <v>       0.00000000      30.00000000       0.00000000 </v>
     <v>       0.0000000  <structure>
   <crystal>
    <varray name="basis" >
     <v>      30.00000000       0.00000000       0.00000000 </v>
     <v>       0.00000000      30.00000000       0.00000000 </v>
     <v>       0.00000000       0.00000000      30.00000000 </v>
    </varray>
    <i name="volume">  27000.00000000 </i>
    <varray name="rec_basis" >
     <v>       0.03333333       0.00000000       0.00000000 </v>
     <v>       0.00000000       0.03333333       0.00000000 </v>
     <v>       0.00000000       0.00000000       0.03333333 </v>
    </varray>
   </crystal>
   <varray name="positions" >
    <v>       0.47560421       0.46578960       0.51668951 </v>
    <v>       0.46594974       0.50454141       0.47293228 </v>
    <v>       0.47532445       0.52472743       0.52783085 </v>
    <v>       0.48485201       0.49880387       0.50378813 </v>
    <v>       0.56985638       0.50061584       0.48665630 </v>
    <v>       0.53125032       0.50039964       0.49557712 </v>
   </varray>
  </structure>
  <varray name="forces" >
   <v>       0.00172911       0.02574692       0.09548873 </v>
   <v>       0.08650094       0.02048390      -0.08101860 </v>
   <v>       0.01298358      -0.04325233       0.08461930 </v>
   <v>      -0.12578482       0.00198728       0.00794612 </v>
   <v>      -0.78239996       0.02080961    <energy>
   <i name="e_f  <energy>
   <i name="e_fr_energy">    -34.83607092 </i>
   <i  <energy>
   <i name="e_f  <energy>
   <i name="e_fr_energy">    -36.331  <time name="totalsc">  843.35  845.12</time>
 </calculation>
  <time name="totalsc">  8  <time name="totalsc">  8  <time name="totalsc">  801.18  844.26</time>
 </calculation>
e="totalsc">  812.29  842.93</time>
 </ca  <time name="totalsc">  814.55  843.73</time>
 </calculation>
60</time>
 </calculation>
77</time>
 </calculation>
65</time>
 </calculation>
14</time>
 </ca  <time name="totalsc">  822.43  842.09</time>
 </calculation>
   <time name="dav">   47.   <time name="dav">   75.   <time name="dav   <time name="total">  10   <time name="total">  109.58  109.82</time>
   <energy>
    <i name="alphaZ">      0   <time name="dav">   74.98   75.13</time>
   <time   <time name="dav">   80.33   80.50</time>
   <time name="total">  123.50  12   <time name="dav">   90.48   90.69</time>
   <time name="total">  133.28  133.59</time>
   <energy>
    <i name="alphaZ">      0.04144063 </i>
    <i name="ewald">    683.31124916 </i>
    <i name="hartreedc">  -1163.72528618 </i>
    <i name="XCdc">     55.03956392 </i>
    <i name="pawpsdc">   1380.35739487 </i>
    <i name="pawaedc">  -1383.16799098 <   <time name="dav">   52.   <time name="dav">   74.   <time name="dav   <time name="total">  10   <time   <time name="dav">   94.87   95.08</time>
   <time name="total">  127.80  12   <time name="dav">   90.42   90.61</time>
   <time name="total">  132.97  133.24</time>
   <energy>
    <i name="e_fr_ener   <time name="dav">   58.79   58.91</time>
   <time name="total">   91.29   9   <time name="dav">   75.66   75.82</time>
   <time name="total">  108.60  10   <time name="dav">   66.99   67.13</time>
   <time name="total">  109.48  109.71</time>
   <energy>
    <i name="e_fr_ener   <time name="dav">   48.   <time name="dav   <time name="total">   7   <time   <time name="dav">   69.   <time name="dav">   79.76   79.94</time>
   <time   <time name="dav">   66.30   66.44</time>
   <time name="total">  107.99  108.21</time>
   <energy>
    <i name="e_fr_energy">    -35.15543488 </i>
    <i name="e_wo_   <time name=   <time name="dav">   <time name="dav">   78.58   78.74</time>
   <time name="total">  108.53  10   <time name="dav">   66.81   66.95</time>
   <time name="total">  103.45  103.66</time>
   <energy>
    <i name="e_fr_energy">    -35.15543674 </i>
    <i name="e_wo_entrp">    -35   <time name="dav">   <time name="dav">   54.   <time name="dav">   73.43   73.58</time>
   <time   <time name="dav">   65.41   65.54</time>
   <time name="total">  101.18  101.38</time>
   <energy>
    <i name="alphaZ">      0.04144063 </i>
    <i name="ewald">    709.73573437    <time name="dav">   53.18   53.29</time>
   <time name="total">   88.17   88.35</time>
   <energy>
    <i name="alphaZ">      0.04144063 </i>
    <i name="ewald">    702.05210487 </i>
    <i name="hartreedc">  -1177.14530775 </i>
    <i name="XCdc">     54.84185726 </i>
    <i name="pawpsdc">   1325.29948852 </i>
    <i name="pawaedc">  -1328.16533077 </i>
    <i name  <structure>
   <crystal>  <structure>
   <crystal>  <structure>
   <crystal>
    <varray name="basis"   <structure>
   <crystal>
    <varray name="basis" >
     <v>      30.00000000       0.00000000       0.00000000 </v>
     <v>       0.00000000      30.00000000       0.00000000 </v  <structure>
   <crystal>
    <varray name="basis" >
     <v>      30.00000000       0.00000000       0.00000000 </v>
     <v>       0.00000000      30.00000000       0.00000000 </v>
     <v>       0.00000000       0.00000000      30.00000000 </v>
    </varray>
    <i name="volume">  27000.00000000 </i>
    <varray name="rec_basis" >
     <v>       0.03333333       0.00000000       0.00000000 </v>
     <v>       0.00000000       0.03333333       0.00000000 </v>
     <v>       0.00000000       0.00000000       0.03333333 </v>
    </varray>
   </crystal>
   <varray name="positions" >
    <v>       0.48588449       0.46290365       0.52354540 </v>
    <v>       0.46708657       0.48898569       0.47316647 </v>
    <v>       0.46899701       0.52015188       0.52396864 </v>
    <v>       0.48575307       0.49413830       0.50431978 </v>
    <v>       0.56754301       0.51683102       0.48698106 </v>
    <v>       0.53019583       0.50710592       0.49474751 </v>
   </varray>
  </structure>
  <varray name="forces" >
   <v>      -0.01762441       0.03089751      -0.02324954 </v>
   <v>       0.04129850       0.00141039       0.03068010 </v>
   <v>       0.02128772      -0.00583382      -0.00310751 </v>
   <v>       0.01334291      -0.00205446       0.00222941 </v>
   <energy>
   <i name="e_fr_energy">    -36.70466806 </i>
   <i name="e_wo_entrp">    -36.70466806 </i>
  <energy>
   <i name="e_fr_energy">    -35.63831824   <i   <time name="totalsc">  8  <time name="totalsc">  839.29  842.39</time>
 </ca  <time name="totalsc">  839.17  842.60</time>
 </calculation>
39</time>
 </calculation>
e="totalsc">  838.26  840.67</time>
 </ca  <time name="totalsc">  838.88  841.97</time>
 </calculation>
e="totalsc">  838.57  841.50</time>
 </calculation>
47</time>
 </calculation>
e="totalsc">  8  <time name="totalsc">  8   <time name="dav">   63.82   63.95</time>
   <time   <time name="dav">   72.   <time name="dav">   67.35   74.52</time>
   <time name="total">  105.13  114.21</time>
   <en   <time name="total">  115.78  117.25</time>
   <energy>
    <i name="alphaZ">      0.04144063 </i>
    <i name="ewald">    702.70803267 </i>
    <i name="   <time name="total">  106.80  116.91</time>
   <energy>
    <i name="alphaZ">      0.04144063 </i>
    <i name="ewald">    702.78484410 </i>
    <i name="hartreedc">  -1177.80348163 </i>
    <i name="XCdc">     54.86009523 </i>
    <i name="pawpsdc">   1328.52975632 </i>
    <i name="pawaedc">  -1331.39738328 </i>
    <i name="eentropy"   <time name="dav">   76.02   76.17</time>
   <time name="total">  104.08  104.29</time>
   <energy>
    <i name="e_fr_energy">     <time name="dav">   61.56   67.49</time>
   <time   <time name="dav">   85.55   86.61</time>
   <time name="total">  122.48  128.08</time>
   <ener   <time name="dav">   75.76   75.92</time>
   <time name="total">  103.58  103.85</time>
   <energy>
    <i name="e_fr_energy">     <time name="dav">   62.11   62.72</time>
   <time   <time name="dav">   92.40   98.66</time>
   <time name="total">  126.76  134.62</time>
   <ener   <time name="dav">   77.66   77.83</time>
   <time name="total">  103.81  104.04</time>
   <energy>
    <i name="e_fr_energy">     <time name="dav">   67.43   67.57</time>
   <time   <time name="dav">   56.   <time name="dav   <time name="total">   9   <time name="total">  105.75  114.72</time>
   <energy>
    <i name="e   <time name="total">   84.38   84.56</time>
   <energy>
    <i name="e_fr_energy">     <time name="dav">   50.51   50.62</time>
   <time   <time name="dav">   73.03   73.20</time>
   <time name="total">  114.08  115.77</time>
   <energy>
    <i name="e_fr_energy">    -35.63936776 </i>
    <i name="e_wo_entrp">    -35.63936776 </i>
    <i name="e_0_energy">    -35.63936776 </i>
   </energy>
  </scstep>
  <scstep>
   <time name="dav">   55.86   62.64</time>
   <time name="total">   87.06  100.53</time>
   <energy>
    <i name="alphaZ">      0.04144063 </i>
    <i name="ewald">    702.01327692 </i>
    <i name="hartreedc">  -1177.04435448 </i>
    <i name="XCdc">     54.85153411 </i>
    <i name="pawpsdc">   1327.13604249 </i>
    <i name="pawaedc">  -1330.00347774 </i>
    <i name="eentropy">      0.00000000 </i>
    <i name="bandstr">   -208.79917772 </i>
    <i name="atom">    596.16534815 </i>
    <i name="e_fr_energy">    -35.63936765 </i>
    <i name="e_wo_entrp">    -35.63936765 </i>
    <i name="e_0_energy">    -35.63936765 </i>
   </energy>
  </scstep>
  <structure>
   <crystal>
    <varray name="basis" >
     <v>      30.00000000       0.00000000       0.00000000 </v>
     <v>       0.00000000      30.00000000       0.00000000 </v>
     <v>       0.00000000       0.00000000      30.00000000 </v>
    </varray>
    <i name="volume">  27000.00000000 </i>
    <varray name="rec_basis" >
     <v>       0.03333333       0.00000000       0.00000000 </v>
     <v>       0.00000000       0.03333333       0.00000000 </v>
     <v>       0.00000000       0.00000000       0.03333333 </v>
    </varray>
   </crystal>
   <varray name="positions" >
    <v>       0.47560535       0.46578683       0.51675695 </v>
    <v>       0.46592340       0.50450699       0.47293246 </v>
    <v>       0.47535948       0.52471915       0.52785385 </v>
    <v>       0.48482543       0.49878475       0.50379317 </v>
    <v>       0.56973482       0.50068845       0.48671286 </v>
    <v>       0.53140335       0.50036489       0.49544317 </v>
   </varray>
  </structure>
  <varray name="forces" >
   <v>       0.01645300       0.02996668       0.08453371 </v>
   <v>       0.09401012       0.01880028      -0.07094129 </v>
   <v>       0.03030696      -0.04423292       0.07092794 </v>
   <v>       0.03367541       0.00466140      -0.02592817 </v>
   <v>       0.13691962       0.02415621       0.02404345 </v>
   <v>      -0.31136510      -0.03335166      -0.08263565 </v>
  </varray>
  <varray name="stress" >
   <v>      -0.0596  <energy>
   <i name="e_fr_energy">    -35.64262720 </i>
   <i name="e_wo_entrp">    -35   <i name="e_fr_energy">    -36.62503007 </i>
   <i name="e_wo_entrp">    <time name="totalsc">  8  <time name="totalsc">  8  <time name="totalsc">  835.53  837.24</time>
 </ca  <time name="totalsc">  7  <time name="totalsc">  821.41  837.61</time>
 </calculation>
e="totalsc">  800.36  835.55</time>
 </ca  <time name="totalsc">  796.95  835.24</time>
 </calculation>
e="totalsc">  7  <time name="totalsc">  7  <time name="totalsc">  801.97  840.59</time>
 </ca   <time name="dav">   72.55   72.70</time>
   <time   <time name="dav">   91.37   91.56</time>
   <time name="total">  124.95  125.21</time>
   <energy>
    <i name="alphaZ">      0   <time name="dav">   92.72   96.51</time>
   <time name="total">  138.68  145.26</time>
   <energy>
    <i name="alphaZ">      0.04144063 </i>
    <i name="ewald">    701.97619116 </i>
    <i name="hartreedc">  -1177.02537847 </i>
    <i name="XCdc">     54.85070350 </i>
    <i name="pawpsdc">   1327.14649432 </i>
    <i name="pawaedc">  -1330.01392849 </i>
    <i name="eentropy">      0.00000000 </i>
    <i name="bandstr">   -208.78035011 </i>
    <i name="atom">    596.16534815 <   <time name="dav">   53.27   53.37</time>
   <time   <time name="dav">   48.   <time name="dav">   74.63   74.78</time>
   <time name="total">  103.25  10   <time name="dav">   48.   <time name="dav">   51.10   52.76</time>
   <time name="total">   91.54   93.29</time>
   <ener   <time name="dav">   66.65   66.79</time>
   <time   <time name="dav">   57.   <time name="dav">   83.37   83.55</time>
   <time   <time name="dav">   67.65   71.18</time>
   <time   <time name="dav">   58.55   66.95</time>
   <time name="total">  100.92  112.14</time>
   <energy>
    <i name="e_fr_energy">    -35.639481   <time   <time name="dav">   45.   <time name="dav">   79.40   79.57</time>
   <time   <time name="dav">   60.46   61.47</time>
   <time name="total">  100.40  120.47</time>
   <energy>
    <i name="e_fr_energy">    -35.64337152 </i>
    <i name="e_wo_entrp">    -35.64337152 </i>
    <i name="e_0_energy">    -3   <time name="dav">   54.40   54.53</time>
   <time   <time name="dav">   45.98   49.92</time>
   <time name="total">   86.77   93.87</time>
   <energy>
    <i name="e_fr_energy">    -35.64337158 </i>
    <i name="e_wo_entrp">    -35.64337158 </i>
    <i name="e_0_energy">    -3   <time name="dav">   55.18   55.29</time>
   <time   <time name="dav">   45.05   48.96</time>
   <time   <time name="dav">   54.37   55.00</time>
   <time name="total">   81.45   82.61</time>
   <energy>
    <i name="alphaZ">      0.04144063 </i>
    <i name="ewald">    701.97619116 </i>
    <i name="hartreedc">  -1177.01415502 </i>
    <i name="XCdc">     54.85004253 </i>
    <i name="pawpsdc">   1326.76571460 </i>
    <i name="pawaedc">  -1329.63285657 </i>
    <i name="eentropy">      0.00000000 </i>
    <i name="bandstr">   -208.79121021 </i>
    <i name="atom">    596.16534815 </i>
    <i name="e_fr_energy">    -35.639  <structure>
   <crystal>  <structure>
   <crystal>
    <varray name="basis"   <structure>
   <crystal>
    <varray name="basis"   <structure>
   <crystal>
    <varray name="basis" >
     <v>      30.00000000       0.00000000       0.00000000 </v>
     <v>       0.00000000      30.00000000       0.00000000 </v>
     <v>       0.00000000       0.00000000      30.00000000 </v>
    </varray>
    <i name="volume">  27000.00000000 </i>
    <varray name="rec_basis" >
     <v>       0.03333333       0.00000000       0.00000000 </v>
     <v>       0.00000000       0.03333333       0.00000000 </v>
     <v>       0.00000000       0.00000000       0.03333333 </v>
    </varray>
   </crystal>
   <varray name="positions" >
    <v>       0.47560574       0.46578701       0.51676080 </v>
    <v>       0.46592305       0.50450546       0.47293199 </v>
    <v>       0.47536155       0.52471835       0.52785542 </v>
    <v>       0.48482610       0.49878391       0.50379286 </v>
    <v>       0.56973964       0.50069218       0.48671352 </v>
    <v>       0.53139646       0.50036286       0.49543876 </v>
   </varray>
  </structure>
  <varray name="forces" >
   <v>       0.01609431       0.02964744       0.08410264 </v>
   <v>       0.09303150       0.01858351      -0.07048303 </v>
   <v>       0.03012194      -0.04418509       0.07047549 </v>
   <v>       0.02799991       0.00431410      -0.02513724 </v>
   <v>       0.10355473       0.02414871       0.03148246 </v>
   <v>      -0.27080239      -0.03250868      -0.09044033 </v>
  </varray>
  <varray name="stress" >
   <v>      -0.0612  <energy>
   <i name="e_f  <energy>
   <i name="e_f  <energy>
   <i name="e_fr_energy">    -35.64299707 </i>
   <i   <i name="e_fr_energy">    -35.16463348 </i>
  <time name="totalsc">  788.05  791.14</time>
 </calculation>
e="totalsc">  787.76  790.62</time>
 </ca  <time name="totalsc">  7  <time name="totalsc">  742.80  789.78</time>
 </calculation>
e="totalsc">  744.78  787.49</time>
 </ca  <time name="totalsc">  717.14  789.45</time>
 </calculation>
e="totalsc">  729.53  786.10</time>
 </calculation>
e="totalsc">  7  <time name="totalsc">  724.58  784.   <time name="dav">   44.   <time name="dav">   69.05   69.19</time>
   <time name="total">  101.25  101.46</time>
   <en   <time   <time name="dav">   64.13   72.94</time>
   <time name="total">  108.59  121.21</time>
   <energy>
    <i name="alphaZ"   <time   <time name="dav">   71.51   82.54</time>
   <time name="total">  115.88  129.83</time>
   <energy>
    <i name="alphaZ">      0.04144063 </i>
    <i name="ewald">    702.74499174 </i>
    <i name="hartreedc">  -1177.75743236 </i>
    <i name="XCdc">     54.85975462 </i>
    <i name="pawpsdc">   1328.11701284 </i>
    <i name="pawaedc">  -1330.98452717 </i>
    <i name="eentropy">      0.00000000 </i>
      <time name="dav">   45.   <time name="dav">   56.02   56.14</time>
   <time name="total">   85.49   85.67</time>
   <energy>
     <time name="dav">   46.21   47.42</time>
   <time name="total">   88.66   9   <time name="dav">   82.81   90.55</time>
   <time name="total">  124.36  138.46</time>
   <energy>
    <i name="e_fr_energy">    -35.64220694 </i>
    <i name="e_wo_entrp">    -35.64220694 </i>
    <   <time name="dav">   42.80   48.65</time>
   <time   <time name="dav">   59.   <time name="dav">   69.13   70.00</time>
   <time name="total">  110.26  111.42</time>
   <energy>
    <i name="e_fr_energy">    -35.64216266 </i>
    <i name="e_wo_entrp">    -35.64216266 </i>
    <   <time name="dav">   46.44   46.53</time>
   <time   <time name="dav">   61.   <time name="dav">   87.29   87.48</time>
   <time name="total">  117.98  118.24</time>
   <energy>
    <i name="e_fr_energy">    -35.64228822 </i>
    <i name="e_wo_entrp">    -35.64228822 </i>
    <i name="e_0_energy">    -35.64228822 </i>
     <time   <time name="dav">   46.   <time name="dav">   53.49   53.61</time>
   <time name="total">   81.98   82.16</time>
   <energy>
    <i name="e_fr_energy">    -35.64230918 </i>
    <i name="e_wo_entrp">    -35.64230918 </i>
    <i name="e_0_energy">    -35.64230918 </i>
   </energ   <time name="dav">   59.   <time name="dav">   49.08   49.18</time>
   <time name="total">   70.15   7   <time name="dav">   64.65   64.78</time>
   <time name="total">   95.52   95.72</time>
   <energy>
    <i name="alphaZ">      0.04144063 </i>
    <i name="ewald">    709.13796796 </i>
    <i name="hartreedc">  -1185.02347875 </i>
    <i name="XCdc">     54.82746782 </i>
    <i name="pawpsdc">   1306.41370086 </i>
    <i name="pawaedc">  -1309.26705941 </i>
    <i name="eentropy">      0.00000000 </i>
    <i name="bandstr">   -207.46297039 </i>
    <i name="atom">    596.16534815 </i>
    <i name  <structure>
   <crystal>
    <varray name="basis"   <structure>
   <crystal>  <structure>
   <crystal>
    <varray name="basis" >
     <v>      30.0000000  <structure>
   <crystal>
    <varray name="basis" >
     <v>      30.00000000       0.00000000       0.00000000 </v>
     <v>       0.00000000      30.00000000       0.00000000 </v>
     <v>       0.00000000       0.00000000      30.00000000 </v>
    </varray>
    <i name="volume">  27000.00000000 </i>
    <varray name="rec_basis" >
     <v>       0.03333333       0.00000000       0.00000000 </v>
     <v>       0.00000000       0.03333333       0.00000000 </v>
     <v>       0.00000000       0.00000000       0.03333333 </v>
    </varray>
   </crystal>
   <varray name="positions" >
    <v>       0.47514015       0.46748255       0.50848602 </v>
    <v>       0.47491289       0.51233160       0.46883691 </v>
    <v>       0.47003658       0.52420199       0.52749173 </v>
    <v>       0.48493357       0.50239661       0.50273168 </v>
    <v>       0.56202267       0.48790339       0.48622672 </v>
    <v>       0.53295772       0.50570694       0.50618351 </v>
   </varray>
  </structure>
  <varray name="forces" >
   <v>      -0.06377650       0.17899021       0.06402180 </v>
   <v>      -0.06533112       0.04341374       0.18567931 </v>
   <v>      -0.39293219       0.12487153       0.14116760 </v>
   <v>      -0.11497727       0.22321608       0.25080631 </v>
   <v>       1.40487081       0.06517048       0.06556103 </v>
   <v>      -0.7  <energy>
   <i name="e_fr_energy">    -35.64276273 </i>
   <i   <i name="e_fr_energy">    -33.95326711 </i>
   <i name="e_wo_entrp">    -33.95326711 </i>
   <i   <time name="totalsc">  7  <time name="totalsc">  7  <time name="totalsc">  793.73  795.43</time>
 </ca  <time name="totalsc">  792.70  798.20</time>
 </calculation>
e="totalsc">  7  <time name="totalsc">  777.75  795.24</time>
 </calculation>
e="totalsc">  7  <time name="totalsc">  755.95  794.61</time>
 </calculation>
26</time>
 </calculation>
e="totalsc">  7  <time name="totalsc">  7   <time name="dav">   47.   <time name="dav">   66.61   66.75</time>
   <time name="total">   97.12   97.32</time>
   <en   <time   <time name="dav">   57.   <time name="dav   <time name="total">  10   <time name="total">  112.54  115.74</time>
   <energy>
    <i name="alphaZ">      0.04144063 </i>
    <i name="ewald">    702.77338791 </i>
    <i name="hartreedc">  -1177.78843761 </i>
    <i name="XCdc">     54.85980592 </i>
    <i name="pawpsdc">   1328.41377644 </i>
    <i name="pawaedc">  -1331.28133068 </i>
    <i name="eentropy">      0.00000000 </i>
    <i name="bandstr">   -208.82736379 </i>
    <i name="atom">    596.16534815 </i>
    <i name="e_fr_ener   <time name="dav">   45.   <time name="dav">   54.   <time name="dav">   81.29   81.46</time>
   <time name="total">  109.01  109.27</time>
   <energy>
     <time name="dav">   49.98   52.60</time>
   <time name="total">   91.73   97.97</time>
   <energy>
     <time name="dav">   <ti   <time name="dav">   <time name="dav">   44.   <time name="dav">   74.64   74.80</time>
   <time name="total">  103.80  104.02</time>
   <energy>
    <i name="e_fr_energy">    -35.64214011 </i>
    <i name="e_wo_entrp">    -35.64214011 </i>
    <i name   <time name="dav">   72.   <time name="dav   <time name="total">  11     <time name="dav">   84.83   85.00</time>
   <time name="total">  114.32  114.57</time>
   <energy>
    <i name="e_fr_energy">    -35.64227002 </i>
    <i name="e_wo_entrp">    -35.64227002 </i>
    <i name   <time name="dav">   54.   <time name="dav">   59.25   63.09</time>
     <time name="dav">   49.33   49.43</time>
   <time name="total">   77.23   77.39</time>
   <energy>
    <i name="e_fr_energy">    -35.64229197 </i>
    <i name="e_wo_entrp">    -35.64229197 </i>
    <i name   <time name="dav">   70.67   83.67</time>
   <time name="total">  101.   <time name="dav">   59.26   59.38</time>
   <time name="total">   81.18   81.35</time>
   <energy>
    <i name="alphaZ">      0.04144063 </i>
    <i name="ewald">    701.98994253 </i>
    <i name="hartreed   <time name="dav">   44.18   44.31</time>
   <time name="total">   75.21   78.78</time>
   <energy>
    <i name="alphaZ">      0.04144063 </i>
    <i name="ewald">    701.81087127 </i>
    <i name="hartreedc">  -1176.88054763 </i>
    <i name="XCdc">     54.84329351 </i>
    <i name="pawpsdc">   1325.19856424 </i>
    <i name="pawaedc">  -1328.06451581 </i>
    <i name="eentropy">      0.00000000 </i>
    <i name="bandstr">   -208.75431883 </i>
  <structure>
   <crystal>
    <varray name="basis" >
     <v>      30.00000000       0.00000000       0.00000000 </v>
     <v>       0.00000000      30.00000000       0.00000000 </v>
     <v>       0.0000000  <structure>
   <crystal>  <structure>
   <crystal>
    <varray name="basis" >
     <v>      30.00000000       0.00000000       0.00000000 </v>
     <v>       0.00000000      30.00000000       0.00000000 </v>
     <v>       0.00000000       0.00000000      30.00000000 </v>
    </varray>
    <i name="volume">  27000.00000000 </i>
    <varray name="rec_basis" >
     <v>       0.03333333       0.00000000       0.00000000 </v>
     <v>       0.00000000       0.03333333       0.00000000 </v>
     <v>       0.00000000       0.00000000       0.03333333 </v>
    </varray>
   </crystal>
   <varray name="positions" >
    <v>       0.47501646       0.46747909       0.50850539 </v>
    <v>       0.47477846       0.51232337       0.46884172 </v>
    <v>       0.47028993       0.52419221       0.52747988 </v>
    <v>       0.48493690       0.50233347       0.50266926 </v>
    <v>       0.56206444       0.48798885       0.48629989 </v>
    <v>       0.53292153       0.50569855       0.50616559 </v>
   </varray>
  </structure>
  <varray name="forces" >
   <v>      -0.04750328       0.16604164       0.06188279 </v>
   <v>      -0.04923408       0.04224816       0.17341232 </v>
   <v>      -0.44928021       0.14094976       0.16046855 </v>
   <v>      -0.12536256       0.25146277       0.28012564 </v>
   <v>       1.47622611       0.02560628       0.02025582 </v>
   <v>      -0.8  <energy>
   <i name="e_fr_energy">    -35.64276348 </i>
   <i name="e_wo_entrp">    -35.64276348 </i>
   <i name=   <i name="e_fr_energy">    <i name="e_fr_ener  <time name="totalsc">  783.44  785.05</time>
 </calculation>
e="totalsc">  783.34  784.99</time>
 </calculation>
e="totalsc">  783.29  784.91</time>
 </calculation>
e="totalsc">  756.10  782.44</time>
 </ca  <time name="totalsc">  734.48  783.33</time>
 </calculation>
22</time>
 </calculation>
91</time>
 </calculation>
e="totalsc">  732.26  781.51</time>
 </ca  <time name="totalsc">  7   <time name="dav">   78.05   78.27</time>
   <time name="total">  123.29  123.63</time>
   <en   <time name="total">  123.50  123.76</time>
   <en   <time name="total">  12   <time name="total">  127.41  127.72</time>
   <energy>
    <i name="alphaZ">      0.04144063 </i>
    <i name="ewald">    693.93318886 </i>
    <i name="hartreedc">  -1173.90239281 </i>
    <i name="XCdc">     54.71317261 </i>
    <i name="pawpsdc">   1286.05662400 </i>
    <i name="pawaedc">  -1288.83263460 </i>
    <i name="eentropy">      0.00000000 </i>
    <i name="bandstr">   -203.01378156 </i>
    <i name="atom">    596.16534815 </i>
    <i name="e_fr_energy">    -34.83903473 </i>
   <time name="dav">   51.66   51.79</time>
   <time   <time name="dav">   85.85   86.03</time>
   <time name="total">  125.43  125.69</time>
   <energy>
    <i name="e_fr_energy">    -35.64345620 </i>
    <i name="e_wo_entrp">    -35.643456   <time name="total">  136.28  136.57<   <time name="dav">   57.76   57.89</time>
   <time   <time name="dav">   62.96   63.10</time>
   <time name="total">  112.08  112.32</time>
   <energy>
    <i name="e_fr_energy">    -35.64345631 </i>
    <i name="e_wo_ent   <time name="dav   <time name="total">  11   <time name   <time name="dav">   73.51   73.66</time>
   <time   <time name="dav">   55.02   55.13</time>
   <time name="total">  103.26  103.48</time>
   <energy>
    <i name="e_fr_energy">    -35.64345843 </i>
    <i name="e_wo_ent   <time name="dav">   94.90   95.11</time>
   <time name   <time name="dav">   57.19   57.30</time>
   <time   <time name="dav">   56.67   56.79</time>
   <time name="total">  105.17  105.40</time>
   <energy>
    <i name="e_fr_energy">    -35.64345906 </i>
    <i name="e_wo_ent   <time name="dav">   71.32   71.48</time>
   <time name   <time name="dav">   68.13   68.26</time>
   <time   <time name="dav">   49.88   49.98</time>
   <time name="total">   89.97   90.16</time>
   <energy>
    <i name="alphaZ">      0.04144063 </i>
    <i name="ewald">    70   <time name="dav">   64.71   64.85</time>
   <time name="total">   88.47   88.66</time>
   <energy>
    <i name="alphaZ">      0.04144063 </i>
    <i name="ewald">    702.80394846 </i>
    <i name="hartreedc">  -1177.77344753 </i>
    <i name="XCdc">     54.86219195 </i>
    <i name="pawpsdc">   1328.50805033 </i>
    <i name="pawaedc">  -1331.37567642 </i>
    <i name="eentropy">      0.00000000 </i>
    <i name="bandstr">   -208  <structure>
   <crystal>
    <varray name="basis"   <structure>
   <crystal>
    <varray name="basis" >
     <v>      30.00000000       0.00000000       0.00000000 </v>
     <v>       0.00000000      30.00000000       0.0  <structure>
   <crystal>
    <varray name="basis" >
     <v>      30.00000000       0.00000000       0.00000000 </v>
     <v>       0.00000000      30.00000000       0.00000000 </v>
     <v>       0.00000000       0.00000000      30.00000000 </v>
    </varray>
    <i name="volume">  27000.00000000 </i>
    <varray name="rec_basis" >
     <v>       0.03333333       0.00000000       0.00000000 </v>
     <v>       0.00000000       0.03333333       0.00000000 </v>
     <v>       0.00000000       0.00000000       0.03333333 </v>
    </varray>
   </crystal>
   <varray name="positions" >
    <v>       0.49829217       0.45380952       0.52473080 </v>
    <v>       0.46324300       0.48407471       0.48711674 </v>
    <v>       0.47850736       0.50785059       0.53945072 </v>
    <v>       0.49024358       0.48705699       0.51166879 </v>
    <v>       0.55990381       0.52204917       0.47406750 </v>
    <v>       0.52830123       0.50613092       0.49133581 </v>
   </varray>
  </structure>
  <varray name="forces" >
   <v>       0.01260335      -0.03528414      -0.02401026 </v>
   <v>      -0.01634866      -0.02796052      -0.01912423 </v>
   <v>       0.05571163       0.06482797      -0.01135534 </v>
   <v>      -0.06482928      -0.04512604       0.02100602 </v>
   <v>      -0.05139033      -0.02795416       0.03360690 </v>
   <v>       0.06425329       0.07149688      -0.00012310 </v>
  </varray>
  <v  <energy>
   <i name="e_fr_energy">    <i name="e_fr_energy">    -36.62594169 </i>
   <i   <i name="e_fr_energy">    <i name="e_f   <i    <i name="e_wo_entrp">    <time name="totalsc">  8  <time name="totalsc">  831.09  833.09</time>
 </calculation>
e="totalsc">  8  <time name="totalsc">  8  <time name="totalsc">  8  <time name="t  <time name="totalsc">  831.93  833.66</time>
 </calculation>
e="totalsc">  831.72  833.52</time>
 </calculation>
47</time>
 </ca  <time name="totalsc">  831.70  833.49</time>
 </ca  <time name="totalsc">  8   <time name="dav">   79.51   79.79</time>
   <time name="total">  12   <time name="total">  127.60  127.92</time>
   <energy>
    <i name="alphaZ"   <time name="total">  12   <time name="total">  130.00  130.31</time>
   <energy>
    <i name="alphaZ">      0.04144063 </i>
    <i name="ewald">    693.94851427 </i>
    <i name="hartreedc">  -1173.9084217   <time name="total">  129.91  130.21</time>
   <energy>
    <i name="alphaZ">      0.04144063 </i>
    <i name="ewald">    702.81990748 </i>
    <i name="hartreedc">  -1177.77319598 </i>
    <i name="XCdc">     54.86271771 </i>
    <i name="pawpsdc">   1328.49310013 </i>
    <i name="pawaedc">  -1331.36074377 <   <time name="dav">   59.   <time name="dav">   77.30   80.89</time>
   <time name="total">  123.56  127.70</time>
   <energy>
    <i name="e_fr_energy">    -35.64344400 </i>
    <i name="e_wo_entrp">    -35.64344400 </i>
      <time name="total">  136.37  136.67</time>
   <ener   <time name="dav">   59.   <time name="dav">   81.36   89.07</time>
   <time name="total">  126.12  134.20</time>
   <energy>
    <i name="e_fr_energy">    -35.64344245 </i>
    <i name="e_wo_entrp">    -35.64344245 </i>
    <i name="e_0_energy">    -35.64344245 </i>
   </energ   <time name="dav">   60.   <time name="dav">   52.22   52.32</time>
   <time name="total">   94.98   95.17</time>
   <energy>
    <i name="e_fr_energy">    -35.64344603 </i>
    <i name="e_wo_entrp">    -35.64344603 </i>
    <i name="e_0_energy">    -35.64344603 </i>
   </energ   <time name="dav">   63.   <time name="dav">   53.74   61.53</time>
   <time name="total">   96.75  104.91</time>
   <energy>
    <i name="e_fr_energy">    -35.64344681 </i>
    <i name="e_wo_entrp">    -35.64344681 </i>
    <i name="e_0_energy">    -35.64344681 </i>
   </energ   <time name="dav">   50.   <time name="dav">   47.01   49.09</time>
   <time name="total">   82.50   86.73</time>
   <energy>
    <i name="alphaZ">      0.04144063 </i>
    <i name="ewald">    702.82821200 </i>
    <i name="hartreedc">  -1177.82918810 </i>
    <i name="XCdc">     54.86251112 </i>
    <i name="pawpsdc">   1328.87046919 </i>
    <i name="pawaedc">  -1331.73849085 </i>
    <i name="eentropy">      0.00000000 </i>
    <i name="bandstr">   -208.84374964 </i>
    <i name="atom">    596.16534815 </i>
    <i name="e_fr_energy">    -35.64344750 </i>
    <i name="e_wo_entrp">    -35.64344750 </i>
    <i name="e_0_energy">    -35.64344750 </i>  <structure>
   <crystal>  <structure>
   <crystal>
    <varray name="basis" >
     <v>      30.00000000       0.00000000       0.00000000 </v>
     <v>       0.00000000      30.00000000       0.00000000 </v>
     <v>       0.00000000       0.00000000      30.00000000 </v>
    </varray>
    <i name="volume">  27000.00000000 </i>
    <varray name="rec_basis" >
     <v>       0.03333333       0.00000000       0.00000000 </v>
     <v>       0.00000000       0.03333333       0.00000000 </v>
     <v>       0.00000000       0.00000000       0.03333333 </v>
    </varray>
   </crystal>
   <varray name="positions" >
    <v>       0.48202887       0.45593860       0.51297775 </v>
    <v>       0.46250168       0.50593847       0.48701816 </v>
    <v>       0.48401518       0.50761637       0.54262307 </v>
    <v>       0.48766712       0.49198425       0.50969080 </v>
    <v>       0.56701590       0.50684891       0.47844769 </v>
    <v>       0.53096052       0.50007946       0.49265080 </v>
   </varray>
  </structure>
  <varray name="forces" >
   <v>       0.00312031      -0.00462004      -0.00275990 </v>
   <v>      -0.00298429       0.00305889      -0.00088743 </v>
   <v>       0.00382360       0.00492530      -0.00041484 </v>
   <v>      -0.00025175       0.00036392      -0.00236886 </v>
   <v>       0.03899111       0.00538160      -0.01650862 </v>
   <v>      -0.04269897      -0.00910967       0.02293965 </v>
  </varray>
  <varray name="stress" >
   <v>      -0.04926126       0.00183897      -0.00390542 </v>
   <v>       0.00183897      -0.05817986      -0.00047206 </v>
   <v>      -0.00390542      -0.00047206      -0.  <energy>
   <i name="e_fr_energy">    <i name="e_fr_energy">    <i name="e_fr_energy">    -36.70494752 </i>
   <i name="e_wo_entrp">    -36.70494752 </i>
   <i   <time name="totalsc">  814.90  855.92</time>
 </calculation>
02</time>
 </ca  <time name="totalsc">  822.32  854.97</time>
 </calculation>
69</time>
 </ca  <time name="totalsc">  851.68  853.49</time>
 </ca  <time name="totalsc">  851.80  853.60</time>
 </calculation>
e="totalsc">  8  <time name="totalsc">  851.74  853.54</time>
 </calculation>
e="totalsc">  851.45  853.40</time>
 </ca   <time name="dav">   79.64   79.83</time>
   <time name="total">  123.12  123.51</time>
   <energy>
    <i name="alphaZ">      0.04144063 </i>
    <i name="ewald">    693.91069470 </i>
    <i name="hartreedc">  -1173.88854059 </i>
    <i n   <time name="total">  126.42  126.71</time>
   <energy>
    <i name="alphaZ">      0.04144063 </i>
    <i name="ewald">    702.81545597 </i>
    <i name="hartreedc">  -1177.77206006 </i>
    <i name="XCdc">     54.86387038 </i>
    <i name="pawpsdc">   1328.83979629 </i>
    <i name="pawaedc">  -1331.70777983 </i>
    <i name="eentropy">      0.00000000 </i>
    <i name="bandstr">   -208.88865961 </i>
    <i name="atom">      <time name="dav">   55.   <time name="dav   <time name="total">  10   <time name="total">  106.65  106.93</time>
   <energy>
     <time name="dav">   91.45   91.64</time>
   <time name="total">  125.48  125.75</time>
   <energy>
    <i na   <time name="total">  116.70  116.95<   <time name="dav">   48.68   52.26</time>
   <time name="total">   90.32   94.33</time>
   <energy>
    <i name="e_fr_energy">     <time name="dav">   71.57   71.72</time>
   <time name="total">  101.48  101.69</time>
   <energy>
    <i name="e_fr_energy">    -35.64305355 </i>
   <time name="dav">   50.49   50.70</time>
   <time name="total">   98.30   99.62</time>
   <energy>
    <i name="e_fr_energy">     <time name="dav">   61.44   61.57</time>
   <time name="total">    <time name="dav">   78.74   78.91</time>
   <time name="total">  112.84  113.09<   <time name="dav">   39.10   40.52</time>
   <time name="total">   86.44   92.89</time>
   <energy>
    <i name="e_fr_energy">     <time name="dav">   49.77   49.88</time>
   <time name="total">    <time name="dav">   51.66   51.76</time>
   <time name="total">   83.18   83.36<   <time name="dav">   47.93   49.07</time>
   <time name="total">   85.90   89.06</time>
   <energy>
    <i name="alphaZ">      0.04144063 </i>
    <i name="ewald">    693.91069470 </i>
    <i nam   <time name="dav">   56.03   56.15</time>
   <time name="total">   80.06   80.23</time>
   <energy>
    <i name="alph   <time name="dav">   56.90   59.90</time>
   <time name="total">   92.47   95.57</time>
   <energy>
    <i name="alphaZ">      0.04144063 </i>
    <i name="ewald">    709.56083812 </i>
    <i name="hartreedc">  -1185.40191000 </i>
    <i name="XCdc">     54.83904617 </i>
    <i name="pawpsdc">   1308.39534260 </i>
    <i name="pawaedc">  -  <structure>
   <crystal>
    <varray name="basis" >
     <v>      30.00000000       0.00000000       0.00000000 </v>
     <v>       0.00000000      30.00000000       0.00000000 </v>
     <v>       <structure>
   <crystal>
    <varray name="basis" >
     <v>      30.00000000       0.00000000       0.00000000 </v>
  <structure>
   <crystal>
    <varray name="basis" >
     <v>      30.00000000       0.00000000       0.00000000 </v>
     <v>       0.00000000      30.00000000       0.00000000 </v>
     <v>       0.00000000       0.00000000      30.00000000 </v>
    </varray>
    <i name="volume">  27000.00000000 </i>
    <varray name="rec_basis" >
     <v>       0.03333333       0.00000000       0.00000000 </v>
     <v>       0.00000000       0.03333333       0.00000000 </v>
     <v>       0.00000000       0.00000000       0.03333333 </v>
    </varray>
   </crystal>
   <varray name="positions" >
    <v>       0.47503332       0.46748370       0.50848804 </v>
    <v>       0.47479357       0.51230069       0.46884586 </v>
    <v>       0.47027977       0.52419558       0.52748421 </v>
    <v>       0.48494379       0.50234288       0.50268030 </v>
    <v>       0.56203425       0.48796996       0.48627450 </v>
    <v>       0.53292365       0.50572163       0.50618957 </v>
   </varray>
  </structure>
  <varray name="forces" >
   <v>      -0.04892568       0.16377872       0.06745868 </v>
   <v>      -0.05118313       0.04860577       0.17022554 </v>
   <v>      -0.45057191       0.14078802       0.16021664 </v>
   <v>      -0.13144537       0.24677394       0.27740205 </v>
   <v>       1.43711176       0.05006063       0.  <energy>
   <i name="e_fr_energy">    <i name="e_fr_energy">    -35.64338003 </i>
   <i name="e_wo_entrp">    -35.64338003 </i>
   <i name="e_0_energy">      0.  <time name="totalsc">  797.63  816.52</time>
 </ca  <time name="totalsc">  764.06  816.54</time>
 </ca  <time name="totalsc">  813.73  815.62</time>
 </calculation>
60</time>
 </calculation>
>  8  <time name="totalsc">  8  <time name="totalsc">  813.91  815.59</  <time name="totalsc">  813.82  815.54</time>
 </calculation>
01</time>
 </calculation>
14</time>
 </calculation>
 <calculation>
  <scstep>
   <time name="dav">   72.   <time name="dav   <time name="total">  11   <time name="total">  110.59  124.15</time>
   <energy>
    <i name="alphaZ">      0.04144063 </i>
    <i name="ewald">    702.78204932 </i>
    <i name="hartreedc">  -1177.78476120 </i>
    <i name="XCdc">     54.85995892 </i>
    <i name="pawpsdc">   1328.32516186 </i>
    <i name="pawaedc">  -1331.19266471 </i>
    <i name="eentropy">      0.00000000 </i>
    <i name="bandstr">   -208.83991421 </i>
    <i name="atom">    596.16534815 </i>
    <i name="e_fr_energy">    -35.64338123 </i>
    <i name="e_wo_entrp">    -35.64338123 </i>
    <i name="e_0_energy">    -35.64338123 </i>
   </energ   <time name="dav">   65.   <time name="dav   <time name="total">  11   <time name="total">  132.36  148.26</time>
   <energy>
    <i name="e_fr_energy">    -35.64345599 </i>
    <i name="e_wo_entrp">    -35.64345599 </i>
    <i name="e_0_energy">    -35.64345599 </   <time name   <time name="dav">   62.   <time name="dav">   84.01   84.26</time>
   <time name="total">  133.77  137.69</time>
   <energy>
    <i name="e_fr_energy">    -35.64338114 </i>
    <i name="e_wo_entrp">    -35.64338114 </i>
    <i name="e_0_energy">    -35.64338114 </i>
   </energ   <time name="dav">   52.   <time name="dav">   84.21   90.71</time>
   <time name="total">  132.96  143.44</time>
   <energy>
    <i name="e_fr_energy">    -35.64345614 </i>
    <i name="e_wo_entrp">    -35.64345614 </i>
    <i name="e_0_energy">    -35.64345614 </i>
   </energ   <time name="dav">   37.   <time name="dav">   31.01   31.06</time>
   <time name="total">   61.27   63.53</time>
   <energy>
    <i name="e_fr_energy">    -35.64345629 </i>
    <i name="e_wo_entrp">    -35.64345629 </i>
    <i name="e_0_energy">    -35.64345629 </i>
   </energ   <time name="dav">   31.   <time name="dav">   30.87   30.92</time>
   <time name="total">   48.64   48.73</time>
   <energy>
    <i name="alphaZ">      0.04144063 </i>
    <i name="ewald">    702.72604681 </i>
    <i name="hartreedc">  -1177.74552523 </i>
    <i name="XCdc">     54.85874144 </i>
    <i name="pawpsdc">   1327.93894545 </i>
    <i name="pawaedc">  -1330.80629974 </i>
    <i name="eentropy">      0.00000000 </i>
    <i name="bandstr">   -208.82215393 </i>
    <i name="atom">    596.16534815 </i>
    <i name="e_fr_energy">    -35.64345642 </i>
    <i name="e_wo_entrp">    -35.64345642 </i>
    <i name="e_0_energy">    -35.64345642 </i>  <structure>
   <crystal>  <structure>
   <crystal>
    <varray name="basis" >
     <v>      30.00000000       0.00000000       0.00000000 </v>
     <v>       0.00000000      30.00000000       0.00000000 </v>
     <v>       0.00000000       0.00000000      30.00000000 </v>
    </varray>
    <i name="volume">  27000.00000000 </i>
    <varray name="rec_basis" >
     <v>       0.03333333       0.00000000       0.00000000 </v>
     <v>       0.00000000       0.03333333       0.00000000 </v>
     <v>       0.00000000       0.00000000       0.03333333 </v>
    </varray>
   </crystal>
   <varray name="positions" >
    <v>       0.48203030       0.45593663       0.51297668 </v>
    <v>       0.46250049       0.50593929       0.48701771 </v>
    <v>       0.48401638       0.50761812       0.54262288 </v>
    <v>       0.48766627       0.49198406       0.50969021 </v>
    <v>       0.56702613       0.50685048       0.47844342 </v>
    <v>       0.53094984       0.50007719       0.49265759 </v>
   </varray>
  </structure>
  <varray name="forces" >
   <v>       0.00193226      -0.00375269      -0.00234018 </v>
   <v>      -0.00358555       0.00254758      -0.00065120 </v>
   <v>       0.00229632       0.00394148      -0.00052878 </v>
   <v>      -0.00869815      -0.00177421       0.00213888 </v>
   <v>      -0.02920611      -0.00720316       0.01067997 </v>
   <v>       0.03726123       0.00624101      -0.00929869 </v>
  </varray>
  <varray name="stress" >
   <v>      -0.05260894       0.00121495      -0.00263182 </v>
   <v>       0.00121495      -0.05839042      -0.00024988 </v>
   <v>      -0.00263182      -0.00024988      -0.  <energy>
   <i name="e_fr_energy">    <i name="e_fr_energy">    <i name="e_fr_energy">    -36.62595040 </i>
   <i name="e_wo_entrp">    -36.62595040 </i>
   <i   <time name="totalsc">  7  <time name="totalsc">  703.75  744.26</time>
 </calculation>
e="totalsc">  7  <time name="totalsc">  741.39  742.96</time>
 </calculation>
e="totalsc">  7  <time name="totalsc">  7  <time name="t  <time name="totalsc">  741.33  742.95</time>
 </calculation>
</ca  <time name="totalsc">  741.27  742.77</time>
 </calculation>
   <time name="dav">   54.30   54.41</time>
   <time name="total">   81.63   81.79</time>
   <energy>
    <i name="alphaZ">      0.04144063 </i>
    <i name="ewald">    702.60099175 </i>
    <i name="hartreed   <time name="dav">   54.25   54.36</time>
   <time name="total">   86.03   86.20</time>
   <energy>
    <i name="alphaZ">      0.04144063 </i>
    <i name="ewald">    702.15985766 </i>
    <i name="hartreedc">  -1179.87925657 </i>
    <i name="XCdc">     54.29679926 </i>
    <i name="pawpsdc">   1162.72288258 </i>
    <i name="pawaedc">  -1165.42041578 </i>
    <i name="eentropy">      0.00000000 </i>
    <i name="bandstr">   -204.03992668 </i>
    <i name   <time name="dav">   41.02   41.11</time>
   <time name="total">   66.61   66.74</time>
   <energy>
    <i name="e_fr_energy">    -35.64286608 </i>
    <i name="e_wo_entrp">    -35.64286608 </i>
    <i name="e_0_energy">    -35.6428   <time name="dav">   41.11   41.19</time>
     <time name="dav">   46.68   46.77</time>
   <time name="total">   71.38   71.52</time>
   <energy>
    <i name="e_fr_energy">    -35.64286640 </i>
    <i name="e_wo_entrp">    -35.64286640 </i>
    <i name="e_0_energy">    -35.64286640 </i>
   </energy>
  </scstep>
  <scstep     <time name="dav">   48.48   48.58</time>
   <time name="total">   73.23   73.38</time>
   <energy>
    <i name="e_fr_energy">    -35.64286705 </i>
    <i name="e_wo_entrp">    -35.64286705 </i>
    <i name="e_0_energy">    -35.64286705 </i>
   </energy>
  </scstep>
  <scstep>
   <time name="dav">   42.59   42.67</time>
   <time name="total">   67.16   67.29</time>
   <energy>
    <i name="e_fr_energy">    -35.64286744 </i>
    <i name="e_wo_entrp">    -35.64286744 </i>
    <i name="e_0_energy">    -35.64286744 </i>
   </energy>
  </scstep>
  <scstep>
   <time name="dav">   32.80   32.86</time>
   <time name="total">   51.31   51.41</time>
   <energy>
    <i name="alphaZ">      0.04144063 </i>
    <i name="ewald">    702.60099175 </i>
    <i name="hartreedc">  -1177.60609845 </i>
    <i name="XCdc">     54.85964578 </i>
    <i name="pawpsdc">   1327.98183464   <time name="dav">   38.46   38.53</time>
   <time name="total">   55.29   55.40</time>
   <energy>
    <i name="alphaZ">      0.04144063 </i>
    <i name="ewald">    701.41124587 </i>
    <i name="hartreedc">  -1176.58347971 </i>
    <i name="XCdc">     54.82461193 </i>
    <i name="pawpsdc">   1322.43421698 </i>
    <i name="pawaedc">  -1325  <structure>
   <crystal>
    <varray name="basis" >
     <v>      30.00000000       0.00000000       0.00000000 </v>
     <v>       0.00000000      30.00000000       0.00000000 </v>
     <v>       0.00000000       0.00000000      30.00000000 </v>
    </varray>
    <i name="volume">  27000.00000000 </i>
    <v  <structure>
   <crystal>
    <varray name="basis" >
     <v>      30.00000000       0.00000000       0.00000000 </v>
     <v>       0.00000000      30.00000000       0.00000000 </v>
     <v>       0.00000000       0.00000000      30.00000000 </v>
    </varray>
    <i name="volume">  27000.00000000 </i>
    <varray name="rec_basis" >
     <v>       0.03333333       0.00000000       0.00000000 </v>
     <v>       0.00000000       0.03333333       0.00000000 </v>
     <v>       0.00000000       0.00000000       0.03333333 </v>
    </varray>
   </crystal>
   <varray name="positions" >
    <v>       0.48669193       0.46262039       0.52399495 </v>
    <v>       0.46721478       0.48785124       0.47341356 </v>
    <v>       0.46875299       0.51968689       0.52393049 </v>
    <v>       0.48588546       0.49370912       0.50448079 </v>
    <v>       0.56718677       0.51808340       0.48681281 </v>
    <v>       0.53008828       0.50743522       0.49461928 </v>
   </varray>
  </structure>
  <varray name="forces" >
   <v>      -0.02223214       0.06896972      -0.03450807 </v>
   <v>       0.05755185       0.01521290       0.05739333 </v>
   <v>       0.03186311      -0.04530958      -0.02426385 </v>
   <v>       0.03431541      -0.00111480      -0.00323105 </v>
   <v>      -0.07837105      -0.00196823       0.0072  <energy>
   <i name="e_fr_energy">    -35.64286774 </i>
   <i name="e_wo_entrp">    -35.64286774 </i>
   <i name="e_0_energy">      0.00000000 </i>
  </energy>
  <time name="totalsc">  569.53  570.66</time>
 </ca  <time name="totalsc">  5  <time name="totalsc">  569.83  570.88</time>
 </calculation>
e="totalsc">  567.05  568.10</time>
 </ca  <time name="totalsc">  566.65  567.81</time>
 </calculation>
e="totalsc">  5  <time name="totalsc">  566.62  567.73</time>
 </calculation>
59</time>
 </calculation>
84</time>
 </ca   <time name="dav">   34.36   34.44</time>
   <time name="tota   <time name="dav">   49.44   49.54</time>
   <time name="total">   70.76   70.90</time>
   <energy>
    <i name="alphaZ">      0.04144063 </i>
      <time name="total">   71.12   7   <time name="dav">   47.90   48.00</time>
   <time name="total">   80.37   80.53</time>
   <energy>
    <i name="alphaZ">      0.04144063 </i>
    <i name="ewald">    702.6   <time name="total">   84.09   84.24</time>
   <energy>
    <i name="alphaZ">      0.04144063 </i>
    <i name="ewald">    709.65227867 </i>
    <i name="hartreedc">  -1185.48542105 </i>
    <i name="XCdc">     54.83990253 </i>
    <i name="pawpsdc"   <time name="dav">   34.20   34.27</time>
   <time name="tota   <time name="dav">   62.48   62.60</time>
   <time name="total">   83.69   83.85</time>
   <energy>
    <i name="e_fr_energy">    -35.64149315 </i>
    <i name="e_wo_entrp">    -35.64149315 </i>
    <i name="e_0_ene   <time name="dav">   34.50   34.58</time>
   <time name="tota   <time name="dav">   37.59   37.67</time>
   <time   <time name="dav">   58.79   58.90</time>
   <time name="total">   79.28   79.44</time>
   <energy>
    <i name="e_fr_energy">    -35.64225278 </i>
    <i name="e_   <time name="dav">   34.38   34.44</time>
   <time name="tota   <time name="dav">   43.96   44.04</time>
   <time   <time name="dav">   44.27   44.35</time>
   <time name="total">   63.89   64.01</time>
   <energy>
    <i name="e_fr_energy">    -35.64231641 </i>
    <i name="e_   <time name="dav">   34.20   34.26</time>
   <time name="tota   <time name="dav">   30.92   30.98</time>
   <time   <time name="dav">   37.37   37.44</time>
   <time name="total">   57.19   57.30</time>
   <energy>
    <i name="e_fr_energy">    -35.64233113 </i>
    <i name="e_   <time name="dav">   33.83   33.90</time>
   <time name="tota   <time name="dav">   29.32   29.37</time>
   <time   <time name="dav">   33.28   33.34</time>
   <time name="total">   47.98   48.08</time>
   <energy>
    <i name="alphaZ">      0.04144063 </i>
    <i name="ewald">    701.02897197 </i>
    <i name="hartreedc">  -1176.24435277 </i>
    <i name="XCdc">     54.81464930 </i>
    <i name="pawpsdc">   1320.72945633 </i>
    <i name="pawaedc">  -1323.59262695 </i>
    <i name="eentropy">      0.00000000 </i>
    <i name="bandstr">   -208.58522775 </i>
    <i name="atom">    596.16534815 </i>
    <i name="e_fr_energy">    -35.64234110 </i>
      <structure>
   <crystal>
    <varray name="basis" >
     <v>      30.00000000       0.00000000       0.00000000 <  <structure>
   <crystal>
    <varray name="basis" >
     <v>      30.00000000       0.00000000       0.00000000 </v>
     <v>     <structure>
   <crystal>
    <varray name="basis" >
     <v>      30.0000000  <structure>
   <crystal>
    <varray name="basis" >
     <v>      30.00000000       0.00000000       0.00000000 </v>
     <v>       0.00000000      30.00000000       0.00000000 </v>
     <v>       0.00000000       0.00000000      30.00000000 </v>
    </varray>
    <i name="volume">  27000.00000000 </i>
    <varray name="rec_basis" >
     <v>       0.03333333       0.00000000       0.00000000 </v>
     <v>       0.00000000       0.03333333       0.00000000 </v>
     <v>       0.00000000       0.00000000       0.03333333 </v>
    </varray>
   </crystal>
   <varray name="positions" >
    <v>       0.48203056       0.45593623       0.51297644 </v>
    <v>       0.46250019       0.50593940       0.48701760 </v>
    <v>       0.48401649       0.50761840       0.54262283 </v>
    <v>       0.48766551       0.49198385       0.50969039 </v>
    <v>       0.56702368       0.50685001       0.47844443 </v>
[...]
     <v>       0.00000000       0.03333333       0.00000000 </v>
     <v>       0.00000000       0.00000000       0.03333333 </v>
    </varray>
   </crystal>
   <varray name="positions" >
    <v>       0.47139464       0.46805143       0.50925123 </v>
    <v>       0.47107228       0.51276416       0.46957522 </v>
    <v>       0.47325341       0.52470146       0.52804222 </v>
    <v>       0.48418407       0.50160303       0.50192279 </v>
    <v>       0.56887342       0.49276457       0.49134000 </v>
    <v>       0.53124844       0.50009724       0.49985327 </v>
   </varray>
  </structure>
  <varray name="forces" >
   <v>      -0.05862572       0.03513276       0.01479509 </v>
   <v>      -0.05899789       0.01171664       0.03579265 </v>
   <v>      -0.05509573       0.04286373       0.04842234 </v>
   <v>      -0.06734196       0.03393013       0.03930095 </v>
   <v>       0.44497375       0.08966199       0.09783348 </v>
   <v>      -0.20491245      -0.21330526      -0.23614451 </v>
  </varray>
  <varray name="stress" >
   <v>       0.00354127      -0.00699259      -0.00835653 </v>
   <v>      -0.00699259      -0.05994338       0.00094915 </  <energy>
   <i name="e_fr_energy">    -35.64291385 </i>
   <i name="e_wo_entrp">    -35.64291385 </i>
   <i name="e_0_energy">      0.00000000 </i>
  </energy>
  <time name="totalsc">  580.05  581.25</time>
  <eigenvalues>
   <array>
    <dimension    <array>
    <dimension    <dimension dim="2">kpoi   <array>
    <dimension dim="1">band</dimension>
    <dimension dim="2">kpoint</dimension>
    <dimension dim="3">spin</dimension>
    <field>eigene</field>
    <field>occ</field>
    <set>
     <set comment="spin 1">
       <set>
     <set comment="spin 1">
      <set comment="kpoint 1">
       <r>  -23.8905    1.0000 </r>
       <r>  -19.2996    1.0000 </r>
       <r>  -13.8831    1.0000 </r>
       <r>  -11.7988    1.0000 </r>
       <r>  -11.7984    1.0000 </r>
       <r>   -8.3027    1.0000        <r>   -7.1273    1.0000 </r>
       <r>   -0.9650    0.0000 </r>
       <r>   -0.6842    0.0000 </r>
       <r>   -0.5497    0.0000 </r>
       <r>    0.0245    0.0000 </r>
      </set>
      <set comment="kpoint 2">
       <r>  -23.9496    1.0000 </r>
       <r>  -19.2752    1.0000 </r>
       <r>  -13.8336    1.0000 </r>
       <r>  -11.8218    1.0000 </r>
       <r>  -11.8121    1.0000 </r>
       <r>   -8.3596    1.0000 </r>
       <r>   -8.2969    1.0000 </r>
       <r>   -7.1273    1.0000 </r>
       <r>   -0.9650    0.0000 </r>
       <r>   -0.6842    0.0000 </r>
       <r>   -0.5497    0.0000 </r>
       <r>    0.0258    0.0000 </r>
      </set>
      <set comment="kpoint 3">
       <r>  -23.9496    1.0000 </r>
       <r>  -19.2752    1.0000 </r>
       <r>  -13.8336    1.0000 </r>
       <r>  -11.8218    1.0000 </r>
       <r>  -11.8121    1.0000 </r>
       <r>   -8.3596    1.0000 </r>
       <r>   -8.2969    1.0000 </r>
       <r>   -7.1273    1.0000 </r>
       <r>   -0.9650    0.0000 </r>
       <r>   -0.6842    0.0000 </r>
       <r>   -0.5497    0.0000 </r>
       <r>    0.0254    0.0000 </r>
      </set>
      <set comment="kpoint 4">
       <r>  -23.9496    1.0000 </r>
       <r>  -19.2752    1.0000 </r>
       <r>  -13.8336    1.0000 </r>
       <r>  -11.8218    1.0000 </r>
       <r>  -11.8121    1.0000 </r>
       <r>   -8.3596    1.0000 </r>
       <r>   -8.2969    1.0000 </r>
       <r>   -7.1273    1.0000 </r>
       <r>   -0.9650    0.0000 </r>
       <r>   -0.6842    0.0000 </r>
       <r>   -0.5497    0.0000 </r>
       <r>    0.0254    0.0000 </r>
      </set>
     </set>
    </set>
   </array>
  </eigenvalues>
  <separator name="orbital magnetization" >
   <v name="MAGDIPOLOUT">      0.00000000      0.00000000      0.00000000</v>
  </separator>
  <dos>
   <i name="efermi">     -6.17993817 </i>
   <total>
    <array>
     <dimension dim="1">gridpoints</dimension>
     <dimension dim="2">spin</dimension>
     <field>energy</field>
     <field>total</field>
     <field>integrated</field>
     <set>
      <set comment="spin 1">
       <r>   -25.9496     0.0000     0.0000 </r>
       <r>   -25.8563     0.0000     0.0000 </r>
       <r>   -25.7631     0.0000     0.0000 </r>
       <r>   -25.6698     0.0000     0.0000 </r>
       <r>   -25.5766     0.0000     0.0000 </r>
       <r>   -25.4833     0.0000     0.0000 </r>
       <r>   -25.3901     0.0000     0.0000 </r>
       <r>   -25.2968     0.0000     0.0000 </r>
       <r>   -25.2036     0.0000     0.0000 </r>
       <r>   -25.1103     0.0000     0.0000 </r>
       <r>   -25.0171     0.0000     0.0000 </r>
       <r>   -24.9238     0.0000     0.0000 </r>
       <r>   -24.8306     0.0000     0.0000 </r>
       <r>   -24.7373     0.0000     0.0000 </r>
       <r>   -24.6441     0.0000     0.0000 </r>
       <r>   -24.5508     0.0002     0.0000 </r>
       <r>   -24.4576     0.0033     0.0003 </r>
       <r>   -24.364       <r>   -24.1177     0.8492     0.1004 </r>
       <r>   -24.0247     2.4099     0.3246 </r>
       <r>   -23.9317     4.5030     0.7436 </r>
       <r>   -23.8386     5.5418     1.2591 </r>
       <r>   -23.7456     4.4928     1.6771 </r>
       <r>   -23.6526     2.3991     1.9003 </r>
       <r>   -23.5595     0.8435     1.9788 </r>
       <r>   -23.4665     0.1951     1.9969 </r>
       <r>   -23.3735     0.0297     1.9997 </r>
       <r>   -23.2804     0.0030     2.0000 </r>
       <r>   -23.1874     0.0002     2.0000 </r>
       <r>   -23.0943     0.0000     2.0000 </r>
       <r>   -23.0013     0.0000     2.0000 </r>
       <r>   -22.9083     0.0000     2.0000 </r>
       <r>   -22.8152     0.0000     2.0000 </r>
       <r>   -22.7222     0.0000     2.0000 </r>
       <r>   -22.6292     0.0000     2.0000 </r>
       <r>   -22.5361     0.0000     2.0000 </r>
       <r>   -22.4431     0.0000     2.0000 </r>
       <r>   -22.3501     0.0000     2.0000 </r>
       <r>   -22.2570     0.0000     2.0000 </r>
       <r>   -22.1640     0.0000     2.0000 </r>
       <r>   -22.0710     0.0000     2.0000 </r>
       <r>   -21.9779     0.0000     2.0000 </r>
       <r>   -21.8849     0.0000     2.0000 </r>
       <r>   -21.7919     0.0000     2.0000 </r>
       <r>   -21.6988     0.0000     2.0000 </r>
       <r>   -21.6058     0.0000     2.0000 </r>
       <r>   -21.5128     0.0000     2.0000 </r>
       <r>   -21.4197     0.0000     2.0000 </r>
       <r>   -21.3267     0.0000     2.0000 </r>
       <r>   -21.2336     0.0000     2.0000 </r>
       <r>   -21.1406     0.0000     2.0000 </r>
       <r>   -21.0476     0.0000     2.0000 </r>
       <r>   -20.9545     0.0000     2.0000 </r>
       <r>   -20.8615     0.0000     2.0000 </r>
       <r>   -20.7685     0.0000     2.0000 </r>
       <r>   -20.6754     0.0000     2.0000 </r>
       <r>   -20.5824     0.0000     2.0000 </r>
       <r>   -20.4894     0.0000     2.0000 </r>
       <r>   -20.3963     0.0000     2.0000 </r>
       <r>   -20.3033     0.0000     2.0000 </r>
       <r>   -20.2103     0.0000     2.0000 </r>
       <r>   -20.1172     0.0000     2.0000 </r>
       <r>   -20.0242     0.0000     2.0000 </r>
       <r>   -19.9312     0.0001     2.0000 </r>
       <r>   -19.8381     0.0013     2.0001 </r>
       <r>   -19.7451     0.0148     2.0015 </r>
       <r>   -19.6521     0.1111     2.0118 </r>
       <r>   -19.5590     0.5501     2.0630 </r>
       <r>   -19.4660     1.7912     2.2297 </r>
       <r>   -19.3729     3.8395     2.5869 </r>
       <r>   -19.2799     5.4202     3.0911 </r>
       <r>   -19.1869     5.0405     3.5601 </r>
       <r>   -19.0938     3.0876     3.8473 </r>
       <r>   -19.0008     1.2455     3.9632 </r>
       <r>   -18.9078     0.3306     3.9940 </r>
       <r>   -18.8147     0.0577     3.9993 </r>
       <r>   -18.7217     0.0066     4.0000 </r>
       <r>   -18.6287     0.0005     4.0000 </r>
       <r>   -18.5356     0.0000     4.0000 </r>
       <r>   -18.4426     0.0000     4.0000 </r>
       <r>   -18.3496     0.0000     4.0000 </r>
       <r>   -18.2565     0.0000     4.0000 </r>
       <r>   -18.1635     0.0000     4.0000 </r>
       <r>   -18.0705     0.0000     4.0000 </r>
       <r>   -17.9774     0.0000     4.0000 </r>
       <r>   -17.8844     0.0000     4.0000 </r>
       <r>   -17.7914     0.0000     4.0000 </r>
       <r>   -17.6983     0.0000     4.0000 </r>
       <r>   -17.6053     0.0000     4.0000 </r>
       <r>   -17.5123     0.0000     4.0000 </r>
       <r>   -17.4192       <r>   -17.6080     0.0000     4.0000 </r>
       <r>   -17.5149     0.0000     4.0000 </r>
       <r>   -17.4219     0.0000     4.0000 </r>
       <r>   -17.3288     0.       <r>   -17.0471       <r>   -17.2358     0.0000     4.0000 </r>
       <r>   -17.1428     0.0000     4.0000 </r>
       <r>   -17.0497     0.       <r>   -16.7680       <r>   -16.9567     0.0000     4.0000 </r>
       <r>   -16.8636     0.0000     4.0000 </r>
       <r>   -16.7706     0.       <r>   -16.4889     0.0000     4.0000 </r>
       <r>   -16.3958       <r>   -16.5845     0.0000     4.0000 </r>
       <r>   -16.4915     0.       <r>   -16.2098     0.0000     4.0000 </r>
       <r>   -16.1167       <r>   -16.3054     0.0000     4.0000 </r>
       <r>   -16.2123     0.0000     4.0000 </r>
       <r>   -16.1193     0.0000     4.0000 </r>
       <r>   -16.0262     0.0000     4.0000 </r>
       <r>   -15.9332     0.0000     4.0000 </r>
       <r>   -15.8402     0.0000     4.0000 </r>
       <r>   -15.7471     0.0000     4.0000 </r>
       <r>   -15.6541     0.0000     4.0000 </r>
       <r>   -15.5610     0.0000     4.0000 </r>
       <r>   -15.4680     0.0000     4.0000 </r>
       <r>   -15.3750     0.0000     4.0000 </r>
       <r>   -15.2819     0.0000     4.0000 </r>
       <r>   -15.1889     0.0000     4.0000 </r>
       <r>   -15.0958     0.0000     4.0000 </r>
       <r>   -15.0028     0.0000     4.0000 </r>
       <r>   -14.9097     0.0000     4.0000 </r>
       <r>   -14.8167     0.0000     4.0000 </r>
       <r>   -14.7237     0.0000     4.0000 </r>
       <r>   -14.6306     0.0000     4.0000 </r>
       <r>   -14.5376     0.0000     4.0000 </r>
       <r>   -14.4445     0.0007     4.0001 </r>
       <r>   -14.3515     0.0091     4.0009 </r>
       <r>   -14.2585     0.0752     4.0079 </r>
       <r>   -14.1654     0.4065     4.0457 </r>
       <r>   -14.0724     1.4461     4.1803 </r>
       <r>   -13.9793     3.3852     4.4953 </r>
       <r>   -13.8863     5.2185     4.9808 </r>
       <r>   -13.7932     5.2989     5.4738 </r>
       <r>   -13.7002     3.5440     5.8036 </r>
       <r>   -13.6072     1.5609     5.9488 </r>
       <r>   -13.5141     0.4525     5.9909 </r>
       <r>   -13.4211     0.0863     5.9989 </r>
       <r>   -13.3280     0.0108     5.9999 </r>
       <r>   -13.2350     0.0009     6.0000 </r>
       <r>   -1       <r>   -12.6468     0.1516     4.0160 </r>
       <r>   -12.5568     0.6690     4.0762 </r>
       <r>   -12.4668     1.9938     4.2557 </r>
       <r>   -12.3767     4.0138     4.6170 </r>
       <r>   -12.2867     5.4602     5.1086 </r>
       <r>   -12.1967     5.0202     5.5605 </r>
       <r>   -12.1067     3.1197     5.8414 </r>
       <r>   -12.0166     1.3134     5.9596 </r>
       <r>   -11.9266     0.4047     5.9961 </r>
       <r>   -11.8366     0.2748     6.0208 </r>
       <r>   -11.7466     0.8482     6.0972 </r>
       <r>   -11.6565     2.3428     6.3081 </r>
       <r>   -11.5665     4.4750     6.7109 </r>
       <r>   -11.4765     6.0566     7.2562 </r>
       <r>   -11.3865     6.4162     7.8338 </r>
       <r>   -11.2964     6.3721     8.4075 </r>
       <r>   -11.2064     6.3841     8.9822 </r>
       <r>   -11.1164     5.5401     9.4810 </r>
       <r>   -11.0264     3.5676     9.8021 </r>
       <r>   -10.9363     1.5962     9.9458 </r>
       <r>   -10.8463     0.4861     9.9896 </r>
       <r>   -10.7563     0.1001     9.9986 </r>
       <r>   -10.6662     0.0139     9.9999 </r>
       <r>   -10.5762     0.0013    10.0000 </r>
       <r>   -10.4862     0.0001    10.0000 </r>
       <r>   -10.3962     0.0000    10.0000 </r>
       <r>   -10.3061     0.0000    10.0000 </r>
       <r>   -10.2161     0.0000    10.0000 </r>
       <r>   -10.1261     0.0000    10.0000 </r>
       <r>   -10.0361     0.0000    10.0000 </r>
       <r>    -9.9460     0.0000    10.0000 </r>
       <r>    -9.8560     0.0000    10.0000 </r>
       <r>    -9.7660     0.0000    10.0000 </r>
       <r>    -9.6760     0.0000    10.0000 </r>
       <r>    -9.5859     0.0006    10.0001 </r>
       <r>    -9.4959     0.0076    10.0007 </r>
       <r>    -9.4059     0.0609    10.0062 </r>
       <r>    -9.3159     0.3286    10.0358 </r>
       <r>    -9.2258     1.1972    10.1436 </r>
       <r>    -9.1358     2.9461    10.4088 </r>
       <r>    -9.0458     4.8982    10.8498 </r>
       <r>    -8.9558     5.5037    11.3453 </r>
       <r>    -8.8657     4.1797    11.7215 </r>
       <r>    -8.7757     2.1463    11.9148 </r>
       <r>    -8.6857     0.7581    11.9830 </r>
       <r>    -8.5957     0.2775    12.0080 </r>
       <r>    -8.5056     0.5258    12.0553 </r>
       <r>    -8.4156     1.6228    12.2014 </r>
       <r>    -8.3256     3.5569    12.5216 </r>
       <r>    -8.2355     5.2807    12.9970 </r>
       <r>    -8.1455     5.3315    13.4770 </r>
       <r>    -8.0555     3.8276    13.8216 </r>
       <r>    -7.9655     2.5981    14.0555 </r>
       <r>    -7.8754     3.0516    14.3302 </r>
       <r>    -7.7854     4.6760    14.7512 </r>
       <r>    -7.6954     5.5630    15.2520 </r>
       <r>    -7.6054     4.5537    15.6619 </r>
       <r>    -7.5153     2.5243    15.8892 </r>
       <r>    -7.4253     0.9456    15.9743 </r>
       <r>    -7.3353     0.2392    15.9959 </r>
       <r>    -7.2453     0.0408    15.9995 </r>
       <r>    -7.1552     0.0047    16.0000 </r>
       <r>    -7.0652     0.0004    16.0000 </r>
       <r>    -6.9752     0.0000    16.0000 </r>
       <r>    -6.8852     0.0000    16.0000 </r>
       <r>    -6.7951     0.0000    16.0000 </r>
       <r>    -6.7051     0.0000    16.0000 </r>
       <r>    -6.6151     0.0000    16.0000 </r>
       <r>    -6.5251     0.0000    16.0000 </r>
       <r>    -6.4350     0.0000    16.0000 </r>
       <r>    -6.3450     0.0000    16.0000 </r>
       <r>    -6.2550     0.0000    16.0000 </r>
       <r>    -6.1649     0.0000    16.0000 </r>
       <r>    -6.0749     0.0000    16.0000 </r>
       <r>    -5.9849     0.0000    16.0000 </r>
       <r>    -5.8949     0.0000    16.0000 </r>
       <r>    -5.8048     0.0000    16.0000 </r>
       <r>    -5.7148     0.0000    16.0000 </r>
       <r>    -5.6248     0.0000    16.0000 </r>
       <r>    -5.5348     0.0000    16.0000 </r>
       <r>    -5.4447     0.0000    16.0000 </r>
       <r>    -5.3547     0.0000    16.0000 </r>
       <r>    -5.2647     0.0000    16.0000 </r>
       <r>    -5.1747     0.0000    16.0000 </r>
       <r>    -5.0846     0.0000    16.0000 </r>
       <r>    -4.9946     0.0000    16.0000 </r>
       <r>    -4.9046     0.0000    16.0000 </r>
       <r>    -4.8146     0.0000    16.0000 </r>
       <r>    -4.7245     0.0000    16.0000 </r>
       <r>    -4.6345     0.0000    16.0000 </r>
       <r>    -4.5445     0.0000    16.0000 </r>
       <r>    -4.4545     0.0000    16.0000 </r>
       <r>    -4.3644     0.0000    16.0000 </r>
       <r>    -4.2744     0.0000    16.0000 </r>
       <r>    -4.1844     0.0000    16.0000 </r>
       <r>    -4.0944     0.0000    16.0000 </r>
       <r>    -4.0043     0.0000    16.0000 </r>
       <r>    -3.9143     0.0000    16.0000 </r>
       <r>    -3.8243     0.0000    16.0000 </r>
       <r>    -3.7342     0.0000    16.0000 </r>
       <r>    -3.6442     0.0000    16.0000 </r>
       <r>    -3.5542     0.0000    16.0000 </r>
       <r>    -3.4642     0.0000    16.0000 </r>
       <r>    -3.3741     0.0000    16.0000 </r>
       <r>    -3.2841     0.0001    16.0000 </r>
       <r>    -3.1941     0.0015    16.0001 </r>
       <r>    -3.1041     0.0157    16.0016 </r>
       <r>    -3.0140     0.1107    16.0115 </r>
       <r>    -2.9240     0.5250    16.0588 </r>
       <r>    -2.8340     1.6811    16.2101 </r>
       <r>    -2.7440     3.6361    16.5375 </r>
       <r>    -2.6539     5.3144    17.0159 </r>
       <r>    -2.5639     5.2496    17.4885 </r>
       <r>    -2.4739     3.5047    17.8040 </r>
       <r>    -2.3839     1.5810    17.9464 </r>
       <r>    -2.2938     0.4817    17.9897 </r>
       <r>    -2.2038     0.0991    17.9986 </r>
       <r>    -2.1138     0.0137    17.9999 </r>
       <r>    -2.0238     0.0013    18.0000 </r>
       <r>    -1.9337     0.0001    18.0000 </r>
       <r>    -1.8437     0.0000    18.0000 </r>
       <r>    -1.7537     0.0000    18.0000 </r>
       <r>    -1.6636     0.0000    18.0000 </r>
       <r>    -1.5736     0.0000    18.0000 </r>
       <r>    -1.4836     0.0000    18.0000 </r>
       <r>    -1.3936     0.0000    18.0000 </r>
       <r>    -1.3035     0.0000    18.0000 </r>
       <r>    -1.2135     0.0000    18.0000 </r>
       <r>    -1.1235     0.0000    18.0000 </r>
       <r>    -1.0335     0.0002    18.0000 </r>
       <r>    -0.9434     0.0035    18.0003 </r>
       <r>    -0.8534     0.0357    18.0036 </r>
       <r>    -0.7634     0.2438    18.0255 </r>
       <r>    -0.6734     1.1267    18.1269 </r>
       <r>    -0.5833     3.5226    18.4441 </r>
       <r>    -0.4933     7.4574    19.1154 </r>
       <r>    -0.4033    10.7087    20.0795 </r>
       <r>    -0.3133    10.5290    21.0274 </r>
       <r>    -0.2232     7.5061    21.7031 </r>
       <r>    -0.1332     5.0651    22.1591 </r>
       <r>    -0.0432     4.9676    22.6063 </r>
       <r>     0.0468     5.6579    23.1157 </r>
       <r>     0.1369     5.0186    23.5675 </r>
       <r>     0.2269     3.0818    23.8449 </r>
       <r>     0.3169     1.2834    23.9604 </r>
       <r>     0.4069     0.3612    23.9930 </r>
       <r>     0.4970     0.0686    23.9991 </r>
       <r>     0.5870     0.0088    23.9999 </r>
       <r>     0.6770     0.0008    24.0000 </r>
       <r>     0.7671     0.0000    24.0000 </r>
       <r>     0.8571     0.0000    24.0000 </r>
       <r>     0.9471     0.0000    24.0000 </r>
       <r>     1.0371     0.0000    24.0000 </r>
       <r>     1.1272     0.0000    24.0000 </r>
       <r>     1.2172     0.0000    24.0000 </r>
       <r>     1.3072     0.0000    24.0000 </r>
       <r>     1.3972     0.0000    24.0000 </r>
       <r>     1.4873     0.0000    24.0000 </r>
       <r>     1.5773     0.0000    24.0000 </r>
       <r>     1.6673     0.0000    24.0000 </r>
       <r>     1.7573     0.0000    24.0000 </r>
       <r>     1.8474     0.0000    24.0000 </r>
       <r>     1.9374     0.0000    24.0000 </r>
       <r>     2.0274     0.0000    24.0000 </r>
      </set>
     </set>
    </array>
   </total>
  </dos>
 </calculation>
 <structure name="finalpos" >
  <crystal>
   <varray name="basis" >
    <v>      30.00000000       0.00000000       0.00000000 </v>
    <v>       0.00000000      30.00000000       0.00000000 </v>
    <v>       0.00000000       0.00000000      30.00000000 </v>
   </varray>
   <i name="volume">  27000.00000000 </i>
   <varray name="rec_basis" >
    <v>       0.03333333       0.00000000       0.00000000 </v>
    <v>       0.00000000       0.03333333       0.00000000 </v>
    <v>       0.00000000       0.00000000       0.03333333 </v>
   </varray>
  </crystal>
  <varray name="positions" >
   <v>       0.47221955       0.46386983       0.50558048 </v>
   <v>       0.47186549       0.50951170       0.46502314 </v>
   <v>       0.47731339       0.52056602       0.52337417 </v>
   <v>       0.48483471       0.49662576       0.49637466 </v>
   <v>       0.53395016       0.49495270       0.49403368 </v>
   <v>       0.55983915       0.51446280       0.51559387 </v>
  </varray></modeling>
e>
</modeling>
