  22  22   0   0
  0.1227273E+04  0.3000000E-08  0.3000000E-08  0.3000000E-08  0.0000000E+00
  1.000000000000000E-004
  CAR 
 unknown system                          
      2.19639445    -28.21840797  301     -4.49407003      1.00000000
    -28.218  0.0000E+00  0.0000E+00
    -28.117  0.0000E+00  0.0000E+00
    -28.016  0.0000E+00  0.0000E+00
    -27.914  0.0000E+00  0.0000E+00
    -27.813  0.0000E+00  0.0000E+00
    -27.711  0.0000E+00  0.0000E+00
    -27.610  0.0000E+00  0.0000E+00
    -27.509  0.0000E+00  0.0000E+00
    -27.407  0.0000E+00  0.0000E+00
    -27.306  0.4818E-15  0.4885E-16
    -27.205  0.1013E-12  0.1032E-13
    -27.103  0.1285E-10  0.1313E-11
    -27.002  0.9842E-09  0.1011E-09
    -26.900  0.4558E-07  0.4722E-08
    -26.799  0.1278E-05  0.1343E-06
    -26.698  0.2175E-04  0.2339E-05
    -26.596  0.2248E-03  0.2513E-04
    -26.495  0.1415E-02  0.1686E-03
    -26.394  0.5427E-02  0.7188E-03
    -26.292  0.1271E-01  0.2007E-02
    -26.191  0.1818E-01  0.3850E-02
    -26.089  0.1590E-01  0.5462E-02
    -25.988  0.8513E-02  0.6325E-02
    -25.887  0.2986E-02  0.6627E-02
    -25.785  0.1920E-02  0.6822E-02
    -25.684  0.5371E-02  0.7367E-02
    -25.582  0.1255E-01  0.8639E-02
    -25.481  0.1813E-01  0.1048E-01
    -25.380  0.1602E-01  0.1210E-01
    -25.278  0.8647E-02  0.1298E-01
    -25.177  0.2851E-02  0.1327E-01
    -25.076  0.5732E-03  0.1333E-01
    -24.974  0.7022E-04  0.1333E-01
    -24.873  0.5231E-05  0.1333E-01
    -24.771  0.2366E-06  0.1333E-01
    -24.670  0.6485E-08  0.1333E-01
    -24.569  0.1076E-09  0.1333E-01
    -24.467  0.1099E-11  0.1333E-01
    -24.366  0.3157E-11  0.1333E-01
    -24.264  0.2809E-09  0.1333E-01
    -24.163  0.1513E-07  0.1333E-01
    -24.062  0.4936E-06  0.1333E-01
    -23.960  0.9760E-05  0.1333E-01
    -23.859  0.1172E-03  0.1335E-01
    -23.758  0.8564E-03  0.1343E-01
    -23.656  0.3813E-02  0.1382E-01
    -23.555  0.1036E-01  0.1487E-01
    -23.453  0.1719E-01  0.1661E-01
    -23.352  0.1743E-01  0.1838E-01
    -23.251  0.1080E-01  0.1947E-01
    -23.149  0.4104E-02  0.1989E-01
    -23.048  0.1097E-02  0.2000E-01
    -22.947  0.1182E-02  0.2012E-01
    -22.845  0.4414E-02  0.2057E-01
    -22.744  0.1128E-01  0.2171E-01
    -22.642  0.1766E-01  0.2350E-01
    -22.541  0.1690E-01  0.2522E-01
    -22.440  0.9882E-02  0.2622E-01
    -22.338  0.3529E-02  0.2658E-01
    -22.237  0.7691E-03  0.2666E-01
    -22.135  0.1021E-03  0.2667E-01
    -22.034  0.8248E-05  0.2667E-01
    -21.933  0.4045E-06  0.2667E-01
    -21.831  0.1203E-07  0.2667E-01
    -21.730  0.2165E-09  0.2667E-01
    -21.629  0.2354E-11  0.2667E-01
    -21.527  0.1546E-13  0.2667E-01
    -21.426  0.5840E-16  0.2667E-01
    -21.324  0.0000E+00  0.2667E-01
    -21.223  0.0000E+00  0.2667E-01
    -21.122  0.0000E+00  0.2667E-01
    -21.020  0.0000E+00  0.2667E-01
    -20.919  0.0000E+00  0.2667E-01
    -20.817  0.0000E+00  0.2667E-01
    -20.716  0.6205E-16  0.2667E-01
    -20.615  0.1555E-13  0.2667E-01
    -20.513  0.2367E-11  0.2667E-01
    -20.412  0.2175E-09  0.2667E-01
    -20.311  0.1208E-07  0.2667E-01
    -20.209  0.4061E-06  0.2667E-01
    -20.108  0.8274E-05  0.2667E-01
    -20.006  0.1024E-03  0.2668E-01
    -19.905  0.7707E-03  0.2676E-01
    -19.804  0.3535E-02  0.2711E-01
    -19.702  0.9891E-02  0.2812E-01
    -19.601  0.1691E-01  0.2983E-01
    -19.499  0.1766E-01  0.3162E-01
    -19.398  0.1127E-01  0.3276E-01
    -19.297  0.4397E-02  0.3321E-01
    -19.195  0.1046E-02  0.3332E-01
    -19.094  0.1518E-03  0.3333E-01
    -18.993  0.1341E-04  0.3333E-01
    -18.891  0.1079E-05  0.3333E-01
    -18.790  0.7500E-05  0.3333E-01
    -18.688  0.9422E-04  0.3334E-01
    -18.587  0.7222E-03  0.3342E-01
    -18.486  0.3373E-02  0.3376E-01
    -18.384  0.9609E-02  0.3473E-01
    -18.283  0.1672E-01  0.3643E-01
    -18.182  0.1779E-01  0.3823E-01
    -18.080  0.1156E-01  0.3940E-01
    -17.979  0.4591E-02  0.3987E-01
    -17.877  0.1120E-02  0.3998E-01
    -17.776  0.2546E-03  0.4001E-01
    -17.675  0.7135E-03  0.4008E-01
    -17.573  0.3294E-02  0.4041E-01
    -17.472  0.9468E-02  0.4137E-01
    -17.370  0.1663E-01  0.4306E-01
    -17.269  0.1784E-01  0.4487E-01
    -17.168  0.1170E-01  0.4606E-01
    -17.066  0.4690E-02  0.4653E-01
    -16.965  0.1147E-02  0.4665E-01
    -16.864  0.1710E-03  0.4667E-01
    -16.762  0.1606E-04  0.4667E-01
    -16.661  0.1162E-04  0.4667E-01
    -16.559  0.1270E-03  0.4668E-01
    -16.458  0.9115E-03  0.4677E-01
    -16.357  0.3987E-02  0.4718E-01
    -16.255  0.1064E-01  0.4826E-01
    -16.154  0.1734E-01  0.5001E-01
    -16.052  0.1728E-01  0.5177E-01
    -15.951  0.1052E-01  0.5283E-01
    -15.850  0.3913E-02  0.5323E-01
    -15.748  0.8882E-03  0.5332E-01
    -15.647  0.1228E-03  0.5333E-01
    -15.546  0.1034E-04  0.5333E-01
    -15.444  0.5406E-06  0.5333E-01
    -15.343  0.4334E-06  0.5333E-01
    -15.241  0.8464E-05  0.5333E-01
    -15.140  0.1043E-03  0.5334E-01
    -15.039  0.7819E-03  0.5342E-01
    -14.937  0.3572E-02  0.5379E-01
    -14.836  0.9955E-02  0.5480E-01
    -14.735  0.1695E-01  0.5651E-01
    -14.633  0.1763E-01  0.5830E-01
    -14.532  0.1121E-01  0.5944E-01
    -14.430  0.4381E-02  0.5988E-01
    -14.329  0.1299E-02  0.6001E-01
    -14.228  0.1763E-02  0.6019E-01
    -14.126  0.5952E-02  0.6080E-01
    -14.025  0.1334E-01  0.6215E-01
    -13.923  0.1832E-01  0.6401E-01
    -13.822  0.1537E-01  0.6556E-01
    -13.721  0.7925E-02  0.6637E-01
    -13.619  0.2871E-02  0.6666E-01
    -13.518  0.2674E-02  0.6693E-01
    -13.417  0.7372E-02  0.6768E-01
    -13.315  0.1484E-01  0.6918E-01
    -13.214  0.1839E-01  0.7105E-01
    -13.112  0.1393E-01  0.7246E-01
    -13.011  0.6477E-02  0.7312E-01
    -12.910  0.2108E-02  0.7333E-01
    -12.808  0.2013E-02  0.7353E-01
    -12.707  0.6183E-02  0.7416E-01
    -12.605  0.1359E-01  0.7554E-01
    -12.504  0.1836E-01  0.7740E-01
    -12.403  0.1515E-01  0.7894E-01
    -12.301  0.7642E-02  0.7971E-01
    -12.200  0.2354E-02  0.7995E-01
    -12.099  0.4469E-03  0.8000E-01
    -11.997  0.1164E-03  0.8001E-01
    -11.896  0.5506E-03  0.8006E-01
    -11.794  0.2791E-02  0.8035E-01
    -11.693  0.8866E-02  0.8124E-01
    -11.592  0.1816E-01  0.8309E-01
    -11.490  0.2574E-01  0.8570E-01
    -11.389  0.2784E-01  0.8852E-01
    -11.288  0.2399E-01  0.9095E-01
    -11.186  0.1621E-01  0.9259E-01
    -11.085  0.1148E-01  0.9376E-01
    -10.983  0.1651E-01  0.9543E-01
    -10.882  0.2824E-01  0.9829E-01
    -10.781  0.3450E-01  0.1018E+00
    -10.679  0.2827E-01  0.1047E+00
    -10.578  0.1748E-01  0.1064E+00
    -10.476  0.1410E-01  0.1079E+00
    -10.375  0.1932E-01  0.1098E+00
    -10.274  0.2622E-01  0.1125E+00
    -10.172  0.3295E-01  0.1158E+00
    -10.071  0.4178E-01  0.1201E+00
     -9.970  0.4775E-01  0.1249E+00
     -9.868  0.4225E-01  0.1292E+00
     -9.767  0.2660E-01  0.1319E+00
     -9.665  0.1234E-01  0.1331E+00
     -9.564  0.8191E-02  0.1340E+00
     -9.463  0.1376E-01  0.1353E+00
     -9.361  0.2266E-01  0.1376E+00
     -9.260  0.2907E-01  0.1406E+00
     -9.158  0.3269E-01  0.1439E+00
     -9.057  0.3398E-01  0.1474E+00
     -8.956  0.3140E-01  0.1505E+00
     -8.854  0.2676E-01  0.1532E+00
     -8.753  0.2466E-01  0.1557E+00
     -8.652  0.2489E-01  0.1583E+00
     -8.550  0.2471E-01  0.1608E+00
     -8.449  0.2354E-01  0.1632E+00
     -8.347  0.1892E-01  0.1651E+00
     -8.246  0.1073E-01  0.1662E+00
     -8.145  0.3895E-02  0.1666E+00
     -8.043  0.8750E-03  0.1667E+00
     -7.942  0.1202E-03  0.1667E+00
     -7.840  0.1006E-04  0.1667E+00
     -7.739  0.5117E-06  0.1667E+00
     -7.638  0.1586E-07  0.1667E+00
     -7.536  0.5678E-08  0.1667E+00
     -7.435  0.2012E-06  0.1667E+00
     -7.334  0.4558E-05  0.1667E+00
     -7.232  0.6267E-04  0.1667E+00
     -7.131  0.5240E-03  0.1667E+00
     -7.029  0.2669E-02  0.1670E+00
     -6.928  0.8290E-02  0.1678E+00
     -6.827  0.1573E-01  0.1694E+00
     -6.725  0.1825E-01  0.1713E+00
     -6.624  0.1308E-01  0.1726E+00
     -6.523  0.6691E-02  0.1733E+00
     -6.421  0.6031E-02  0.1739E+00
     -6.320  0.1176E-01  0.1751E+00
     -6.218  0.1795E-01  0.1769E+00
     -6.117  0.1788E-01  0.1787E+00
     -6.016  0.1427E-01  0.1802E+00
     -5.914  0.1500E-01  0.1817E+00
     -5.813  0.1869E-01  0.1836E+00
     -5.711  0.1791E-01  0.1854E+00
     -5.610  0.1418E-01  0.1868E+00
     -5.509  0.1491E-01  0.1883E+00
     -5.407  0.1850E-01  0.1902E+00
     -5.306  0.1683E-01  0.1919E+00
     -5.205  0.9631E-02  0.1929E+00
     -5.103  0.3381E-02  0.1932E+00
     -5.002  0.7245E-03  0.1933E+00
     -4.900  0.9461E-04  0.1933E+00
     -4.799  0.7514E-05  0.1933E+00
     -4.698  0.3624E-06  0.1933E+00
     -4.596  0.1060E-07  0.1933E+00
     -4.495  0.1875E-09  0.1933E+00
     -4.393  0.2005E-11  0.1933E+00
     -4.292  0.1294E-13  0.1933E+00
     -4.191  0.5110E-16  0.1933E+00
     -4.089  0.0000E+00  0.1933E+00
     -3.988  0.0000E+00  0.1933E+00
     -3.887  0.0000E+00  0.1933E+00
     -3.785  0.0000E+00  0.1933E+00
     -3.684  0.0000E+00  0.1933E+00
     -3.582  0.0000E+00  0.1933E+00
     -3.481  0.0000E+00  0.1933E+00
     -3.380  0.0000E+00  0.1933E+00
     -3.278  0.0000E+00  0.1933E+00
     -3.177  0.0000E+00  0.1933E+00
     -3.076  0.0000E+00  0.1933E+00
     -2.974  0.0000E+00  0.1933E+00
     -2.873  0.0000E+00  0.1933E+00
     -2.771  0.0000E+00  0.1933E+00
     -2.670  0.0000E+00  0.1933E+00
     -2.569  0.0000E+00  0.1933E+00
     -2.467  0.0000E+00  0.1933E+00
     -2.366  0.0000E+00  0.1933E+00
     -2.264  0.4782E-15  0.1933E+00
     -2.163  0.1007E-12  0.1933E+00
     -2.062  0.1278E-10  0.1933E+00
     -1.960  0.9796E-09  0.1933E+00
     -1.859  0.4541E-07  0.1933E+00
     -1.758  0.1276E-05  0.1933E+00
     -1.656  0.2177E-04  0.1933E+00
     -1.555  0.2266E-03  0.1934E+00
     -1.453  0.1448E-02  0.1935E+00
     -1.352  0.5754E-02  0.1941E+00
     -1.251  0.1461E-01  0.1956E+00
     -1.149  0.2483E-01  0.1981E+00
     -1.048  0.3006E-01  0.2011E+00
     -0.946  0.2692E-01  0.2039E+00
     -0.845  0.1752E-01  0.2056E+00
     -0.744  0.8573E-02  0.2065E+00
     -0.642  0.6522E-02  0.2072E+00
     -0.541  0.1368E-01  0.2086E+00
     -0.440  0.2781E-01  0.2114E+00
     -0.338  0.4262E-01  0.2157E+00
     -0.237  0.5268E-01  0.2210E+00
     -0.135  0.6029E-01  0.2272E+00
     -0.034  0.7585E-01  0.2348E+00
      0.067  0.1014E+00  0.2451E+00
      0.169  0.1144E+00  0.2567E+00
      0.270  0.9247E-01  0.2661E+00
      0.372  0.4976E-01  0.2711E+00
      0.473  0.1726E-01  0.2729E+00
      0.574  0.3799E-02  0.2733E+00
      0.676  0.5247E-03  0.2733E+00
      0.777  0.4513E-04  0.2733E+00
      0.878  0.2402E-05  0.2733E+00
      0.980  0.7873E-07  0.2733E+00
      1.081  0.1581E-08  0.2733E+00
      1.183  0.1938E-10  0.2733E+00
      1.284  0.1445E-12  0.2733E+00
      1.385  0.6589E-15  0.2733E+00
      1.487  0.0000E+00  0.2733E+00
      1.588  0.0000E+00  0.2733E+00
      1.689  0.0000E+00  0.2733E+00
      1.791  0.0000E+00  0.2733E+00
      1.892  0.0000E+00  0.2733E+00
      1.994  0.0000E+00  0.2733E+00
      2.095  0.0000E+00  0.2733E+00
      2.196  0.0000E+00  0.2733E+00
