   22   22  300    1
  0.1227273E+04  0.3000000E-08  0.3000000E-08  0.3000000E-08  0.0000000E+00
  1.000000000000000E-004
  CAR 
 unknown system                          
     58      4     41
 
  0.2500000E+00  0.2500000E+00  0.2500000E+00  0.2500000E+00
    1      -26.218408   1.000000
    2      -25.506624   1.000000
    3      -23.450531   1.000000
    4      -22.651457   1.000000
    5      -19.591900   1.000000
    6      -18.270222   1.000000
    7      -17.355912   1.000000
    8      -16.154632   1.000000
    9      -14.726363   1.000000
   10      -13.959591   1.000000
   11      -13.270970   1.000000
   12      -12.543614   1.000000
   13      -11.563212   1.000000
   14      -11.348010   1.000000
   15      -10.885849   1.000000
   16      -10.779082   1.000000
   17      -10.352944   1.000000
   18      -10.115931   1.000000
   19       -9.988259   1.000000
   20       -9.909192   1.000000
   21       -9.382277   1.000000
   22       -9.165480   1.000000
   23       -8.993973   1.000000
   24       -8.714188   1.000000
   25       -8.450536   1.000000
   26       -6.796231   1.000000
   27       -6.230342   1.000000
   28       -5.825799   1.000000
   29       -5.419799   1.000000
   30       -1.176768   0.000000
   31       -0.993873   0.000000
   32       -0.437583   0.000000
   33       -0.296643   0.000000
   34       -0.210130   0.000000
   35       -0.057730   0.000000
   36        0.046745   0.000000
   37        0.106810   0.000000
   38        0.125561   0.000000
   39        0.137264   0.000000
   40        0.180890   0.000000
   41        0.196394   0.000000
 
 -0.2500000E+00  0.2500000E+00  0.2500000E+00  0.2500000E+00
    1      -26.218408   1.000000
    2      -25.506624   1.000000
    3      -23.450533   1.000000
    4      -22.651458   1.000000
    5      -19.591901   1.000000
    6      -18.270223   1.000000
    7      -17.355913   1.000000
    8      -16.154629   1.000000
    9      -14.726363   1.000000
   10      -13.959597   1.000000
   11      -13.270967   1.000000
   12      -12.543607   1.000000
   13      -11.563219   1.000000
   14      -11.348014   1.000000
   15      -10.885840   1.000000
   16      -10.779090   1.000000
   17      -10.352944   1.000000
   18      -10.115928   1.000000
   19       -9.988265   1.000000
   20       -9.909188   1.000000
   21       -9.382283   1.000000
   22       -9.165488   1.000000
   23       -8.993970   1.000000
   24       -8.714184   1.000000
   25       -8.450545   1.000000
   26       -6.796236   1.000000
   27       -6.230342   1.000000
   28       -5.825813   1.000000
   29       -5.419802   1.000000
   30       -1.176762   0.000000
   31       -0.993873   0.000000
   32       -0.437580   0.000000
   33       -0.296644   0.000000
   34       -0.210129   0.000000
   35       -0.057517   0.000000
   36        0.045337   0.000000
   37        0.104404   0.000000
   38        0.129612   0.000000
   39        0.140603   0.000000
   40        0.182344   0.000000
   41        0.193883   0.000000
 
  0.2500000E+00 -0.2500000E+00  0.2500000E+00  0.2500000E+00
    1      -26.218406   1.000000
    2      -25.506623   1.000000
    3      -23.450534   1.000000
    4      -22.651457   1.000000
    5      -19.591903   1.000000
    6      -18.270222   1.000000
    7      -17.355914   1.000000
    8      -16.154630   1.000000
    9      -14.726363   1.000000
   10      -13.959601   1.000000
   11      -13.270966   1.000000
   12      -12.543608   1.000000
   13      -11.563214   1.000000
   14      -11.348011   1.000000
   15      -10.885846   1.000000
   16      -10.779093   1.000000
   17      -10.352947   1.000000
   18      -10.115940   1.000000
   19       -9.988261   1.000000
   20       -9.909189   1.000000
   21       -9.382288   1.000000
   22       -9.165477   1.000000
   23       -8.993981   1.000000
   24       -8.714187   1.000000
   25       -8.450535   1.000000
   26       -6.796225   1.000000
   27       -6.230349   1.000000
   28       -5.825804   1.000000
   29       -5.419808   1.000000
   30       -1.176772   0.000000
   31       -0.993873   0.000000
   32       -0.437573   0.000000
   33       -0.296645   0.000000
   34       -0.210128   0.000000
   35       -0.057199   0.000000
   36        0.041446   0.000000
   37        0.113793   0.000000
   38        0.122644   0.000000
   39        0.144388   0.000000
   40        0.184861   0.000000
   41        0.193836   0.000000
 
 -0.2500000E+00 -0.2500000E+00  0.2500000E+00  0.2500000E+00
    1      -26.218406   1.000000
    2      -25.506624   1.000000
    3      -23.450536   1.000000
    4      -22.651456   1.000000
    5      -19.591901   1.000000
    6      -18.270220   1.000000
    7      -17.355915   1.000000
    8      -16.154633   1.000000
    9      -14.726361   1.000000
   10      -13.959596   1.000000
   11      -13.270970   1.000000
   12      -12.543611   1.000000
   13      -11.563223   1.000000
   14      -11.348014   1.000000
   15      -10.885844   1.000000
   16      -10.779082   1.000000
   17      -10.352948   1.000000
   18      -10.115928   1.000000
   19       -9.988257   1.000000
   20       -9.909186   1.000000
   21       -9.382281   1.000000
   22       -9.165481   1.000000
   23       -8.993969   1.000000
   24       -8.714183   1.000000
   25       -8.450555   1.000000
   26       -6.796224   1.000000
   27       -6.230341   1.000000
   28       -5.825796   1.000000
   29       -5.419817   1.000000
   30       -1.176752   0.000000
   31       -0.993873   0.000000
   32       -0.437595   0.000000
   33       -0.296645   0.000000
   34       -0.210138   0.000000
   35       -0.057150   0.000000
   36        0.041475   0.000000
   37        0.119491   0.000000
   38        0.129285   0.000000
   39        0.131900   0.000000
   40        0.174616   0.000000
   41        0.190521   0.000000
