       N       E                     dE             d eps       ncg     rms          rms(c)
DAV:   1     0.578105591581E+03    0.57811E+03   -0.82789E+03   408   0.485E+02
DAV:   2     0.241162819741E+03   -0.33694E+03   -0.32729E+03   588   0.985E+01
DAV:   3    -0.517674389560E+02   -0.29293E+03   -0.28453E+03   488   0.105E+02
DAV:   4    -0.136868040684E+03   -0.85101E+02   -0.84935E+02   405   0.758E+01
DAV:   5    -0.141828126801E+03   -0.49601E+01   -0.49496E+01   464   0.209E+01    0.195E+01
DAV:   6    -0.131688698652E+03    0.10139E+02   -0.23837E+01   424   0.200E+01    0.995E+00
DAV:   7    -0.129953548181E+03    0.17352E+01   -0.44638E+00   416   0.824E+00    0.516E+00
DAV:   8    -0.129462098989E+03    0.49145E+00   -0.86372E-01   432   0.404E+00    0.152E+00
DAV:   9    -0.129394901659E+03    0.67197E-01   -0.10200E-01   464   0.154E+00    0.568E-01
DAV:  10    -0.129383427472E+03    0.11474E-01   -0.24883E-02   424   0.815E-01    0.257E-01
DAV:  11    -0.129378185154E+03    0.52423E-02   -0.80515E-03   464   0.447E-01    0.162E-01
DAV:  12    -0.129379186664E+03   -0.10015E-02   -0.59350E-03   352   0.360E-01    0.988E-02
DAV:  13    -0.129385490862E+03   -0.63042E-02   -0.43038E-03   432   0.310E-01    0.603E-02
DAV:  14    -0.129392061736E+03   -0.65709E-02   -0.17725E-03   392   0.204E-01    0.390E-02
DAV:  15    -0.129400141063E+03   -0.80793E-02   -0.99874E-04   432   0.115E-01    0.248E-02
DAV:  16    -0.129406429993E+03   -0.62889E-02   -0.51387E-04   350   0.750E-02    0.135E-02
DAV:  17    -0.129408977071E+03   -0.25471E-02   -0.12473E-04   336   0.366E-02    0.949E-03
DAV:  18    -0.129410822461E+03   -0.18454E-02   -0.11570E-04   261   0.310E-02    0.537E-03
DAV:  19    -0.129411852331E+03   -0.10299E-02   -0.64180E-05   317   0.214E-02    0.347E-03
DAV:  20    -0.129412271691E+03   -0.41936E-03   -0.17083E-05   288   0.136E-02    0.189E-03
DAV:  21    -0.129412499043E+03   -0.22735E-03   -0.89997E-06   336   0.835E-03    0.121E-03
DAV:  22    -0.129412640889E+03   -0.14185E-03   -0.37704E-06   264   0.645E-03    0.789E-04
DAV:  23    -0.129412678152E+03   -0.37262E-04   -0.99141E-07   368   0.309E-03
   1 F= -.12941268E+03 E0= -.12941268E+03  d E =-.129413E+03
       N       E                     dE             d eps       ncg     rms          rms(c)
DAV:   1    -0.129413294222E+03   -0.65333E-03   -0.26134E-02   334   0.834E-01    0.362E-02
DAV:   2    -0.129413331056E+03   -0.36833E-04   -0.47336E-04   464   0.105E-01    0.252E-02
DAV:   3    -0.129413331151E+03   -0.94844E-07   -0.13130E-05   278   0.224E-02    0.138E-02
DAV:   4    -0.129413340095E+03   -0.89448E-05   -0.17317E-05   276   0.225E-02    0.264E-03
DAV:   5    -0.129413342015E+03   -0.19196E-05   -0.37970E-06   272   0.104E-02    0.189E-03
DAV:   6    -0.129413343613E+03   -0.15982E-05   -0.49151E-07   286   0.372E-03
   2 F= -.12941334E+03 E0= -.12941334E+03  d E =-.665461E-03
       N       E                     dE             d eps       ncg     rms          rms(c)
DAV:   1    -0.129413720520E+03   -0.37851E-03   -0.65965E-02   331   0.130E+00    0.588E-02
DAV:   2    -0.129413787547E+03   -0.67027E-04   -0.10519E-03   406   0.156E-01    0.391E-02
DAV:   3    -0.129413782786E+03    0.47606E-05   -0.29859E-05   283   0.334E-02    0.196E-02
DAV:   4    -0.129413789315E+03   -0.65287E-05   -0.31412E-05   258   0.290E-02    0.362E-03
DAV:   5    -0.129413789702E+03   -0.38715E-06   -0.63798E-06   272   0.132E-02    0.252E-03
DAV:   6    -0.129413790016E+03   -0.31420E-06   -0.80802E-07   211   0.476E-03
   3 F= -.12941379E+03 E0= -.12941379E+03  d E =-.446403E-03
       N       E                     dE             d eps       ncg     rms          rms(c)
DAV:   1    -0.129414474782E+03   -0.68508E-03   -0.10591E-01   328   0.163E+00    0.771E-02
DAV:   2    -0.129414572214E+03   -0.97432E-04   -0.15977E-03   404   0.189E-01    0.489E-02
DAV:   3    -0.129414573343E+03   -0.11296E-05   -0.45343E-05   308   0.390E-02    0.228E-02
DAV:   4    -0.129414583788E+03   -0.10445E-04   -0.37105E-05   260   0.289E-02    0.396E-03
DAV:   5    -0.129414584057E+03   -0.26870E-06   -0.64090E-06   272   0.129E-02    0.251E-03
DAV:   6    -0.129414584379E+03   -0.32203E-06   -0.84199E-07   218   0.478E-03
   4 F= -.12941458E+03 E0= -.12941458E+03  d E =-.794362E-03
       N       E                     dE             d eps       ncg     rms          rms(c)
DAV:   1    -0.129415568193E+03   -0.98414E-03   -0.18432E-01   329   0.217E+00    0.103E-01
DAV:   2    -0.129415748583E+03   -0.18039E-03   -0.29277E-03   364   0.259E-01    0.653E-02
DAV:   3    -0.129415749692E+03   -0.11092E-05   -0.10268E-04   308   0.564E-02    0.322E-02
DAV:   4    -0.129415767663E+03   -0.17972E-04   -0.74529E-05   274   0.413E-02    0.605E-03
DAV:   5    -0.129415767621E+03    0.42648E-07   -0.14018E-05   264   0.193E-02    0.365E-03
DAV:   6    -0.129415767932E+03   -0.31081E-06   -0.19811E-06   272   0.716E-03
   5 F= -.12941577E+03 E0= -.12941577E+03  d E =-.118355E-02
       N       E                     dE             d eps       ncg     rms          rms(c)
DAV:   1    -0.129416465368E+03   -0.69775E-03   -0.27211E-01   329   0.262E+00    0.124E-01
DAV:   2    -0.129416711559E+03   -0.24619E-03   -0.40790E-03   364   0.306E-01    0.791E-02
DAV:   3    -0.129416713652E+03   -0.20924E-05   -0.14490E-04   330   0.670E-02    0.378E-02
DAV:   4    -0.129416739222E+03   -0.25571E-04   -0.10490E-04   268   0.480E-02    0.724E-03
DAV:   5    -0.129416739301E+03   -0.78419E-07   -0.19503E-05   237   0.227E-02    0.429E-03
DAV:   6    -0.129416739995E+03   -0.69390E-06   -0.28596E-06   293   0.840E-03
   6 F= -.12941674E+03 E0= -.12941674E+03  d E =-.972063E-03
       N       E                     dE             d eps       ncg     rms          rms(c)
DAV:   1    -0.129417645879E+03   -0.90658E-03   -0.36648E-01   329   0.302E+00    0.142E-01
DAV:   2    -0.129417957295E+03   -0.31142E-03   -0.52054E-03   388   0.343E-01    0.911E-02
DAV:   3    -0.129417955902E+03    0.13928E-05   -0.16315E-04   297   0.731E-02    0.417E-02
DAV:   4    -0.129417989625E+03   -0.33722E-04   -0.14157E-04   332   0.533E-02    0.837E-03
DAV:   5    -0.129417988890E+03    0.73417E-06   -0.18130E-05   237   0.215E-02    0.497E-03
DAV:   6    -0.129417989798E+03   -0.90703E-06   -0.30246E-06   302   0.860E-03
   7 F= -.12941799E+03 E0= -.12941799E+03  d E =-.124980E-02
       N       E                     dE             d eps       ncg     rms          rms(c)
DAV:   1    -0.129418793324E+03   -0.80443E-03   -0.58563E-01   330   0.380E+00    0.180E-01
DAV:   2    -0.129419276925E+03   -0.48360E-03   -0.81735E-03   396   0.430E-01    0.116E-01
DAV:   3    -0.129419266229E+03    0.10696E-04   -0.27577E-04   362   0.919E-02    0.512E-02
DAV:   4    -0.129419311704E+03   -0.45475E-04   -0.14277E-04   300   0.595E-02    0.834E-03
DAV:   5    -0.129419312622E+03   -0.91864E-06   -0.25254E-05   272   0.253E-02    0.548E-03
DAV:   6    -0.129419313667E+03   -0.10441E-05   -0.34458E-06   256   0.943E-03
   8 F= -.12941931E+03 E0= -.12941931E+03  d E =-.132387E-02
       N       E                     dE             d eps       ncg     rms          rms(c)
DAV:   1    -0.129420029464E+03   -0.71684E-03   -0.82268E-01   330   0.452E+00    0.218E-01
DAV:   2    -0.129420723910E+03   -0.69445E-03   -0.11721E-02   396   0.515E-01    0.140E-01
DAV:   3    -0.129420719428E+03    0.44819E-05   -0.41110E-04   362   0.111E-01    0.621E-02
DAV:   4    -0.129420787947E+03   -0.68519E-04   -0.20535E-04   332   0.682E-02    0.104E-02
DAV:   5    -0.129420788054E+03   -0.10716E-06   -0.29180E-05   268   0.273E-02    0.632E-03
DAV:   6    -0.129420789743E+03   -0.16887E-05   -0.43801E-06   294   0.107E-02
   9 F= -.12942079E+03 E0= -.12942079E+03  d E =-.147608E-02
       N       E                     dE             d eps       ncg     rms          rms(c)
DAV:   1    -0.129421195926E+03   -0.40787E-03   -0.11720E+00   328   0.541E+00    0.260E-01
DAV:   2    -0.129422231206E+03   -0.10353E-02   -0.17036E-02   396   0.625E-01    0.168E-01
DAV:   3    -0.129422196749E+03    0.34458E-04   -0.62733E-04   363   0.138E-01    0.759E-02
DAV:   4    -0.129422297139E+03   -0.10039E-03   -0.31770E-04   364   0.839E-02    0.134E-02
DAV:   5    -0.129422296187E+03    0.95242E-06   -0.43118E-05   268   0.331E-02    0.776E-03
DAV:   6    -0.129422298782E+03   -0.25953E-05   -0.71499E-06   294   0.136E-02
  10 F= -.12942230E+03 E0= -.12942230E+03  d E =-.150904E-02
       N       E                     dE             d eps       ncg     rms          rms(c)
DAV:   1    -0.129422545348E+03   -0.24916E-03   -0.16367E+00   328   0.637E+00    0.298E-01
DAV:   2    -0.129424000820E+03   -0.14555E-02   -0.23169E-02   396   0.728E-01    0.194E-01
DAV:   3    -0.129423911403E+03    0.89418E-04   -0.82974E-04   393   0.159E-01    0.876E-02
DAV:   4    -0.129424037532E+03   -0.12613E-03   -0.43965E-04   396   0.101E-01    0.156E-02
DAV:   5    -0.129424036543E+03    0.98836E-06   -0.57867E-05   294   0.385E-02    0.984E-03
DAV:   6    -0.129424038939E+03   -0.23959E-05   -0.93254E-06   284   0.154E-02
  11 F= -.12942404E+03 E0= -.12942404E+03  d E =-.174016E-02
       N       E                     dE             d eps       ncg     rms          rms(c)
DAV:   1    -0.129423374789E+03    0.66175E-03   -0.19194E+00   328   0.701E+00    0.332E-01
DAV:   2    -0.129425478076E+03   -0.21033E-02   -0.31945E-02   428   0.849E-01    0.215E-01
DAV:   3    -0.129425352252E+03    0.12582E-03   -0.10742E-03   387   0.181E-01    0.107E-01
DAV:   4    -0.129425529294E+03   -0.17704E-03   -0.60822E-04   396   0.119E-01    0.194E-02
DAV:   5    -0.129425529139E+03    0.15467E-06   -0.81596E-05   279   0.469E-02    0.110E-02
DAV:   6    -0.129425532245E+03   -0.31062E-05   -0.12160E-05   316   0.185E-02
  12 F= -.12942553E+03 E0= -.12942553E+03  d E =-.149331E-02
       N       E                     dE             d eps       ncg     rms          rms(c)
DAV:   1    -0.129422845339E+03    0.26838E-02   -0.26469E+00   328   0.832E+00    0.366E-01
DAV:   2    -0.129426093379E+03   -0.32480E-02   -0.44923E-02   428   0.101E+00    0.245E-01
DAV:   3    -0.129425796571E+03    0.29681E-03   -0.13820E-03   418   0.211E-01    0.122E-01
DAV:   4    -0.129425980240E+03   -0.18367E-03   -0.84920E-04   428   0.150E-01    0.221E-02
DAV:   5    -0.129425980765E+03   -0.52468E-06   -0.12622E-04   368   0.570E-02    0.150E-02
DAV:   6    -0.129425982189E+03   -0.14241E-05   -0.14868E-05   280   0.194E-02
  13 F= -.12942598E+03 E0= -.12942598E+03  d E =-.449944E-03
       N       E                     dE             d eps       ncg     rms          rms(c)
DAV:   1    -0.129427602910E+03   -0.16221E-02   -0.97353E-02   336   0.165E+00    0.780E-02
DAV:   2    -0.129427869622E+03   -0.26671E-03   -0.33399E-03   424   0.258E-01    0.520E-02
DAV:   3    -0.129427844412E+03    0.25210E-04   -0.73525E-05   332   0.471E-02    0.303E-02
DAV:   4    -0.129427844888E+03   -0.47572E-06   -0.78051E-05   264   0.462E-02    0.618E-03
DAV:   5    -0.129427849311E+03   -0.44228E-05   -0.16072E-05   336   0.205E-02    0.394E-03
DAV:   6    -0.129427852058E+03   -0.27475E-05   -0.23577E-06   242   0.782E-03
  14 F= -.12942785E+03 E0= -.12942785E+03  d E =-.186987E-02
       N       E                     dE             d eps       ncg     rms          rms(c)
DAV:   1    -0.129426816036E+03    0.10333E-02   -0.12120E-01   334   0.183E+00    0.810E-02
DAV:   2    -0.129427095689E+03   -0.27965E-03   -0.36923E-03   425   0.273E-01    0.540E-02
DAV:   3    -0.129427060421E+03    0.35268E-04   -0.84143E-05   343   0.509E-02    0.322E-02
DAV:   4    -0.129427051341E+03    0.90800E-05   -0.91993E-05   265   0.520E-02    0.666E-03
DAV:   5    -0.129427054133E+03   -0.27914E-05   -0.20821E-05   336   0.243E-02    0.407E-03
DAV:   6    -0.129427055879E+03   -0.17460E-05   -0.30040E-06   252   0.927E-03
  15 F= -.12942706E+03 E0= -.12942706E+03  d E =0.796179E-03
       N       E                     dE             d eps       ncg     rms          rms(c)
DAV:   1    -0.129427468822E+03   -0.41469E-03   -0.36895E-03   382   0.318E-01    0.161E-02
DAV:   2    -0.129427483023E+03   -0.14201E-04   -0.13106E-04   331   0.517E-02    0.108E-02
DAV:   3    -0.129427485480E+03   -0.24577E-05   -0.64413E-06   237   0.130E-02    0.612E-03
DAV:   4    -0.129427490076E+03   -0.45953E-05   -0.40595E-06   281   0.952E-03    0.144E-03
DAV:   5    -0.129427492111E+03   -0.20356E-05   -0.90474E-07   272   0.481E-03    0.781E-04
DAV:   6    -0.129427493022E+03   -0.91109E-06   -0.18663E-07   220   0.201E-03
  16 F= -.12942749E+03 E0= -.12942749E+03  d E =-.437143E-03
       N       E                     dE             d eps       ncg     rms          rms(c)
DAV:   1    -0.129427951174E+03   -0.45906E-03   -0.11635E-02   348   0.566E-01    0.286E-02
DAV:   2    -0.129427985090E+03   -0.33917E-04   -0.42901E-04   402   0.918E-02    0.194E-02
DAV:   3    -0.129427981063E+03    0.40275E-05   -0.10392E-05   276   0.174E-02    0.112E-02
DAV:   4    -0.129427979786E+03    0.12767E-05   -0.10477E-05   265   0.164E-02    0.234E-03
DAV:   5    -0.129427979959E+03   -0.17268E-06   -0.21044E-06   264   0.760E-03    0.143E-03
DAV:   6    -0.129427980195E+03   -0.23610E-06   -0.34100E-07   238   0.312E-03
  17 F= -.12942798E+03 E0= -.12942798E+03  d E =-.487172E-03
       N       E                     dE             d eps       ncg     rms          rms(c)
DAV:   1    -0.129428109670E+03   -0.12971E-03   -0.16686E-02   372   0.680E-01    0.331E-02
DAV:   2    -0.129428152881E+03   -0.43211E-04   -0.58633E-04   439   0.108E-01    0.231E-02
DAV:   3    -0.129428145219E+03    0.76624E-05   -0.13899E-05   272   0.207E-02    0.135E-02
DAV:   4    -0.129428141545E+03    0.36739E-05   -0.16985E-05   260   0.209E-02    0.302E-03
DAV:   5    -0.129428141572E+03   -0.27420E-07   -0.36635E-06   272   0.107E-02    0.177E-03
DAV:   6    -0.129428141939E+03   -0.36687E-06   -0.65740E-07   220   0.415E-03
  18 F= -.12942814E+03 E0= -.12942814E+03  d E =-.161745E-03
       N       E                     dE             d eps       ncg     rms          rms(c)
DAV:   1    -0.129427963287E+03    0.17829E-03   -0.13489E-02   333   0.610E-01    0.276E-02
DAV:   2    -0.129427992754E+03   -0.29467E-04   -0.39962E-04   431   0.911E-02    0.197E-02
DAV:   3    -0.129427988061E+03    0.46928E-05   -0.97857E-06   228   0.179E-02    0.117E-02
DAV:   4    -0.129427986808E+03    0.12535E-05   -0.11834E-05   262   0.183E-02    0.242E-03
DAV:   5    -0.129427987292E+03   -0.48481E-06   -0.28029E-06   203   0.921E-03    0.155E-03
DAV:   6    -0.129427987883E+03   -0.59038E-06   -0.49965E-07   234   0.369E-03
  19 F= -.12942799E+03 E0= -.12942799E+03  d E =0.154056E-03
       N       E                     dE             d eps       ncg     rms          rms(c)
DAV:   1    -0.129427858188E+03    0.12910E-03   -0.85155E-03   338   0.473E-01    0.203E-02
DAV:   2    -0.129427868737E+03   -0.10550E-04   -0.15346E-04   280   0.603E-02    0.133E-02
DAV:   3    -0.129427869163E+03   -0.42619E-06   -0.12716E-05   232   0.181E-02    0.694E-03
DAV:   4    -0.129427870669E+03   -0.15055E-05   -0.59076E-06   230   0.122E-02    0.152E-03
DAV:   5    -0.129427871348E+03   -0.67912E-06   -0.15132E-06   228   0.613E-03    0.916E-04
DAV:   6    -0.129427871976E+03   -0.62839E-06   -0.42997E-07   235   0.286E-03
  20 F= -.12942787E+03 E0= -.12942787E+03  d E =0.115906E-03
       N       E                     dE             d eps       ncg     rms          rms(c)
DAV:   1    -0.129427987980E+03   -0.11663E-03   -0.87310E-03   348   0.477E-01    0.212E-02
DAV:   2    -0.129427998398E+03   -0.10419E-04   -0.16302E-04   242   0.620E-02    0.133E-02
DAV:   3    -0.129427999108E+03   -0.71030E-06   -0.13792E-05   246   0.185E-02    0.671E-03
DAV:   4    -0.129428000416E+03   -0.13075E-05   -0.68245E-06   265   0.118E-02    0.162E-03
DAV:   5    -0.129428000716E+03   -0.30003E-06   -0.10149E-06   272   0.543E-03    0.951E-04
DAV:   6    -0.129428000926E+03   -0.20994E-06   -0.20534E-07   218   0.228E-03
  21 F= -.12942800E+03 E0= -.12942800E+03  d E =-.128949E-03
       N       E                     dE             d eps       ncg     rms          rms(c)
DAV:   1    -0.129428276438E+03   -0.27572E-03   -0.16986E-02   360   0.676E-01    0.318E-02
DAV:   2    -0.129428307550E+03   -0.31112E-04   -0.45838E-04   297   0.976E-02    0.201E-02
DAV:   3    -0.129428303681E+03    0.38696E-05   -0.15463E-05   270   0.213E-02    0.110E-02
DAV:   4    -0.129428301629E+03    0.20521E-05   -0.10628E-05   274   0.169E-02    0.204E-03
DAV:   5    -0.129428301821E+03   -0.19279E-06   -0.19586E-06   272   0.715E-03    0.140E-03
DAV:   6    -0.129428302173E+03   -0.35123E-06   -0.30557E-07   220   0.295E-03
  22 F= -.12942830E+03 E0= -.12942830E+03  d E =-.301247E-03
       N       E                     dE             d eps       ncg     rms          rms(c)
DAV:   1    -0.129428451093E+03   -0.14927E-03   -0.27399E-02   336   0.871E-01    0.376E-02
DAV:   2    -0.129428505444E+03   -0.54351E-04   -0.75868E-04   437   0.125E-01    0.255E-02
DAV:   3    -0.129428497357E+03    0.80869E-05   -0.14492E-05   272   0.219E-02    0.147E-02
DAV:   4    -0.129428495201E+03    0.21555E-05   -0.20247E-05   278   0.228E-02    0.282E-03
DAV:   5    -0.129428496427E+03   -0.12254E-05   -0.37665E-06   271   0.108E-02    0.168E-03
DAV:   6    -0.129428497382E+03   -0.95510E-06   -0.56850E-07   222   0.388E-03
  23 F= -.12942850E+03 E0= -.12942850E+03  d E =-.195209E-03
       N       E                     dE             d eps       ncg     rms          rms(c)
DAV:   1    -0.129428505337E+03   -0.89105E-05   -0.28060E-02   330   0.880E-01    0.356E-02
DAV:   2    -0.129428552867E+03   -0.47530E-04   -0.64565E-04   427   0.118E-01    0.238E-02
DAV:   3    -0.129428548518E+03    0.43491E-05   -0.13668E-05   256   0.217E-02    0.143E-02
DAV:   4    -0.129428551195E+03   -0.26771E-05   -0.19598E-05   256   0.231E-02    0.304E-03
DAV:   5    -0.129428552240E+03   -0.10441E-05   -0.41383E-06   272   0.109E-02    0.188E-03
DAV:   6    -0.129428552885E+03   -0.64585E-06   -0.54495E-07   200   0.388E-03
  24 F= -.12942855E+03 E0= -.12942855E+03  d E =-.555034E-04
       N       E                     dE             d eps       ncg     rms          rms(c)
DAV:   1    -0.129428597828E+03   -0.45589E-04   -0.15724E-04   310   0.651E-02    0.331E-03
DAV:   2    -0.129428599270E+03   -0.14413E-05   -0.77319E-06   252   0.141E-02    0.221E-03
DAV:   3    -0.129428599991E+03   -0.72122E-06   -0.80303E-07   220   0.448E-03    0.143E-03
DAV:   4    -0.129428601268E+03   -0.12773E-05   -0.28658E-07   226   0.273E-03    0.383E-04
DAV:   5    -0.129428601661E+03   -0.39293E-06   -0.73698E-08   264   0.131E-03    0.236E-04
DAV:   6    -0.129428602110E+03   -0.44869E-06   -0.23941E-08   200   0.751E-04
  25 F= -.12942860E+03 E0= -.12942860E+03  d E =-.492245E-04
       N       E                     dE             d eps       ncg     rms          rms(c)
DAV:   1    -0.129428672720E+03   -0.71059E-04   -0.57236E-04   374   0.124E-01    0.732E-03
DAV:   2    -0.129428674574E+03   -0.18538E-05   -0.21580E-05   202   0.217E-02    0.439E-03
DAV:   3    -0.129428674796E+03   -0.22182E-06   -0.23814E-06   247   0.734E-03    0.229E-03
DAV:   4    -0.129428675058E+03   -0.26232E-06   -0.69054E-07   201   0.389E-03    0.649E-04
DAV:   5    -0.129428675251E+03   -0.19234E-06   -0.17149E-07   264   0.210E-03    0.309E-04
DAV:   6    -0.129428675380E+03   -0.12986E-06   -0.32881E-08   238   0.103E-03
  26 F= -.12942868E+03 E0= -.12942868E+03  d E =-.732705E-04
       N       E                     dE             d eps       ncg     rms          rms(c)
DAV:   1    -0.129428744032E+03   -0.68781E-04   -0.10571E-03   384   0.169E-01    0.982E-03
DAV:   2    -0.129428746534E+03   -0.25021E-05   -0.39762E-05   219   0.296E-02    0.597E-03
DAV:   3    -0.129428746227E+03    0.30661E-06   -0.43745E-06   256   0.995E-03    0.314E-03
DAV:   4    -0.129428745858E+03    0.36964E-06   -0.12841E-06   216   0.531E-03    0.896E-04
DAV:   5    -0.129428745806E+03    0.51470E-07   -0.32165E-07   272   0.290E-03    0.433E-04
DAV:   6    -0.129428745871E+03   -0.65011E-07   -0.68420E-08   220   0.143E-03
  27 F= -.12942875E+03 E0= -.12942875E+03  d E =-.704907E-04
       N       E                     dE             d eps       ncg     rms          rms(c)
DAV:   1    -0.129428789220E+03   -0.43414E-04   -0.13941E-03   368   0.196E-01    0.110E-02
DAV:   2    -0.129428792482E+03   -0.32619E-05   -0.51760E-05   212   0.340E-02    0.679E-03
DAV:   3    -0.129428792077E+03    0.40512E-06   -0.56812E-06   247   0.114E-02    0.364E-03
DAV:   4    -0.129428791637E+03    0.43968E-06   -0.17171E-06   200   0.615E-03    0.103E-03
DAV:   5    -0.129428791624E+03    0.13236E-07   -0.44723E-07   230   0.335E-03    0.498E-04
DAV:   6    -0.129428791739E+03   -0.11496E-06   -0.11466E-07   175   0.166E-03
  28 F= -.12942879E+03 E0= -.12942879E+03  d E =-.458680E-04
       N       E                     dE             d eps       ncg     rms          rms(c)
DAV:   1    -0.129428804922E+03   -0.13298E-04   -0.13557E-03   339   0.197E-01    0.101E-02
DAV:   2    -0.129428808094E+03   -0.31720E-05   -0.47937E-05   203   0.332E-02    0.648E-03
DAV:   3    -0.129428807825E+03    0.26855E-06   -0.52027E-06   164   0.110E-02    0.360E-03
DAV:   4    -0.129428807548E+03    0.27722E-06   -0.16373E-06   216   0.611E-03    0.992E-04
DAV:   5    -0.129428807610E+03   -0.61527E-07   -0.42990E-07   164   0.329E-03    0.481E-04
DAV:   6    -0.129428807765E+03   -0.15535E-06   -0.11560E-07   202   0.165E-03
  29 F= -.12942881E+03 E0= -.12942881E+03  d E =-.160259E-04
       N       E                     dE             d eps       ncg     rms          rms(c)
DAV:   1    -0.129428809925E+03   -0.23151E-05   -0.14707E-06   210   0.655E-03    0.385E-04
DAV:   2    -0.129428810117E+03   -0.19173E-06   -0.86712E-08   165   0.192E-03    0.250E-04
DAV:   3    -0.129428810339E+03   -0.22294E-06    0.14919E-08   235   0.683E-04    0.160E-04
DAV:   4    -0.129428810720E+03   -0.38087E-06    0.28461E-08   228   0.480E-04    0.586E-05
DAV:   5    -0.129428810941E+03   -0.22053E-06    0.35936E-08   229   0.309E-04    0.521E-05
DAV:   6    -0.129428811411E+03   -0.46985E-06    0.32580E-08   219   0.321E-04
  30 F= -.12942881E+03 E0= -.12942881E+03  d E =-.364566E-05
       N       E                     dE             d eps       ncg     rms          rms(c)
DAV:   1    -0.129428815292E+03   -0.43512E-05   -0.56444E-06   248   0.127E-02    0.577E-04
DAV:   2    -0.129428815383E+03   -0.91236E-07   -0.35027E-07   250   0.351E-03    0.347E-04
DAV:   3    -0.129428815436E+03   -0.52645E-07   -0.92457E-09   179   0.102E-03    0.250E-04
DAV:   4    -0.129428815507E+03   -0.70956E-07    0.21447E-08   236   0.530E-04    0.758E-05
DAV:   5    -0.129428815546E+03   -0.39407E-07    0.28101E-08   212   0.273E-04    0.433E-05
DAV:   6    -0.129428815569E+03   -0.22338E-07    0.30580E-08   185   0.160E-04
  31 F= -.12942882E+03 E0= -.12942882E+03  d E =-.415790E-05
       N       E                     dE             d eps       ncg     rms          rms(c)
DAV:   1    -0.129428820816E+03   -0.52701E-05   -0.12385E-05   245   0.189E-02    0.857E-04
DAV:   2    -0.129428820890E+03   -0.73736E-07   -0.81118E-07   166   0.517E-03    0.515E-04
DAV:   3    -0.129428820901E+03   -0.10480E-07   -0.69384E-08   164   0.150E-03    0.370E-04
DAV:   4    -0.129428820905E+03   -0.44388E-08    0.29264E-09   189   0.776E-04    0.114E-04
DAV:   5    -0.129428820909E+03   -0.44538E-08    0.20413E-08   164   0.392E-04    0.649E-05
DAV:   6    -0.129428820913E+03   -0.31860E-08    0.26353E-08   164   0.228E-04
  32 F= -.12942882E+03 E0= -.12942882E+03  d E =-.534403E-05
       N       E                     dE             d eps       ncg     rms          rms(c)
DAV:   1    -0.129428827471E+03   -0.65620E-05   -0.21157E-05   164   0.246E-02    0.111E-03
DAV:   2    -0.129428827593E+03   -0.12173E-06   -0.13990E-06   164   0.675E-03    0.665E-04
DAV:   3    -0.129428827606E+03   -0.13283E-07   -0.14102E-07   164   0.195E-03    0.478E-04
DAV:   4    -0.129428827607E+03   -0.19008E-09   -0.17255E-08   164   0.101E-03    0.147E-04
DAV:   5    -0.129428827608E+03   -0.14934E-08    0.12834E-08   164   0.511E-04    0.840E-05
DAV:   6    -0.129428827609E+03   -0.12733E-08    0.23259E-08   164   0.296E-04
  33 F= -.12942883E+03 E0= -.12942883E+03  d E =-.669683E-05
       N       E                     dE             d eps       ncg     rms          rms(c)
DAV:   1    -0.129428835213E+03   -0.76046E-05   -0.31315E-05   164   0.300E-02    0.133E-03
DAV:   2    -0.129428835391E+03   -0.17778E-06   -0.20655E-06   164   0.819E-03    0.795E-04
DAV:   3    -0.129428835408E+03   -0.17255E-07   -0.22130E-07   164   0.237E-03    0.573E-04
DAV:   4    -0.129428835401E+03    0.65538E-08   -0.39170E-08   164   0.123E-03    0.176E-04
DAV:   5    -0.129428835401E+03    0.30013E-09    0.49135E-09   164   0.618E-04    0.100E-04
DAV:   6    -0.129428835402E+03   -0.14043E-08    0.20303E-08   164   0.357E-04
  34 F= -.12942884E+03 E0= -.12942884E+03  d E =-.779290E-05
       N       E                     dE             d eps       ncg     rms          rms(c)
DAV:   1    -0.129428843777E+03   -0.83761E-05   -0.42135E-05   164   0.348E-02    0.151E-03
DAV:   2    -0.129428844015E+03   -0.23747E-06   -0.27548E-06   164   0.947E-03    0.903E-04
DAV:   3    -0.129428844038E+03   -0.23596E-07   -0.30388E-07   164   0.274E-03    0.652E-04
DAV:   4    -0.129428844029E+03    0.87680E-08   -0.60745E-08   164   0.141E-03    0.198E-04
DAV:   5    -0.129428844028E+03    0.12842E-08   -0.25629E-09   164   0.710E-04    0.113E-04
DAV:   6    -0.129428844031E+03   -0.26780E-08    0.17730E-08   164   0.406E-04
  35 F= -.12942884E+03 E0= -.12942884E+03  d E =-.862839E-05
       N       E                     dE             d eps       ncg     rms          rms(c)
DAV:   1    -0.129428853895E+03   -0.98673E-05   -0.65765E-05   164   0.435E-02    0.184E-03
DAV:   2    -0.129428854265E+03   -0.36966E-06   -0.42388E-06   164   0.118E-02    0.110E-03
DAV:   3    -0.129428854302E+03   -0.36801E-07   -0.47864E-07   164   0.340E-03    0.796E-04
DAV:   4    -0.129428854292E+03    0.10147E-07   -0.10502E-07   164   0.175E-03    0.238E-04
DAV:   5    -0.129428854291E+03    0.49295E-09   -0.17366E-08   164   0.873E-04    0.135E-04
DAV:   6    -0.129428854295E+03   -0.42337E-08    0.13094E-08   164   0.490E-04
  36 F= -.12942885E+03 E0= -.12942885E+03  d E =-.102646E-04
       N       E                     dE             d eps       ncg     rms          rms(c)
DAV:   1    -0.129428865698E+03   -0.11407E-04   -0.99375E-05   164   0.534E-02    0.220E-03
DAV:   2    -0.129428866253E+03   -0.55439E-06   -0.62829E-06   164   0.144E-02    0.130E-03
DAV:   3    -0.129428866310E+03   -0.57426E-07   -0.71974E-07   164   0.415E-03    0.951E-04
DAV:   4    -0.129428866300E+03    0.99262E-08   -0.16451E-07   164   0.213E-03    0.278E-04
DAV:   5    -0.129428866301E+03   -0.11150E-08   -0.37051E-08   164   0.105E-03    0.159E-04
DAV:   6    -0.129428866308E+03   -0.61036E-08    0.72176E-09   164   0.578E-04
  37 F= -.12942887E+03 E0= -.12942887E+03  d E =-.120122E-04
       N       E                     dE             d eps       ncg     rms          rms(c)
DAV:   1    -0.129428879678E+03   -0.13377E-04   -0.14956E-04   196   0.649E-02    0.259E-03
DAV:   2    -0.129428880272E+03   -0.59431E-06   -0.71497E-06   164   0.150E-02    0.153E-03
DAV:   3    -0.129428880328E+03   -0.55744E-07   -0.72562E-07   164   0.459E-03    0.104E-03
DAV:   4    -0.129428880319E+03    0.88730E-08   -0.14901E-07   164   0.229E-03    0.198E-04
DAV:   5    -0.129428880326E+03   -0.65575E-08   -0.24070E-08   164   0.108E-03    0.157E-04
DAV:   6    -0.129428880333E+03   -0.72882E-08    0.13446E-08   164   0.529E-04
  38 F= -.12942888E+03 E0= -.12942888E+03  d E =-.140255E-04
       N       E                     dE             d eps       ncg     rms          rms(c)
DAV:   1    -0.129428896326E+03   -0.16000E-04   -0.22311E-04   228   0.784E-02    0.305E-03
DAV:   2    -0.129428896879E+03   -0.55310E-06   -0.71859E-06   164   0.146E-02    0.185E-03
DAV:   3    -0.129428896930E+03   -0.51404E-07   -0.69335E-07   164   0.472E-03    0.110E-03
DAV:   4    -0.129428896944E+03   -0.13649E-07   -0.14826E-07   164   0.232E-03    0.196E-04
DAV:   5    -0.129428896955E+03   -0.11122E-07   -0.21785E-08   164   0.112E-03    0.153E-04
DAV:   6    -0.129428896966E+03   -0.11329E-07    0.13331E-08   164   0.539E-04
  39 F= -.12942890E+03 E0= -.12942890E+03  d E =-.166333E-04
       N       E                     dE             d eps       ncg     rms          rms(c)
DAV:   1    -0.129428916596E+03   -0.19641E-04   -0.33471E-04   260   0.950E-02    0.369E-03
DAV:   2    -0.129428917100E+03   -0.50375E-06   -0.72085E-06   164   0.136E-02    0.227E-03
DAV:   3    -0.129428917161E+03   -0.60971E-07   -0.73889E-07   164   0.475E-03    0.124E-03
DAV:   4    -0.129428917205E+03   -0.43891E-07   -0.17467E-07   164   0.242E-03    0.244E-04
DAV:   5    -0.129428917222E+03   -0.17483E-07   -0.28860E-08   164   0.118E-03    0.139E-04
DAV:   6    -0.129428917235E+03   -0.13052E-07    0.99553E-09   164   0.562E-04
  40 F= -.12942892E+03 E0= -.12942892E+03  d E =-.202689E-04
       N       E                     dE             d eps       ncg     rms          rms(c)
DAV:   1    -0.129428941614E+03   -0.24392E-04   -0.50947E-04   260   0.117E-01    0.459E-03
DAV:   2    -0.129428942325E+03   -0.71135E-06   -0.10112E-05   164   0.162E-02    0.281E-03
DAV:   3    -0.129428942436E+03   -0.11121E-06   -0.10621E-06   164   0.570E-03    0.151E-03
DAV:   4    -0.129428942517E+03   -0.80794E-07   -0.26117E-07   164   0.288E-03    0.300E-04
DAV:   5    -0.129428942535E+03   -0.17342E-07   -0.53428E-08   164   0.140E-03    0.170E-04
DAV:   6    -0.129428942542E+03   -0.73878E-08    0.27876E-09   164   0.657E-04
  41 F= -.12942894E+03 E0= -.12942894E+03  d E =-.253067E-04
       N       E                     dE             d eps       ncg     rms          rms(c)
DAV:   1    -0.129428973351E+03   -0.30816E-04   -0.80211E-04   292   0.145E-01    0.582E-03
DAV:   2    -0.129428974161E+03   -0.81032E-06   -0.12684E-05   164   0.174E-02    0.365E-03
DAV:   3    -0.129428974301E+03   -0.13960E-06   -0.13098E-06   164   0.600E-03    0.186E-03
DAV:   4    -0.129428974418E+03   -0.11703E-06   -0.35129E-07   164   0.311E-03    0.377E-04
DAV:   5    -0.129428974434E+03   -0.16746E-07   -0.76419E-08   164   0.148E-03    0.193E-04
DAV:   6    -0.129428974441E+03   -0.68367E-08   -0.47488E-09   164   0.687E-04
  42 F= -.12942897E+03 E0= -.12942897E+03  d E =-.318993E-04
       N       E                     dE             d eps       ncg     rms          rms(c)
DAV:   1    -0.129429012486E+03   -0.38051E-04   -0.12956E-03   292   0.184E-01    0.755E-03
DAV:   2    -0.129429013698E+03   -0.12123E-05   -0.19786E-05   209   0.220E-02    0.476E-03
DAV:   3    -0.129429013919E+03   -0.22089E-06   -0.21240E-06   164   0.761E-03    0.239E-03
DAV:   4    -0.129429014088E+03   -0.16962E-06   -0.59132E-07   164   0.394E-03    0.507E-04
DAV:   5    -0.129429014106E+03   -0.17872E-07   -0.13908E-07   164   0.191E-03    0.254E-04
DAV:   6    -0.129429014115E+03   -0.88630E-08   -0.23131E-08   164   0.880E-04
  43 F= -.12942901E+03 E0= -.12942901E+03  d E =-.396739E-04
       N       E                     dE             d eps       ncg     rms          rms(c)
DAV:   1    -0.129429059060E+03   -0.44954E-04   -0.21405E-03   292   0.236E-01    0.993E-03
DAV:   2    -0.129429060909E+03   -0.18494E-05   -0.31759E-05   246   0.281E-02    0.626E-03
DAV:   3    -0.129429061261E+03   -0.35178E-06   -0.35550E-06   175   0.981E-03    0.309E-03
DAV:   4    -0.129429061514E+03   -0.25274E-06   -0.10096E-06   195   0.506E-03    0.679E-04
DAV:   5    -0.129429061543E+03   -0.29239E-07   -0.24647E-07   164   0.248E-03    0.334E-04
DAV:   6    -0.129429061563E+03   -0.20236E-07   -0.54868E-08   164   0.115E-03
  44 F= -.12942906E+03 E0= -.12942906E+03  d E =-.474483E-04
       N       E                     dE             d eps       ncg     rms          rms(c)
DAV:   1    -0.129429112261E+03   -0.50718E-04   -0.36048E-03   324   0.304E-01    0.131E-02
DAV:   2    -0.129429115092E+03   -0.28304E-05   -0.51098E-05   236   0.358E-02    0.824E-03
DAV:   3    -0.129429115691E+03   -0.59888E-06   -0.59688E-06   205   0.127E-02    0.393E-03
DAV:   4    -0.129429116092E+03   -0.40179E-06   -0.16937E-06   244   0.646E-03    0.879E-04
DAV:   5    -0.129429116150E+03   -0.57159E-07   -0.41525E-07   164   0.318E-03    0.428E-04
DAV:   6    -0.129429116188E+03   -0.38449E-07   -0.10375E-07   165   0.148E-03
  45 F= -.12942912E+03 E0= -.12942912E+03  d E =-.546247E-04
       N       E                     dE             d eps       ncg     rms          rms(c)
DAV:   1    -0.129429171480E+03   -0.55330E-04   -0.62068E-03   327   0.396E-01    0.175E-02
DAV:   2    -0.129429175840E+03   -0.43603E-05   -0.82707E-05   200   0.457E-02    0.109E-02
DAV:   3    -0.129429176940E+03   -0.11002E-05   -0.10083E-05   209   0.165E-02    0.493E-03
DAV:   4    -0.129429177615E+03   -0.67481E-06   -0.28347E-06   247   0.821E-03    0.111E-03
DAV:   5    -0.129429177720E+03   -0.10471E-06   -0.68703E-07   176   0.403E-03    0.534E-04
DAV:   6    -0.129429177783E+03   -0.63289E-07   -0.18374E-07   188   0.188E-03
  46 F= -.12942918E+03 E0= -.12942918E+03  d E =-.615949E-04
       N       E                     dE             d eps       ncg     rms          rms(c)
DAV:   1    -0.129429239301E+03   -0.61582E-04   -0.10944E-02   330   0.521E-01    0.234E-02
DAV:   2    -0.129429246718E+03   -0.74169E-05   -0.14209E-04   242   0.593E-02    0.145E-02
DAV:   3    -0.129429248351E+03   -0.16324E-05   -0.13693E-05   236   0.180E-02    0.655E-03
DAV:   4    -0.129429249577E+03   -0.12261E-05   -0.49577E-06   261   0.103E-02    0.137E-03
DAV:   5    -0.129429249734E+03   -0.15664E-06   -0.12022E-06   200   0.507E-03    0.686E-04
DAV:   6    -0.129429249820E+03   -0.86143E-07   -0.31438E-07   193   0.221E-03
  47 F= -.12942925E+03 E0= -.12942925E+03  d E =-.720366E-04
       N       E                     dE             d eps       ncg     rms          rms(c)
DAV:   1    -0.129429321807E+03   -0.72073E-04   -0.18721E-02   333   0.679E-01    0.307E-02
DAV:   2    -0.129429335392E+03   -0.13585E-04   -0.25034E-04   275   0.767E-02    0.195E-02
DAV:   3    -0.129429336867E+03   -0.14749E-05   -0.16067E-05   228   0.202E-02    0.910E-03
DAV:   4    -0.129429338994E+03   -0.21264E-05   -0.84766E-06   263   0.133E-02    0.166E-03
DAV:   5    -0.129429339171E+03   -0.17698E-06   -0.19924E-06   228   0.649E-03    0.976E-04
DAV:   6    -0.129429339261E+03   -0.90050E-07   -0.48668E-07   200   0.264E-03
  48 F= -.12942934E+03 E0= -.12942934E+03  d E =-.894409E-04
       N       E                     dE             d eps       ncg     rms          rms(c)
DAV:   1    -0.129429420722E+03   -0.81552E-04   -0.30637E-02   334   0.866E-01    0.394E-02
DAV:   2    -0.129429445257E+03   -0.24535E-04   -0.43113E-04   348   0.978E-02    0.256E-02
DAV:   3    -0.129429445352E+03   -0.94612E-07   -0.12893E-05   203   0.209E-02    0.126E-02
DAV:   4    -0.129429448727E+03   -0.33750E-05   -0.13048E-05   237   0.170E-02    0.235E-03
DAV:   5    -0.129429448861E+03   -0.13409E-06   -0.26345E-06   254   0.811E-03    0.148E-03
DAV:   6    -0.129429448943E+03   -0.81921E-07   -0.40103E-07   202   0.292E-03
  49 F= -.12942945E+03 E0= -.12942945E+03  d E =-.109682E-03
       N       E                     dE             d eps       ncg     rms          rms(c)
DAV:   1    -0.129429537964E+03   -0.89104E-04   -0.46852E-02   333   0.107E+00    0.487E-02
DAV:   2    -0.129429576352E+03   -0.38387E-04   -0.66326E-04   379   0.121E-01    0.317E-02
DAV:   3    -0.129429575905E+03    0.44666E-06   -0.18899E-05   201   0.254E-02    0.153E-02
DAV:   4    -0.129429581030E+03   -0.51253E-05   -0.20336E-05   268   0.202E-02    0.316E-03
DAV:   5    -0.129429581120E+03   -0.90059E-07   -0.34761E-06   228   0.965E-03    0.173E-03
DAV:   6    -0.129429581243E+03   -0.12318E-06   -0.41473E-07   225   0.330E-03
  50 F= -.12942958E+03 E0= -.12942958E+03  d E =-.132301E-03
       N       E                     dE             d eps       ncg     rms          rms(c)
DAV:   1    -0.129429688651E+03   -0.10753E-03   -0.66827E-02   332   0.128E+00    0.579E-02
DAV:   2    -0.129429744619E+03   -0.55968E-04   -0.94888E-04   378   0.145E-01    0.379E-02
DAV:   3    -0.129429743429E+03    0.11899E-05   -0.27513E-05   210   0.308E-02    0.185E-02
DAV:   4    -0.129429751023E+03   -0.75940E-05   -0.29733E-05   268   0.246E-02    0.393E-03
DAV:   5    -0.129429751114E+03   -0.90763E-07   -0.53067E-06   212   0.120E-02    0.209E-03
DAV:   6    -0.129429751295E+03   -0.18144E-06   -0.65126E-07   224   0.405E-03
  51 F= -.12942975E+03 E0= -.12942975E+03  d E =-.170052E-03
       N       E                     dE             d eps       ncg     rms          rms(c)
DAV:   1    -0.129429884077E+03   -0.13296E-03   -0.88644E-02   332   0.149E+00    0.658E-02
DAV:   2    -0.129429965843E+03   -0.81765E-04   -0.13219E-03   371   0.171E-01    0.435E-02
DAV:   3    -0.129429962959E+03    0.28834E-05   -0.36791E-05   211   0.360E-02    0.220E-02
DAV:   4    -0.129429973223E+03   -0.10264E-04   -0.41097E-05   268   0.295E-02    0.471E-03
DAV:   5    -0.129429973276E+03   -0.52952E-07   -0.76236E-06   228   0.145E-02    0.245E-03
DAV:   6    -0.129429973507E+03   -0.23126E-06   -0.95366E-07   237   0.487E-03
  52 F= -.12942997E+03 E0= -.12942997E+03  d E =-.222212E-03
       N       E                     dE             d eps       ncg     rms          rms(c)
DAV:   1    -0.129429979453E+03   -0.61768E-05   -0.22695E-05   234   0.253E-02    0.108E-03
DAV:   2    -0.129429979752E+03   -0.29974E-06   -0.15269E-06   222   0.712E-03    0.625E-04
DAV:   3    -0.129429979917E+03   -0.16478E-06   -0.16541E-07   166   0.218E-03    0.444E-04
DAV:   4    -0.129429980186E+03   -0.26845E-06   -0.28088E-08   237   0.112E-03    0.138E-04
DAV:   5    -0.129429980369E+03   -0.18372E-06    0.41125E-09   218   0.599E-04    0.897E-05
DAV:   6    -0.129429980571E+03   -0.20122E-06    0.16389E-08   238   0.388E-04
  53 F= -.12942998E+03 E0= -.12942998E+03  d E =-.706348E-05
       N       E                     dE             d eps       ncg     rms          rms(c)
DAV:   1    -0.129429991662E+03   -0.11293E-04   -0.86355E-05   257   0.484E-02    0.186E-03
DAV:   2    -0.129429992083E+03   -0.42115E-06   -0.39846E-06   198   0.114E-02    0.110E-03
DAV:   3    -0.129429992190E+03   -0.10661E-06   -0.36474E-07   180   0.340E-03    0.765E-04
DAV:   4    -0.129429992335E+03   -0.14511E-06   -0.64466E-08   261   0.167E-03    0.155E-04
DAV:   5    -0.129429992387E+03   -0.52240E-07   -0.17335E-09   172   0.798E-04    0.116E-04
DAV:   6    -0.129429992426E+03   -0.38747E-07    0.18584E-08   190   0.404E-04
  54 F= -.12942999E+03 E0= -.12942999E+03  d E =-.118556E-04
       N       E                     dE             d eps       ncg     rms          rms(c)
DAV:   1    -0.129430008059E+03   -0.15672E-04   -0.18390E-04   274   0.702E-02    0.266E-03
DAV:   2    -0.129430008801E+03   -0.74158E-06   -0.83882E-06   180   0.165E-02    0.156E-03
DAV:   3    -0.129430008897E+03   -0.96260E-07   -0.78615E-07   164   0.489E-03    0.109E-03
DAV:   4    -0.129430008957E+03   -0.59758E-07   -0.15830E-07   189   0.237E-03    0.214E-04
DAV:   5    -0.129430008970E+03   -0.13436E-07   -0.31255E-08   164   0.113E-03    0.165E-04
DAV:   6    -0.129430008979E+03   -0.90049E-08    0.10366E-08   164   0.571E-04
  55 F= -.12943001E+03 E0= -.12943001E+03  d E =-.165530E-04
       N       E                     dE             d eps       ncg     rms          rms(c)
DAV:   1    -0.129430029432E+03   -0.20462E-04   -0.31031E-04   276   0.899E-02    0.335E-03
DAV:   2    -0.129430030277E+03   -0.84584E-06   -0.10275E-05   164   0.170E-02    0.202E-03
DAV:   3    -0.129430030375E+03   -0.97237E-07   -0.92998E-07   164   0.532E-03    0.128E-03
DAV:   4    -0.129430030449E+03   -0.74564E-07   -0.19278E-07   164   0.259E-03    0.238E-04
DAV:   5    -0.129430030459E+03   -0.99112E-08   -0.42241E-08   164   0.127E-03    0.171E-04
DAV:   6    -0.129430030466E+03   -0.65393E-08    0.64873E-09   164   0.607E-04
  56 F= -.12943003E+03 E0= -.12943003E+03  d E =-.214866E-04
       N       E                     dE             d eps       ncg     rms          rms(c)
DAV:   1    -0.129430056023E+03   -0.25564E-04   -0.45772E-04   260   0.108E-01    0.400E-03
DAV:   2    -0.129430056899E+03   -0.87591E-06   -0.11327E-05   164   0.158E-02    0.245E-03
DAV:   3    -0.129430057013E+03   -0.11391E-06   -0.10338E-06   164   0.521E-03    0.144E-03
DAV:   4    -0.129430057126E+03   -0.11358E-06   -0.23290E-07   164   0.268E-03    0.289E-04
DAV:   5    -0.129430057142E+03   -0.16003E-07   -0.57582E-08   164   0.134E-03    0.176E-04
DAV:   6    -0.129430057151E+03   -0.86238E-08    0.43569E-10   164   0.638E-04
  57 F= -.12943006E+03 E0= -.12943006E+03  d E =-.266851E-04
       N       E                     dE             d eps       ncg     rms          rms(c)
DAV:   1    -0.129430087677E+03   -0.30535E-04   -0.62025E-04   260   0.125E-01    0.460E-03
DAV:   2    -0.129430088866E+03   -0.11882E-05   -0.15194E-05   164   0.181E-02    0.282E-03
DAV:   3    -0.129430089017E+03   -0.15164E-06   -0.13829E-06   164   0.597E-03    0.167E-03
DAV:   4    -0.129430089174E+03   -0.15714E-06   -0.32221E-07   164   0.309E-03    0.340E-04
DAV:   5    -0.129430089194E+03   -0.19210E-07   -0.86970E-08   164   0.155E-03    0.206E-04
DAV:   6    -0.129430089203E+03   -0.90859E-08   -0.90393E-09   164   0.739E-04
  58 F= -.12943009E+03 E0= -.12943009E+03  d E =-.320519E-04
       N       E                     dE             d eps       ncg     rms          rms(c)
DAV:   1    -0.129430128233E+03   -0.39040E-04   -0.98966E-04   260   0.158E-01    0.578E-03
DAV:   2    -0.129430130136E+03   -0.19030E-05   -0.24220E-05   184   0.229E-02    0.358E-03
DAV:   3    -0.129430130363E+03   -0.22669E-06   -0.22111E-06   164   0.751E-03    0.215E-03
DAV:   4    -0.129430130597E+03   -0.23411E-06   -0.53787E-07   164   0.395E-03    0.452E-04
DAV:   5    -0.129430130623E+03   -0.26123E-07   -0.15602E-07   164   0.198E-03    0.268E-04
DAV:   6    -0.129430130636E+03   -0.12532E-07   -0.31168E-08   164   0.946E-04
  59 F= -.12943013E+03 E0= -.12943013E+03  d E =-.414330E-04
       N       E                     dE             d eps       ncg     rms          rms(c)
DAV:   1    -0.129430179468E+03   -0.48845E-04   -0.15461E-03   324   0.198E-01    0.715E-03
DAV:   2    -0.129430182041E+03   -0.25729E-05   -0.33631E-05   201   0.257E-02    0.457E-03
DAV:   3    -0.129430182280E+03   -0.23897E-06   -0.27831E-06   164   0.807E-03    0.271E-03
DAV:   4    -0.129430182614E+03   -0.33444E-06   -0.74235E-07   192   0.445E-03    0.543E-04
DAV:   5    -0.129430182650E+03   -0.35458E-07   -0.22859E-07   164   0.219E-03    0.327E-04
DAV:   6    -0.129430182670E+03   -0.20286E-07   -0.54683E-08   164   0.103E-03
  60 F= -.12943018E+03 E0= -.12943018E+03  d E =-.520345E-04
       N       E                     dE             d eps       ncg     rms          rms(c)
DAV:   1    -0.129430241729E+03   -0.59079E-04   -0.23708E-03   324   0.247E-01    0.893E-03
DAV:   2    -0.129430245701E+03   -0.39716E-05   -0.51879E-05   243   0.318E-02    0.574E-03
DAV:   3    -0.129430245897E+03   -0.19638E-06   -0.28458E-06   164   0.789E-03    0.348E-03
DAV:   4    -0.129430246386E+03   -0.48868E-06   -0.11651E-06   216   0.552E-03    0.662E-04
DAV:   5    -0.129430246435E+03   -0.48904E-07   -0.36041E-07   164   0.269E-03    0.451E-04
DAV:   6    -0.129430246469E+03   -0.34671E-07   -0.91723E-08   164   0.120E-03
  61 F= -.12943025E+03 E0= -.12943025E+03  d E =-.637991E-04
       N       E                     dE             d eps       ncg     rms          rms(c)
DAV:   1    -0.129430316915E+03   -0.70480E-04   -0.36432E-03   325   0.308E-01    0.113E-02
DAV:   2    -0.129430322716E+03   -0.58011E-05   -0.76619E-05   232   0.393E-02    0.717E-03
DAV:   3    -0.129430323033E+03   -0.31732E-06   -0.43291E-06   197   0.986E-03    0.425E-03
DAV:   4    -0.129430323737E+03   -0.70420E-06   -0.17437E-06   253   0.675E-03    0.782E-04
DAV:   5    -0.129430323819E+03   -0.81651E-07   -0.53623E-07   164   0.327E-03    0.527E-04
DAV:   6    -0.129430323868E+03   -0.48808E-07   -0.14181E-07   164   0.144E-03
  62 F= -.12943032E+03 E0= -.12943032E+03  d E =-.773987E-04
       N       E                     dE             d eps       ncg     rms          rms(c)
DAV:   1    -0.129430407703E+03   -0.83884E-04   -0.57013E-03   328   0.387E-01    0.144E-02
DAV:   2    -0.129430416397E+03   -0.86939E-05   -0.11577E-04   232   0.490E-02    0.906E-03
DAV:   3    -0.129430416893E+03   -0.49602E-06   -0.67814E-06   209   0.125E-02    0.528E-03
DAV:   4    -0.129430417893E+03   -0.10006E-05   -0.26853E-06   271   0.837E-03    0.943E-04
DAV:   5    -0.129430418016E+03   -0.12263E-06   -0.81453E-07   181   0.400E-03    0.625E-04
DAV:   6    -0.129430418077E+03   -0.61238E-07   -0.22128E-07   164   0.175E-03
  63 F= -.12943042E+03 E0= -.12943042E+03  d E =-.942093E-04
       N       E                     dE             d eps       ncg     rms          rms(c)
DAV:   1    -0.129430516724E+03   -0.98708E-04   -0.89378E-03   328   0.487E-01    0.183E-02
DAV:   2    -0.129430529873E+03   -0.13149E-04   -0.17655E-04   259   0.612E-02    0.115E-02
DAV:   3    -0.129430530634E+03   -0.76062E-06   -0.10691E-05   211   0.158E-02    0.660E-03
DAV:   4    -0.129430532062E+03   -0.14281E-05   -0.42121E-06   263   0.105E-02    0.117E-03
DAV:   5    -0.129430532241E+03   -0.17923E-06   -0.12575E-06   192   0.497E-03    0.757E-04
DAV:   6    -0.129430532322E+03   -0.80697E-07   -0.34963E-07   172   0.218E-03
  64 F= -.12943053E+03 E0= -.12943053E+03  d E =-.114244E-03
       N       E                     dE             d eps       ncg     rms          rms(c)
DAV:   1    -0.129430647560E+03   -0.11532E-03   -0.13764E-02   328   0.605E-01    0.229E-02
DAV:   2    -0.129430668082E+03   -0.20522E-04   -0.27379E-04   299   0.756E-02    0.146E-02
DAV:   3    -0.129430668640E+03   -0.55765E-06   -0.12051E-05   211   0.181E-02    0.834E-03
DAV:   4    -0.129430670675E+03   -0.20355E-05   -0.55663E-06   236   0.129E-02    0.148E-03
DAV:   5    -0.129430670874E+03   -0.19877E-06   -0.14629E-06   200   0.590E-03    0.939E-04
DAV:   6    -0.129430670974E+03   -0.99640E-07   -0.30432E-07   164   0.241E-03
  65 F= -.12943067E+03 E0= -.12943067E+03  d E =-.138652E-03
       N       E                     dE             d eps       ncg     rms          rms(c)
DAV:   1    -0.129430805329E+03   -0.13446E-03   -0.20951E-02   328   0.746E-01    0.285E-02
DAV:   2    -0.129430837302E+03   -0.31973E-04   -0.42354E-04   331   0.930E-02    0.187E-02
DAV:   3    -0.129430836943E+03    0.35935E-06   -0.12027E-05   218   0.195E-02    0.109E-02
DAV:   4    -0.129430840146E+03   -0.32033E-05   -0.91646E-06   236   0.164E-02    0.200E-03
DAV:   5    -0.129430840381E+03   -0.23520E-06   -0.23290E-06   208   0.761E-03    0.129E-03
DAV:   6    -0.129430840533E+03   -0.15110E-06   -0.43262E-07   164   0.286E-03
  66 F= -.12943084E+03 E0= -.12943084E+03  d E =-.169559E-03
       N       E                     dE             d eps       ncg     rms          rms(c)
DAV:   1    -0.129430993287E+03   -0.15291E-03   -0.31720E-02   330   0.919E-01    0.351E-02
DAV:   2    -0.129431042940E+03   -0.49652E-04   -0.65314E-04   363   0.115E-01    0.234E-02
DAV:   3    -0.129431041611E+03    0.13283E-05   -0.12461E-05   226   0.206E-02    0.137E-02
DAV:   4    -0.129431046685E+03   -0.50734E-05   -0.15608E-05   268   0.203E-02    0.305E-03
DAV:   5    -0.129431046876E+03   -0.19075E-06   -0.33747E-06   226   0.966E-03    0.177E-03
DAV:   6    -0.129431047044E+03   -0.16891E-06   -0.37496E-07   165   0.313E-03
  67 F= -.12943105E+03 E0= -.12943105E+03  d E =-.206512E-03
       N       E                     dE             d eps       ncg     rms          rms(c)
DAV:   1    -0.129431218131E+03   -0.17126E-03   -0.47425E-02   329   0.112E+00    0.426E-02
DAV:   2    -0.129431294618E+03   -0.76487E-04   -0.99527E-04   364   0.141E-01    0.282E-02
DAV:   3    -0.129431292815E+03    0.18031E-05   -0.17964E-05   209   0.246E-02    0.166E-02
DAV:   4    -0.129431300352E+03   -0.75375E-05   -0.22400E-05   268   0.246E-02    0.350E-03
DAV:   5    -0.129431300690E+03   -0.33726E-06   -0.48290E-06   245   0.114E-02    0.215E-03
DAV:   6    -0.129431300929E+03   -0.23975E-06   -0.53580E-07   200   0.373E-03
  68 F= -.12943130E+03 E0= -.12943130E+03  d E =-.253885E-03
       N       E                     dE             d eps       ncg     rms          rms(c)
DAV:   1    -0.129431484412E+03   -0.18372E-03   -0.68558E-02   331   0.135E+00    0.507E-02
DAV:   2    -0.129431599257E+03   -0.11485E-03   -0.14760E-03   364   0.170E-01    0.336E-02
DAV:   3    -0.129431596999E+03    0.22583E-05   -0.25734E-05   219   0.293E-02    0.199E-02
DAV:   4    -0.129431608206E+03   -0.11207E-04   -0.31865E-05   268   0.295E-02    0.424E-03
DAV:   5    -0.129431608712E+03   -0.50594E-06   -0.69764E-06   245   0.137E-02    0.261E-03
DAV:   6    -0.129431609066E+03   -0.35384E-06   -0.79917E-07   200   0.450E-03
  69 F= -.12943161E+03 E0= -.12943161E+03  d E =-.308137E-03
       N       E                     dE             d eps       ncg     rms          rms(c)
DAV:   1    -0.129431789163E+03   -0.18045E-03   -0.97371E-02   329   0.160E+00    0.598E-02
DAV:   2    -0.129431959665E+03   -0.17050E-03   -0.21670E-03   348   0.203E-01    0.399E-02
DAV:   3    -0.129431957388E+03    0.22766E-05   -0.44267E-05   284   0.349E-02    0.237E-02
DAV:   4    -0.129431973508E+03   -0.16119E-04   -0.34221E-05   268   0.332E-02    0.427E-03
DAV:   5    -0.129431974356E+03   -0.84792E-06   -0.82240E-06   238   0.149E-02    0.278E-03
DAV:   6    -0.129431974916E+03   -0.56005E-06   -0.88987E-07   200   0.484E-03
  70 F= -.12943197E+03 E0= -.12943197E+03  d E =-.365850E-03
       N       E                     dE             d eps       ncg     rms          rms(c)
DAV:   1    -0.129432120652E+03   -0.14630E-03   -0.14057E-01   329   0.191E+00    0.715E-02
DAV:   2    -0.129432375443E+03   -0.25479E-03   -0.32159E-03   364   0.246E-01    0.470E-02
DAV:   3    -0.129432373243E+03    0.22002E-05   -0.61788E-05   291   0.406E-02    0.280E-02
DAV:   4    -0.129432397303E+03   -0.24060E-04   -0.47449E-05   260   0.397E-02    0.495E-03
DAV:   5    -0.129432398637E+03   -0.13337E-05   -0.11726E-05   272   0.176E-02    0.336E-03
DAV:   6    -0.129432399522E+03   -0.88497E-06   -0.13599E-06   264   0.583E-03
  71 F= -.12943240E+03 E0= -.12943240E+03  d E =-.424606E-03
       N       E                     dE             d eps       ncg     rms          rms(c)
DAV:   1    -0.129432476878E+03   -0.78241E-04   -0.19709E-01   328   0.225E+00    0.843E-02
DAV:   2    -0.129432840103E+03   -0.36323E-03   -0.45676E-03   348   0.290E-01    0.562E-02
DAV:   3    -0.129432836644E+03    0.34594E-05   -0.90017E-05   351   0.492E-02    0.338E-02
DAV:   4    -0.129432872072E+03   -0.35428E-04   -0.67812E-05   251   0.474E-02    0.615E-03
DAV:   5    -0.129432873949E+03   -0.18771E-05   -0.16807E-05   272   0.211E-02    0.409E-03
DAV:   6    -0.129432875207E+03   -0.12578E-05   -0.20043E-06   232   0.685E-03
  72 F= -.12943288E+03 E0= -.12943288E+03  d E =-.475685E-03
       N       E                     dE             d eps       ncg     rms          rms(c)
DAV:   1    -0.129432746190E+03    0.12776E-03   -0.28468E-01   328   0.273E+00    0.103E-01
DAV:   2    -0.129433289279E+03   -0.54309E-03   -0.68590E-03   364   0.363E-01    0.668E-02
DAV:   3    -0.129433285869E+03    0.34109E-05   -0.12633E-04   332   0.581E-02    0.399E-02
DAV:   4    -0.129433331822E+03   -0.45953E-04   -0.98485E-05   276   0.582E-02    0.696E-03
DAV:   5    -0.129433334925E+03   -0.31035E-05   -0.24348E-05   304   0.253E-02    0.518E-03
DAV:   6    -0.129433336974E+03   -0.20489E-05   -0.26888E-06   256   0.875E-03
  73 F= -.12943334E+03 E0= -.12943334E+03  d E =-.461767E-03
       N       E                     dE             d eps       ncg     rms          rms(c)
DAV:   1    -0.129432594059E+03    0.74087E-03   -0.38203E-01   328   0.322E+00    0.132E-01
DAV:   2    -0.129433408010E+03   -0.81395E-03   -0.10552E-02   328   0.464E-01    0.920E-02
DAV:   3    -0.129433361703E+03    0.46307E-04   -0.26981E-04   400   0.868E-02    0.568E-02
DAV:   4    -0.129433393916E+03   -0.32213E-04   -0.19905E-04   297   0.789E-02    0.111E-02
DAV:   5    -0.129433396525E+03   -0.26091E-05   -0.40612E-05   304   0.335E-02    0.670E-03
DAV:   6    -0.129433398608E+03   -0.20826E-05   -0.43480E-06   256   0.108E-02
  74 F= -.12943340E+03 E0= -.12943340E+03  d E =-.616335E-04
       N       E                     dE             d eps       ncg     rms          rms(c)
DAV:   1    -0.129433867494E+03   -0.47097E-03   -0.36753E-02   328   0.973E-01    0.668E-02
DAV:   2    -0.129433986489E+03   -0.11900E-03   -0.16417E-03   370   0.178E-01    0.371E-02
DAV:   3    -0.129433971018E+03    0.15471E-04   -0.44323E-05   341   0.371E-02    0.207E-02
DAV:   4    -0.129433965780E+03    0.52385E-05   -0.35083E-05   234   0.300E-02    0.455E-03
DAV:   5    -0.129433966623E+03   -0.84344E-06   -0.82993E-06   320   0.137E-02    0.261E-03
DAV:   6    -0.129433967450E+03   -0.82671E-06   -0.12663E-06   280   0.553E-03
  75 F= -.12943397E+03 E0= -.12943397E+03  d E =-.568842E-03
       N       E                     dE             d eps       ncg     rms          rms(c)
DAV:   1    -0.129433483071E+03    0.48355E-03   -0.29855E-02   342   0.883E-01    0.575E-02
DAV:   2    -0.129433571061E+03   -0.87991E-04   -0.13589E-03   394   0.162E-01    0.337E-02
DAV:   3    -0.129433549827E+03    0.21234E-04   -0.35953E-05   304   0.333E-02    0.193E-02
DAV:   4    -0.129433535578E+03    0.14249E-04   -0.30828E-05   264   0.278E-02    0.436E-03
DAV:   5    -0.129433535610E+03   -0.32177E-07   -0.69848E-06   304   0.132E-02    0.249E-03
DAV:   6    -0.129433537846E+03   -0.22353E-05   -0.11033E-06   216   0.547E-03
  76 F= -.12943354E+03 E0= -.12943354E+03  d E =0.429604E-03
       N       E                     dE             d eps       ncg     rms          rms(c)
DAV:   1    -0.129433733319E+03   -0.19771E-03   -0.18029E-03   365   0.215E-01    0.148E-02
DAV:   2    -0.129433742626E+03   -0.93069E-05   -0.77757E-05   355   0.395E-02    0.798E-03
DAV:   3    -0.129433745070E+03   -0.24438E-05   -0.37762E-06   222   0.101E-02    0.450E-03
DAV:   4    -0.129433748966E+03   -0.38960E-05   -0.21402E-06   257   0.695E-03    0.106E-03
DAV:   5    -0.129433750620E+03   -0.16541E-05   -0.50405E-07   272   0.355E-03    0.542E-04
DAV:   6    -0.129433751525E+03   -0.90499E-06   -0.10844E-07   200   0.153E-03
  77 F= -.12943375E+03 E0= -.12943375E+03  d E =-.213679E-03
       N       E                     dE             d eps       ncg     rms          rms(c)
DAV:   1    -0.129433950943E+03   -0.20032E-03   -0.55948E-03   365   0.381E-01    0.256E-02
DAV:   2    -0.129433969116E+03   -0.18172E-04   -0.25383E-04   328   0.704E-02    0.147E-02
DAV:   3    -0.129433966620E+03    0.24962E-05   -0.87850E-06   268   0.162E-02    0.832E-03
DAV:   4    -0.129433965016E+03    0.16032E-05   -0.54021E-06   265   0.117E-02    0.194E-03
DAV:   5    -0.129433964864E+03    0.15254E-06   -0.12194E-06   272   0.562E-03    0.101E-03
DAV:   6    -0.129433964990E+03   -0.12643E-06   -0.21010E-07   220   0.248E-03
  78 F= -.12943396E+03 E0= -.12943396E+03  d E =-.213465E-03
       N       E                     dE             d eps       ncg     rms          rms(c)
DAV:   1    -0.129433983270E+03   -0.18406E-04   -0.76112E-03   374   0.445E-01    0.295E-02
DAV:   2    -0.129434005243E+03   -0.21973E-04   -0.34662E-04   383   0.823E-02    0.173E-02
DAV:   3    -0.129433999920E+03    0.53231E-05   -0.11685E-05   272   0.191E-02    0.996E-03
DAV:   4    -0.129433995972E+03    0.39479E-05   -0.89994E-06   236   0.151E-02    0.226E-03
DAV:   5    -0.129433995657E+03    0.31518E-06   -0.20079E-06   272   0.743E-03    0.121E-03
DAV:   6    -0.129433995993E+03   -0.33606E-06   -0.40008E-07   218   0.327E-03
  79 F= -.12943400E+03 E0= -.12943400E+03  d E =-.310027E-04
       N       E                     dE             d eps       ncg     rms          rms(c)
DAV:   1    -0.129433999653E+03   -0.39961E-05   -0.71801E-06   228   0.139E-02    0.794E-04
DAV:   2    -0.129434000331E+03   -0.67758E-06   -0.56044E-07   270   0.391E-03    0.497E-04
DAV:   3    -0.129434001038E+03   -0.70789E-06   -0.10269E-07   202   0.142E-03    0.345E-04
DAV:   4    -0.129434002269E+03   -0.12306E-05   -0.48470E-08   228   0.869E-04    0.113E-04
DAV:   5    -0.129434002946E+03   -0.67738E-06   -0.18032E-08   272   0.561E-04    0.964E-05
DAV:   6    -0.129434004124E+03   -0.11774E-05   -0.17791E-08   200   0.549E-04
  80 F= -.12943400E+03 E0= -.12943400E+03  d E =-.813083E-05
       N       E                     dE             d eps       ncg     rms          rms(c)
DAV:   1    -0.129434009706E+03   -0.67595E-05   -0.27896E-05   292   0.276E-02    0.135E-03
DAV:   2    -0.129434010010E+03   -0.30369E-06   -0.15535E-06   272   0.672E-03    0.853E-04
DAV:   3    -0.129434010186E+03   -0.17690E-06   -0.13700E-07   214   0.211E-03    0.594E-04
DAV:   4    -0.129434010469E+03   -0.28263E-06   -0.11947E-08   235   0.120E-03    0.146E-04
DAV:   5    -0.129434010569E+03   -0.10009E-06    0.23996E-08   248   0.557E-04    0.930E-05
DAV:   6    -0.129434010650E+03   -0.81129E-07    0.31952E-08   192   0.297E-04
  81 F= -.12943401E+03 E0= -.12943401E+03  d E =-.652649E-05
       N       E                     dE             d eps       ncg     rms          rms(c)
DAV:   1    -0.129434016571E+03   -0.60016E-05   -0.56714E-05   231   0.398E-02    0.192E-03
DAV:   2    -0.129434016915E+03   -0.34429E-06   -0.39000E-06   208   0.107E-02    0.121E-03
DAV:   3    -0.129434016968E+03   -0.52579E-07   -0.47456E-07   213   0.330E-03    0.894E-04
DAV:   4    -0.129434016983E+03   -0.15264E-07   -0.10762E-07   239   0.183E-03    0.257E-04
DAV:   5    -0.129434016998E+03   -0.15133E-07   -0.12609E-08   209   0.898E-04    0.149E-04
DAV:   6    -0.129434017015E+03   -0.17201E-07    0.17046E-08   172   0.509E-04
  82 F= -.12943402E+03 E0= -.12943402E+03  d E =-.636491E-05
       N       E                     dE             d eps       ncg     rms          rms(c)
DAV:   1    -0.129434022915E+03   -0.59167E-05   -0.90422E-05   178   0.502E-02    0.240E-03
DAV:   2    -0.129434023430E+03   -0.51516E-06   -0.61986E-06   184   0.134E-02    0.151E-03
DAV:   3    -0.129434023479E+03   -0.49573E-07   -0.78322E-07   164   0.418E-03    0.111E-03
DAV:   4    -0.129434023451E+03    0.28289E-07   -0.19254E-07   240   0.231E-03    0.315E-04
DAV:   5    -0.129434023448E+03    0.28140E-08   -0.40151E-08   164   0.113E-03    0.185E-04
DAV:   6    -0.129434023459E+03   -0.10449E-07    0.73478E-09   164   0.640E-04
  83 F= -.12943402E+03 E0= -.12943402E+03  d E =-.644354E-05
       N       E                     dE             d eps       ncg     rms          rms(c)
DAV:   1    -0.129434028548E+03   -0.50998E-05   -0.12260E-04   164   0.584E-02    0.275E-03
DAV:   2    -0.129434029232E+03   -0.68356E-06   -0.82710E-06   165   0.155E-02    0.171E-03
DAV:   3    -0.129434029292E+03   -0.60264E-07   -0.10592E-06   164   0.484E-03    0.127E-03
DAV:   4    -0.129434029243E+03    0.49407E-07   -0.26312E-07   197   0.266E-03    0.348E-04
DAV:   5    -0.129434029238E+03    0.49504E-08   -0.61551E-08   164   0.130E-03    0.207E-04
DAV:   6    -0.129434029254E+03   -0.16159E-07    0.66836E-10   164   0.724E-04
  84 F= -.12943403E+03 E0= -.12943403E+03  d E =-.579503E-05
       N       E                     dE             d eps       ncg     rms          rms(c)
DAV:   1    -0.129434033230E+03   -0.39925E-05   -0.14897E-04   164   0.642E-02    0.296E-03
DAV:   2    -0.129434034060E+03   -0.82991E-06   -0.97970E-06   164   0.169E-02    0.182E-03
DAV:   3    -0.129434034145E+03   -0.85329E-07   -0.12622E-06   164   0.527E-03    0.135E-03
DAV:   4    -0.129434034107E+03    0.38414E-07   -0.30862E-07   164   0.289E-03    0.350E-04
DAV:   5    -0.129434034111E+03   -0.45120E-08   -0.73883E-08   164   0.139E-03    0.216E-04
DAV:   6    -0.129434034132E+03   -0.20807E-07   -0.28534E-09   164   0.758E-04
  85 F= -.12943403E+03 E0= -.12943403E+03  d E =-.487848E-05
       N       E                     dE             d eps       ncg     rms          rms(c)
DAV:   1    -0.129434038114E+03   -0.40021E-05   -0.21535E-04   228   0.756E-02    0.347E-03
DAV:   2    -0.129434038632E+03   -0.51865E-06   -0.74433E-06   164   0.147E-02    0.216E-03
DAV:   3    -0.129434038664E+03   -0.31846E-07   -0.81382E-07   164   0.494E-03    0.121E-03
DAV:   4    -0.129434038646E+03    0.17709E-07   -0.19245E-07   164   0.251E-03    0.259E-04
DAV:   5    -0.129434038669E+03   -0.22362E-07   -0.29428E-08   164   0.126E-03    0.189E-04
DAV:   6    -0.129434038697E+03   -0.27967E-07    0.10433E-08   164   0.636E-04
  86 F= -.12943404E+03 E0= -.12943404E+03  d E =-.456437E-05
       N       E                     dE             d eps       ncg     rms          rms(c)
DAV:   1    -0.129434043385E+03   -0.47159E-05   -0.29854E-04   260   0.876E-02    0.397E-03
DAV:   2    -0.129434043746E+03   -0.36165E-06   -0.60401E-06   164   0.127E-02    0.249E-03
DAV:   3    -0.129434043798E+03   -0.51985E-07   -0.72305E-07   164   0.467E-03    0.118E-03
DAV:   4    -0.129434043824E+03   -0.26006E-07   -0.17615E-07   164   0.233E-03    0.260E-04
DAV:   5    -0.129434043858E+03   -0.33502E-07   -0.24770E-08   164   0.122E-03    0.154E-04
DAV:   6    -0.129434043890E+03   -0.32171E-07    0.10467E-08   164   0.602E-04
  87 F= -.12943404E+03 E0= -.12943404E+03  d E =-.519322E-05
       N       E                     dE             d eps       ncg     rms          rms(c)
DAV:   1    -0.129434050789E+03   -0.69316E-05   -0.42038E-04   261   0.103E-01    0.467E-03
DAV:   2    -0.129434051228E+03   -0.43871E-06   -0.70599E-06   164   0.139E-02    0.287E-03
DAV:   3    -0.129434051356E+03   -0.12753E-06   -0.87138E-07   164   0.518E-03    0.123E-03
DAV:   4    -0.129434051417E+03   -0.61224E-07   -0.21341E-07   164   0.249E-03    0.265E-04
DAV:   5    -0.129434051445E+03   -0.28451E-07   -0.34746E-08   164   0.127E-03    0.145E-04
DAV:   6    -0.129434051470E+03   -0.24812E-07    0.64655E-09   166   0.650E-04
  88 F= -.12943405E+03 E0= -.12943405E+03  d E =-.758017E-05
       N       E                     dE             d eps       ncg     rms          rms(c)
DAV:   1    -0.129434062622E+03   -0.11177E-04   -0.62820E-04   292   0.125E-01    0.578E-03
DAV:   2    -0.129434062991E+03   -0.36903E-06   -0.74548E-06   193   0.140E-02    0.356E-03
DAV:   3    -0.129434063157E+03   -0.16526E-06   -0.96561E-07   164   0.517E-03    0.138E-03
DAV:   4    -0.129434063227E+03   -0.70509E-07   -0.24917E-07   164   0.247E-03    0.315E-04
DAV:   5    -0.129434063239E+03   -0.11909E-07   -0.39020E-08   164   0.119E-03    0.147E-04
DAV:   6    -0.129434063248E+03   -0.86147E-08    0.45399E-09   164   0.610E-04
  89 F= -.12943406E+03 E0= -.12943406E+03  d E =-.117777E-04
       N       E                     dE             d eps       ncg     rms          rms(c)
DAV:   1    -0.129434078694E+03   -0.15455E-04   -0.97976E-04   292   0.156E-01    0.731E-03
DAV:   2    -0.129434079297E+03   -0.60291E-06   -0.12487E-05   254   0.180E-02    0.453E-03
DAV:   3    -0.129434079497E+03   -0.19992E-06   -0.16101E-06   175   0.660E-03    0.189E-03
DAV:   4    -0.129434079575E+03   -0.78395E-07   -0.43961E-07   181   0.324E-03    0.444E-04
DAV:   5    -0.129434079586E+03   -0.10692E-07   -0.85494E-08   164   0.159E-03    0.212E-04
DAV:   6    -0.129434079595E+03   -0.96315E-08   -0.88718E-09   164   0.770E-04
  90 F= -.12943408E+03 E0= -.12943408E+03  d E =-.163478E-04
       N       E                     dE             d eps       ncg     rms          rms(c)
DAV:   1    -0.129434097491E+03   -0.17905E-04   -0.15290E-03   292   0.196E-01    0.925E-03
DAV:   2    -0.129434098505E+03   -0.10141E-05   -0.20942E-05   247   0.233E-02    0.574E-03
DAV:   3    -0.129434098764E+03   -0.25901E-06   -0.26829E-06   247   0.847E-03    0.252E-03
DAV:   4    -0.129434098882E+03   -0.11804E-06   -0.75496E-07   192   0.424E-03    0.596E-04
DAV:   5    -0.129434098900E+03   -0.17931E-07   -0.16275E-07   164   0.211E-03    0.289E-04
DAV:   6    -0.129434098923E+03   -0.23054E-07   -0.32051E-08   164   0.101E-03
  91 F= -.12943410E+03 E0= -.12943410E+03  d E =-.193271E-04
       N       E                     dE             d eps       ncg     rms          rms(c)
DAV:   1    -0.129434117662E+03   -0.18763E-04   -0.22924E-03   326   0.240E-01    0.113E-02
DAV:   2    -0.129434119124E+03   -0.14621E-05   -0.30804E-05   212   0.283E-02    0.700E-03
DAV:   3    -0.129434119513E+03   -0.38882E-06   -0.39531E-06   239   0.103E-02    0.303E-03
DAV:   4    -0.129434119703E+03   -0.19006E-06   -0.11103E-06   167   0.511E-03    0.713E-04
DAV:   5    -0.129434119745E+03   -0.41884E-07   -0.24692E-07   164   0.255E-03    0.346E-04
DAV:   6    -0.129434119790E+03   -0.45371E-07   -0.57126E-08   176   0.122E-03
  92 F= -.12943412E+03 E0= -.12943412E+03  d E =-.208679E-04
       N       E                     dE             d eps       ncg     rms          rms(c)
DAV:   1    -0.129434141833E+03   -0.22088E-04   -0.32954E-03   325   0.286E-01    0.133E-02
DAV:   2    -0.129434143766E+03   -0.19323E-05   -0.40862E-05   200   0.327E-02    0.822E-03
DAV:   3    -0.129434144456E+03   -0.69027E-06   -0.52822E-06   200   0.119E-02    0.333E-03
DAV:   4    -0.129434144792E+03   -0.33578E-06   -0.14541E-06   164   0.577E-03    0.766E-04
DAV:   5    -0.129434144868E+03   -0.76247E-07   -0.32545E-07   175   0.282E-03    0.368E-04
DAV:   6    -0.129434144930E+03   -0.61900E-07   -0.83582E-08   197   0.138E-03
  93 F= -.12943414E+03 E0= -.12943414E+03  d E =-.251394E-04
       N       E                     dE             d eps       ncg     rms          rms(c)
DAV:   1    -0.129434175162E+03   -0.30294E-04   -0.46939E-03   328   0.343E-01    0.158E-02
DAV:   2    -0.129434178064E+03   -0.29021E-05   -0.58326E-05   237   0.390E-02    0.968E-03
DAV:   3    -0.129434179121E+03   -0.10568E-05   -0.74880E-06   260   0.143E-02    0.386E-03
DAV:   4    -0.129434179614E+03   -0.49338E-06   -0.20258E-06   256   0.685E-03    0.851E-04
DAV:   5    -0.129434179691E+03   -0.77237E-07   -0.45858E-07   175   0.329E-03    0.392E-04
DAV:   6    -0.129434179738E+03   -0.46994E-07   -0.13048E-07   189   0.170E-03
  94 F= -.12943418E+03 E0= -.12943418E+03  d E =-.348083E-04
       N       E                     dE             d eps       ncg     rms          rms(c)
DAV:   1    -0.129434216215E+03   -0.36524E-04   -0.66003E-03   333   0.410E-01    0.186E-02
DAV:   2    -0.129434221018E+03   -0.48034E-05   -0.90285E-05   236   0.483E-02    0.115E-02
DAV:   3    -0.129434222211E+03   -0.11932E-05   -0.11278E-05   254   0.176E-02    0.479E-03
DAV:   4    -0.129434222746E+03   -0.53495E-06   -0.30328E-06   272   0.854E-03    0.106E-03
DAV:   5    -0.129434222796E+03   -0.49885E-07   -0.70855E-07   220   0.418E-03    0.475E-04
DAV:   6    -0.129434222840E+03   -0.43473E-07   -0.21553E-07   201   0.216E-03
  95 F= -.12943422E+03 E0= -.12943422E+03  d E =-.431014E-04
       N       E                     dE             d eps       ncg     rms          rms(c)
DAV:   1    -0.129434266408E+03   -0.43612E-04   -0.83213E-03   326   0.463E-01    0.207E-02
DAV:   2    -0.129434273194E+03   -0.67856E-05   -0.11853E-04   268   0.544E-02    0.128E-02
DAV:   3    -0.129434274388E+03   -0.11938E-05   -0.10520E-05   236   0.160E-02    0.571E-03
DAV:   4    -0.129434275240E+03   -0.85173E-06   -0.37279E-06   272   0.913E-03    0.114E-03
DAV:   5    -0.129434275358E+03   -0.11859E-06   -0.87888E-07   200   0.443E-03    0.545E-04
DAV:   6    -0.129434275442E+03   -0.83333E-07   -0.24205E-07   164   0.210E-03
  96 F= -.12943428E+03 E0= -.12943428E+03  d E =-.526019E-04
       N       E                     dE             d eps       ncg     rms          rms(c)
DAV:   1    -0.129434333540E+03   -0.58182E-04   -0.95882E-03   328   0.501E-01    0.219E-02
DAV:   2    -0.129434342639E+03   -0.90986E-05   -0.14707E-04   268   0.597E-02    0.136E-02
DAV:   3    -0.129434344040E+03   -0.14012E-05   -0.11917E-05   247   0.171E-02    0.653E-03
DAV:   4    -0.129434345269E+03   -0.12290E-05   -0.44761E-06   251   0.102E-02    0.133E-03
DAV:   5    -0.129434345416E+03   -0.14692E-06   -0.11160E-06   204   0.508E-03    0.687E-04
DAV:   6    -0.129434345499E+03   -0.83009E-07   -0.28845E-07   164   0.223E-03
  97 F= -.12943435E+03 E0= -.12943435E+03  d E =-.700575E-04
       N       E                     dE             d eps       ncg     rms          rms(c)
DAV:   1    -0.129434409200E+03   -0.63784E-04   -0.11217E-02   328   0.545E-01    0.231E-02
DAV:   2    -0.129434422004E+03   -0.12805E-04   -0.19524E-04   267   0.671E-02    0.145E-02
DAV:   3    -0.129434423363E+03   -0.13589E-05   -0.14098E-05   256   0.186E-02    0.749E-03
DAV:   4    -0.129434424841E+03   -0.14781E-05   -0.55745E-06   225   0.116E-02    0.154E-03
DAV:   5    -0.129434424988E+03   -0.14692E-06   -0.14622E-06   222   0.585E-03    0.826E-04
DAV:   6    -0.129434425099E+03   -0.11087E-06   -0.38589E-07   167   0.254E-03
  98 F= -.12943443E+03 E0= -.12943443E+03  d E =-.796001E-04
       N       E                     dE             d eps       ncg     rms          rms(c)
DAV:   1    -0.129434427449E+03   -0.24612E-05   -0.12111E-05   236   0.189E-02    0.883E-04
DAV:   2    -0.129434427616E+03   -0.16706E-06   -0.86086E-07   175   0.522E-03    0.541E-04
DAV:   3    -0.129434427717E+03   -0.10041E-06   -0.10291E-07   205   0.166E-03    0.385E-04
DAV:   4    -0.129434427884E+03   -0.16678E-06   -0.15110E-08   260   0.936E-04    0.112E-04
DAV:   5    -0.129434427987E+03   -0.10361E-06    0.99906E-09   222   0.495E-04    0.720E-05
DAV:   6    -0.129434428084E+03   -0.96896E-07    0.18758E-08   233   0.312E-04
  99 F= -.12943443E+03 E0= -.12943443E+03  d E =-.298507E-05
       N       E                     dE             d eps       ncg     rms          rms(c)
DAV:   1    -0.129434431995E+03   -0.40077E-05   -0.44428E-05   228   0.360E-02    0.156E-03
DAV:   2    -0.129434432280E+03   -0.28479E-06   -0.29159E-06   177   0.977E-03    0.928E-04
DAV:   3    -0.129434432337E+03   -0.57289E-07   -0.33448E-07   204   0.289E-03    0.697E-04
DAV:   4    -0.129434432381E+03   -0.43617E-07   -0.67271E-08   228   0.150E-03    0.219E-04
DAV:   5    -0.129434432407E+03   -0.26003E-07   -0.55676E-09   164   0.744E-04    0.119E-04
DAV:   6    -0.129434432424E+03   -0.17691E-07    0.15560E-08   173   0.423E-04
 100 F= -.12943443E+03 E0= -.12943443E+03  d E =-.434019E-05
       N       E                     dE             d eps       ncg     rms          rms(c)
DAV:   1    -0.129434437238E+03   -0.48315E-05   -0.88016E-05   164   0.506E-02    0.214E-03
DAV:   2    -0.129434437738E+03   -0.49974E-06   -0.56658E-06   164   0.137E-02    0.125E-03
DAV:   3    -0.129434437800E+03   -0.61807E-07   -0.66543E-07   164   0.403E-03    0.941E-04
DAV:   4    -0.129434437813E+03   -0.12909E-07   -0.14821E-07   168   0.206E-03    0.291E-04
DAV:   5    -0.129434437819E+03   -0.67839E-08   -0.31664E-08   164   0.102E-03    0.160E-04
DAV:   6    -0.129434437827E+03   -0.77662E-08    0.76266E-09   164   0.572E-04
 101 F= -.12943444E+03 E0= -.12943444E+03  d E =-.540278E-05
       N       E                     dE             d eps       ncg     rms          rms(c)
DAV:   1    -0.129434443656E+03   -0.58367E-05   -0.13548E-04   196   0.618E-02    0.255E-03
DAV:   2    -0.129434444201E+03   -0.54465E-06   -0.65594E-06   164   0.146E-02    0.146E-03
DAV:   3    -0.129434444269E+03   -0.68304E-07   -0.68096E-07   164   0.445E-03    0.102E-03
DAV:   4    -0.129434444285E+03   -0.16433E-07   -0.13848E-07   164   0.223E-03    0.215E-04
DAV:   5    -0.129434444292E+03   -0.64547E-08   -0.21400E-08   164   0.105E-03    0.160E-04
DAV:   6    -0.129434444300E+03   -0.79012E-08    0.12639E-08   164   0.535E-04
 102 F= -.12943444E+03 E0= -.12943444E+03  d E =-.647269E-05
       N       E                     dE             d eps       ncg     rms          rms(c)
DAV:   1    -0.129434451412E+03   -0.71197E-05   -0.17929E-04   196   0.704E-02    0.282E-03
DAV:   2    -0.129434452126E+03   -0.71437E-06   -0.83364E-06   164   0.164E-02    0.158E-03
DAV:   3    -0.129434452229E+03   -0.10290E-06   -0.86295E-07   164   0.496E-03    0.110E-03
DAV:   4    -0.129434452272E+03   -0.43648E-07   -0.17372E-07   164   0.243E-03    0.214E-04
DAV:   5    -0.129434452283E+03   -0.10588E-07   -0.32842E-08   164   0.116E-03    0.174E-04
DAV:   6    -0.129434452291E+03   -0.79281E-08    0.94636E-09   164   0.586E-04
 103 F= -.12943445E+03 E0= -.12943445E+03  d E =-.799118E-05
       N       E                     dE             d eps       ncg     rms          rms(c)
DAV:   1    -0.129434461608E+03   -0.93246E-05   -0.22820E-04   228   0.780E-02    0.310E-03
DAV:   2    -0.129434462195E+03   -0.58708E-06   -0.72612E-06   164   0.145E-02    0.179E-03
DAV:   3    -0.129434462292E+03   -0.97130E-07   -0.69240E-07   164   0.463E-03    0.108E-03
DAV:   4    -0.129434462353E+03   -0.60915E-07   -0.14241E-07   164   0.223E-03    0.194E-04
DAV:   5    -0.129434462361E+03   -0.79744E-08   -0.24138E-08   164   0.110E-03    0.155E-04
DAV:   6    -0.129434462366E+03   -0.55288E-08    0.10677E-08   164   0.540E-04
 104 F= -.12943446E+03 E0= -.12943446E+03  d E =-.100753E-04
       N       E                     dE             d eps       ncg     rms          rms(c)
DAV:   1    -0.129434475271E+03   -0.12910E-04   -0.34768E-04   260   0.957E-02    0.377E-03
DAV:   2    -0.129434475875E+03   -0.60419E-06   -0.82571E-06   164   0.141E-02    0.228E-03
DAV:   3    -0.129434475987E+03   -0.11223E-06   -0.80814E-07   164   0.473E-03    0.132E-03
DAV:   4    -0.129434476069E+03   -0.81109E-07   -0.19179E-07   164   0.245E-03    0.285E-04
DAV:   5    -0.129434476073E+03   -0.47908E-08   -0.39918E-08   164   0.124E-03    0.173E-04
DAV:   6    -0.129434476078E+03   -0.45143E-08    0.45410E-09   164   0.605E-04
 105 F= -.12943448E+03 E0= -.12943448E+03  d E =-.137115E-04
       N       E                     dE             d eps       ncg     rms          rms(c)
DAV:   1    -0.129434492344E+03   -0.16271E-04   -0.51099E-04   260   0.116E-01    0.456E-03
DAV:   2    -0.129434493289E+03   -0.94472E-06   -0.12829E-05   211   0.174E-02    0.280E-03
DAV:   3    -0.129434493436E+03   -0.14768E-06   -0.12642E-06   164   0.585E-03    0.167E-03
DAV:   4    -0.129434493547E+03   -0.11044E-06   -0.31961E-07   211   0.310E-03    0.392E-04
DAV:   5    -0.129434493554E+03   -0.73760E-08   -0.77897E-08   164   0.158E-03    0.228E-04
DAV:   6    -0.129434493565E+03   -0.10741E-07   -0.85270E-09   164   0.783E-04
 106 F= -.12943449E+03 E0= -.12943449E+03  d E =-.174870E-04
