 vasp.5.4.1 24Jun15 (build Jan 13 2020 12:58:22) complex                        
  
 executed on           IFC91_ompi date 2020.02.03  09:56:59
 running on   15 total cores
 each image running on    1 cores
 distrk:  each k-point on    1 cores,    1 groups
 distr:  one band on NCORES_PER_BAND=   1 cores,    1 groups


--------------------------------------------------------------------------------------------------------


 INCAR:
 POTCAR:    PAW_PBE H 15Jun2001                   
 POTCAR:    PAW_PBE C 08Apr2002                   
 POTCAR:    PAW_PBE N 08Apr2002                   
 POTCAR:    PAW_PBE O 08Apr2002                   
 POTCAR:    PAW_PBE H 15Jun2001                   
   VRHFIN =H: ultrasoft test                                                    
   LEXCH  = PE                                                                  
   EATOM  =    12.4884 eV,    0.9179 Ry                                         
                                                                                
   TITEL  = PAW_PBE H 15Jun2001                                                 
   LULTRA =        F    use ultrasoft PP ?                                      
   IUNSCR =        0    unscreen: 0-lin 1-nonlin 2-no                           
   RPACOR =    0.000    partial core radius                                     
   POMASS =    1.000; ZVAL   =    1.000    mass and valenz                      
   RCORE  =    1.100    outmost cutoff radius                                   
   RWIGS  =    0.700; RWIGS  =    0.370    wigner-seitz radius (au A)           
   ENMAX  =  250.000; ENMIN  =  200.000 eV                                      
   RCLOC  =    0.701    cutoff for local pot                                    
   LCOR   =        T    correct aug charges                                     
   LPAW   =        T    paw PP                                                  
   EAUG   =  400.000                                                            
   RMAX   =    1.123    core radius for proj-oper                               
   RAUG   =    1.200    factor for augmentation sphere                          
   RDEP   =    1.112    radius for radial grids                                 
   RDEPT  =    0.926    core radius for aug-charge                              
                                                                                
   Atomic configuration                                                         
    2 entries                                                                   
     n  l   j            E        occ.                                          
     1  0  0.50        -6.4927   1.0000                                         
     2  1  0.50        -3.4015   0.0000                                         
   Description                                                                  
     l       E           TYP  RCUT    TYP  RCUT                                 
     0     -6.4927494     23  1.100                                             
     0      6.8029130     23  1.100                                             
     1     -4.0817478     23  1.100                                             
  local pseudopotential read in
  atomic valenz-charges read in
  non local Contribution for L=           0  read in
    real space projection operators read in
  non local Contribution for L=           0  read in
    real space projection operators read in
  non local Contribution for L=           1  read in
    real space projection operators read in
    PAW grid and wavefunctions read in
 
   number of l-projection  operators is LMAX  =           3
   number of lm-projection operators is LMMAX =           5
 
 POTCAR:    PAW_PBE C 08Apr2002                   
   VRHFIN =C: s2p2                                                              
   LEXCH  = PE                                                                  
   EATOM  =   147.1560 eV,   10.8157 Ry                                         
                                                                                
   TITEL  = PAW_PBE C 08Apr2002                                                 
   LULTRA =        F    use ultrasoft PP ?                                      
   IUNSCR =        1    unscreen: 0-lin 1-nonlin 2-no                           
   RPACOR =    1.200    partial core radius                                     
   POMASS =   12.011; ZVAL   =    4.000    mass and valenz                      
   RCORE  =    1.500    outmost cutoff radius                                   
   RWIGS  =    1.630; RWIGS  =    0.863    wigner-seitz radius (au A)           
   ENMAX  =  400.000; ENMIN  =  300.000 eV                                      
   ICORE  =        2    local potential                                         
   LCOR   =        T    correct aug charges                                     
   LPAW   =        T    paw PP                                                  
   EAUG   =  644.873                                                            
   DEXC   =    0.000                                                            
   RMAX   =    1.529    core radius for proj-oper                               
   RAUG   =    1.300    factor for augmentation sphere                          
   RDEP   =    1.501    radius for radial grids                                 
   RDEPT  =    1.300    core radius for aug-charge                              
                                                                                
   Atomic configuration                                                         
    4 entries                                                                   
     n  l   j            E        occ.                                          
     1  0  0.50      -273.3789   2.0000                                         
     2  0  0.50       -13.7508   2.0000                                         
     2  1  0.50        -5.2854   2.0000                                         
     3  2  1.50        -5.4423   0.0000                                         
   Description                                                                  
     l       E           TYP  RCUT    TYP  RCUT                                 
     0    -13.7508458     23  1.200                                             
     0     -8.2022199     23  1.200                                             
     1     -5.2854383     23  1.500                                             
     1     34.0145650     23  1.500                                             
     2     -5.4423304      7  1.500                                             
  local pseudopotential read in
  partial core-charges read in
  partial kinetic energy density read in
  atomic valenz-charges read in
  non local Contribution for L=           0  read in
    real space projection operators read in
  non local Contribution for L=           0  read in
    real space projection operators read in
  non local Contribution for L=           1  read in
    real space projection operators read in
  non local Contribution for L=           1  read in
    real space projection operators read in
    PAW grid and wavefunctions read in
 
   number of l-projection  operators is LMAX  =           4
   number of lm-projection operators is LMMAX =           8
 
 POTCAR:    PAW_PBE N 08Apr2002                   
   VRHFIN =N: s2p3                                                              
   LEXCH  = PE                                                                  
   EATOM  =   264.5486 eV,   19.4438 Ry                                         
                                                                                
   TITEL  = PAW_PBE N 08Apr2002                                                 
   LULTRA =        F    use ultrasoft PP ?                                      
   IUNSCR =        1    unscreen: 0-lin 1-nonlin 2-no                           
   RPACOR =    1.200    partial core radius                                     
   POMASS =   14.001; ZVAL   =    5.000    mass and valenz                      
   RCORE  =    1.500    outmost cutoff radius                                   
   RWIGS  =    1.400; RWIGS  =    0.741    wigner-seitz radius (au A)           
   ENMAX  =  400.000; ENMIN  =  300.000 eV                                      
   ICORE  =        2    local potential                                         
   LCOR   =        T    correct aug charges                                     
   LPAW   =        T    paw PP                                                  
   EAUG   =  627.112                                                            
   DEXC   =    0.000                                                            
   RMAX   =    1.529    core radius for proj-oper                               
   RAUG   =    1.300    factor for augmentation sphere                          
   RDEP   =    1.514    radius for radial grids                                 
   RDEPT  =    1.338    core radius for aug-charge                              
                                                                                
   Atomic configuration                                                         
    4 entries                                                                   
     n  l   j            E        occ.                                          
     1  0  0.50      -384.7179   2.0000                                         
     2  0  0.50       -18.5828   2.0000                                         
     2  1  0.50        -7.0898   3.0000                                         
     3  2  1.50        -6.8029   0.0000                                         
   Description                                                                  
     l       E           TYP  RCUT    TYP  RCUT                                 
     0    -18.5828119     23  1.200                                             
     0    -13.5018863     23  1.200                                             
     1     -7.0897853     23  1.500                                             
     1      9.5240782     23  1.500                                             
     2     -6.8029130      7  1.500                                             
  local pseudopotential read in
  partial core-charges read in
  partial kinetic energy density read in
  atomic valenz-charges read in
  non local Contribution for L=           0  read in
    real space projection operators read in
  non local Contribution for L=           0  read in
    real space projection operators read in
  non local Contribution for L=           1  read in
    real space projection operators read in
  non local Contribution for L=           1  read in
    real space projection operators read in
    PAW grid and wavefunctions read in
 
   number of l-projection  operators is LMAX  =           4
   number of lm-projection operators is LMMAX =           8
 
 POTCAR:    PAW_PBE O 08Apr2002                   
   VRHFIN =O: s2p4                                                              
   LEXCH  = PE                                                                  
   EATOM  =   432.3788 eV,   31.7789 Ry                                         
                                                                                
   TITEL  = PAW_PBE O 08Apr2002                                                 
   LULTRA =        F    use ultrasoft PP ?                                      
   IUNSCR =        1    unscreen: 0-lin 1-nonlin 2-no                           
   RPACOR =    1.200    partial core radius                                     
   POMASS =   16.000; ZVAL   =    6.000    mass and valenz                      
   RCORE  =    1.520    outmost cutoff radius                                   
   RWIGS  =    1.550; RWIGS  =    0.820    wigner-seitz radius (au A)           
   ENMAX  =  400.000; ENMIN  =  300.000 eV                                      
   ICORE  =        2    local potential                                         
   LCOR   =        T    correct aug charges                                     
   LPAW   =        T    paw PP                                                  
   EAUG   =  605.392                                                            
   DEXC   =    0.000                                                            
   RMAX   =    1.553    core radius for proj-oper                               
   RAUG   =    1.300    factor for augmentation sphere                          
   RDEP   =    1.550    radius for radial grids                                 
   RDEPT  =    1.329    core radius for aug-charge                              
                                                                                
   Atomic configuration                                                         
    4 entries                                                                   
     n  l   j            E        occ.                                          
     1  0  0.50      -514.6923   2.0000                                         
     2  0  0.50       -23.9615   2.0000                                         
     2  1  0.50        -9.0305   4.0000                                         
     3  2  1.50        -9.5241   0.0000                                         
   Description                                                                  
     l       E           TYP  RCUT    TYP  RCUT                                 
     0    -23.9615318     23  1.200                                             
     0     -9.5240782     23  1.200                                             
     1     -9.0304911     23  1.520                                             
     1      8.1634956     23  1.520                                             
     2     -9.5240782      7  1.500                                             
  local pseudopotential read in
  partial core-charges read in
  partial kinetic energy density read in
  kinetic energy density of atom read in
  atomic valenz-charges read in
  non local Contribution for L=           0  read in
    real space projection operators read in
  non local Contribution for L=           0  read in
    real space projection operators read in
  non local Contribution for L=           1  read in
    real space projection operators read in
  non local Contribution for L=           1  read in
    real space projection operators read in
    PAW grid and wavefunctions read in
 
   number of l-projection  operators is LMAX  =           4
   number of lm-projection operators is LMMAX =           8
 
 Optimization of the real space projectors (new method)

 maximal supplied QI-value         = 34.20
 optimisation between [QCUT,QGAM] = [  9.92, 20.18] = [ 27.55,114.04] Ry 
 Optimized for a Real-space Cutoff    1.26 Angstroem

   l    n(q)    QCUT    max X(q) W(low)/X(q) W(high)/X(q)  e(spline) 
   0      8     9.919    19.460    0.50E-03    0.23E-03    0.29E-06
   0      8     9.919    12.209    0.48E-03    0.23E-03    0.28E-06
   1      7     9.919     4.655    0.17E-03    0.75E-03    0.30E-06
 Optimization of the real space projectors (new method)

 maximal supplied QI-value         = 25.13
 optimisation between [QCUT,QGAM] = [ 10.05, 20.36] = [ 28.30,116.06] Ry 
 Optimized for a Real-space Cutoff    1.30 Angstroem

   l    n(q)    QCUT    max X(q) W(low)/X(q) W(high)/X(q)  e(spline) 
   0      8    10.053   115.676    0.49E-03    0.72E-03    0.18E-06
   0      8    10.053    87.132    0.49E-03    0.71E-03    0.18E-06
   1      7    10.053     4.429    0.32E-03    0.31E-03    0.18E-06
   1      7    10.053     2.733    0.23E-03    0.19E-03    0.20E-06
 Optimization of the real space projectors (new method)

 maximal supplied QI-value         = 25.13
 optimisation between [QCUT,QGAM] = [ 10.05, 20.36] = [ 28.30,116.06] Ry 
 Optimized for a Real-space Cutoff    1.65 Angstroem

   l    n(q)    QCUT    max X(q) W(low)/X(q) W(high)/X(q)  e(spline) 
   0     10    10.053    79.467    0.76E-04    0.72E-04    0.56E-06
   0     10    10.053    66.151    0.76E-04    0.72E-04    0.55E-06
   1     10    10.053     8.350    0.25E-03    0.92E-03    0.41E-05
   1     10    10.053     5.531    0.27E-03    0.10E-02    0.45E-05
 Optimization of the real space projectors (new method)

 maximal supplied QI-value         = 24.76
 optimisation between [QCUT,QGAM] = [ 10.15, 20.30] = [ 28.85,115.39] Ry 
 Optimized for a Real-space Cutoff    1.38 Angstroem

   l    n(q)    QCUT    max X(q) W(low)/X(q) W(high)/X(q)  e(spline) 
   0      8    10.150    20.381    0.22E-03    0.32E-03    0.29E-06
   0      8    10.150    15.268    0.23E-03    0.35E-03    0.30E-06
   1      8    10.150     5.964    0.46E-03    0.53E-03    0.21E-06
   1      8    10.150     5.382    0.38E-03    0.45E-03    0.19E-06
  PAW_PBE H 15Jun2001                   :
 energy of atom  1       EATOM=  -12.4884
 kinetic energy error for atom=    0.0098 (will be added to EATOM!!)
  PAW_PBE C 08Apr2002                   :
 energy of atom  2       EATOM= -147.1560
 kinetic energy error for atom=    0.0288 (will be added to EATOM!!)
  PAW_PBE N 08Apr2002                   :
 energy of atom  3       EATOM= -264.5486
 kinetic energy error for atom=    0.0736 (will be added to EATOM!!)
  PAW_PBE O 08Apr2002                   :
 energy of atom  4       EATOM= -432.3788
 kinetic energy error for atom=    0.1156 (will be added to EATOM!!)
 
 
 POSCAR: H12 C6 N2 O2                            
  positions in direct lattice
  velocities in cartesian coordinates
 exchange correlation table for  LEXCH =        8
   RHO(1)=    0.500       N(1)  =     2000
   RHO(2)=  100.500       N(2)  =     4000

 VTST: version 3.2, (02/03/18)

 CHAIN: initializing optimizer
 
 OPT: Using FIRE optimizer
 OPT: FIRE, Init
 OPT: FIRE, MAXMOVE       0.20000
 OPT: FIRE, TIMESTEP      0.10000
 OPT: FIRE, FTIMEMAX      1.00000
 OPT: FIRE, FTIMEINC      1.10000
 OPT: FIRE, FTIMEDEC      0.50000
 OPT: FIRE, FALPHADEC     0.99000
 OPT: FIRE, FALPHA        0.10000
 OPT: FIRE, FNMIN         5
 
 CHAIN: Read ICHAIN            0
 CHAIN: Running the NEB
 NEB:          SPRING     -5.000000
 NEB:          LCLIMB      T
 NEB:     LTANGENTOLD      F
 NEB:           LDNEB      F
 NEB:        LDNEBORG      F
 NEB:        LNEBCELL      F
 NEB:          EFIRST      0.000000
 NEB:           ELAST      0.000000
 
 POSCAR: H12 C6 N2 O2                            
  positions in direct lattice
  No initial velocities read in
 
 POSCAR: H12 C6 N2 O2                            
  positions in direct lattice
  No initial velocities read in
 


--------------------------------------------------------------------------------------------------------


 ion  position               nearest neighbor table
   1  0.378  0.537  0.498-  13 1.09
   2  0.376  0.481  0.477-  13 1.10
   3  0.385  0.491  0.535-  13 1.10
   4  0.448  0.443  0.517-  19 1.02
   5  0.519  0.427  0.512-  15 1.10
   6  0.561  0.445  0.443-  16 1.10
   7  0.521  0.486  0.428-  16 1.10
   8  0.505  0.429  0.431-  16 1.10
   9  0.516  0.546  0.498-  20 1.03
  10  0.573  0.564  0.573-  18 1.10
  11  0.608  0.558  0.527-  18 1.10
  12  0.566  0.599  0.526-  18 1.10
  13  0.393  0.504  0.502-   1 1.09   2 1.10   3 1.10  14 1.52
  14  0.442  0.506  0.492-  21 1.24  19 1.36  13 1.52
  15  0.514  0.460  0.496-   5 1.10  19 1.48  16 1.54  17 1.55
  16  0.526  0.455  0.447-   7 1.10   8 1.10   6 1.10  15 1.54
  17  0.548  0.490  0.521-  22 1.24  20 1.35  15 1.55
  18  0.574  0.566  0.537-  12 1.10  11 1.10  10 1.10  20 1.45
  19  0.466  0.469  0.504-   4 1.02  14 1.36  15 1.48
  20  0.543  0.534  0.517-   9 1.03  17 1.35  18 1.45
  21  0.460  0.539  0.475-  14 1.24
  22  0.578  0.472  0.543-  17 1.24
 
  LATTYP: Found a simple cubic cell.
 ALAT       =    30.0000000000
  
  Lattice vectors:
  
 A1 = (  30.0000000000,   0.0000000000,   0.0000000000)
 A2 = (   0.0000000000,  30.0000000000,   0.0000000000)
 A3 = (   0.0000000000,   0.0000000000,  30.0000000000)


Analysis of symmetry for initial positions (statically):
=====================================================================
 Subroutine PRICEL returns:
 Original cell was already a primitive cell.
 

 Routine SETGRP: Setting up the symmetry group for a 
 simple cubic supercell.


 Subroutine GETGRP returns: Found  1 space group operations
 (whereof  1 operations were pure point group operations)
 out of a pool of 48 trial point group operations.


The static configuration has the point symmetry C_1 .


Analysis of symmetry for dynamics (positions and initial velocities):
=====================================================================
 Subroutine PRICEL returns:
 Original cell was already a primitive cell.
 

 Routine SETGRP: Setting up the symmetry group for a 
 simple cubic supercell.


 Subroutine GETGRP returns: Found  1 space group operations
 (whereof  1 operations were pure point group operations)
 out of a pool of 48 trial point group operations.


The dynamic configuration has the point symmetry C_1 .
 
 
 KPOINTS: Mo2C                                    

Automatic generation of k-mesh.
Space group operators:
 irot       det(A)        alpha          n_x          n_y          n_z        tau_x        tau_y        tau_z
    1     1.000000     0.000000     1.000000     0.000000     0.000000     0.000000     0.000000     0.000000
 
 Subroutine IBZKPT returns following result:
 ===========================================
 
 Found      4 irreducible k-points:
 
 Following reciprocal coordinates:
            Coordinates               Weight
  0.250000  0.250000  0.250000      2.000000
 -0.250000  0.250000  0.250000      2.000000
  0.250000 -0.250000  0.250000      2.000000
 -0.250000 -0.250000  0.250000      2.000000
 
 Following cartesian coordinates:
            Coordinates               Weight
  0.008333  0.008333  0.008333      2.000000
 -0.008333  0.008333  0.008333      2.000000
  0.008333 -0.008333  0.008333      2.000000
 -0.008333 -0.008333  0.008333      2.000000
 


--------------------------------------------------------------------------------------------------------




 Dimension of arrays:
   k-points           NKPTS =      4   k-points in BZ     NKDIM =      4   number of bands    NBANDS=     41
   number of dos      NEDOS =    301   number of ions     NIONS =     22
   non local maximal  LDIM  =      4   non local SUM 2l+1 LMDIM =      8
   total plane-waves  NPLWV = ******
   max r-space proj   IRMAX =   2395   max aug-charges    IRDMAX=   1821
   dimension x,y,z NGX =   150 NGY =  150 NGZ =  150
   dimension x,y,z NGXF=   300 NGYF=  300 NGZF=  300
   support grid    NGXF=   300 NGYF=  300 NGZF=  300
   ions per type =              12   6   2   2
 NGX,Y,Z   is equivalent  to a cutoff of   8.31,  8.31,  8.31 a.u.
 NGXF,Y,Z  is equivalent  to a cutoff of  16.62, 16.62, 16.62 a.u.


 I would recommend the setting:
   dimension x,y,z NGX =   147 NGY =  147 NGZ =  147
 SYSTEM =  unknown system                          
 POSCAR =  H12 C6 N2 O2                            

 Startparameter for this run:
   NWRITE =      2    write-flag & timer
   PREC   = normal    normal or accurate (medium, high low for compatibility)
   ISTART =      0    job   : 0-new  1-cont  2-samecut
   ICHARG =      2    charge: 1-file 2-atom 10-const
   ISPIN  =      1    spin polarized calculation?
   LNONCOLLINEAR =      F non collinear calculations
   LSORBIT =      F    spin-orbit coupling
   INIWAV =      1    electr: 0-lowe 1-rand  2-diag
   LASPH  =      F    aspherical Exc in radial PAW
   METAGGA=      F    non-selfconsistent MetaGGA calc.

 Electronic Relaxation 1
   ENCUT  =  400.0 eV  29.40 Ry    5.42 a.u.  48.92 48.92 48.92*2*pi/ulx,y,z
   ENINI  =  400.0     initial cutoff
   ENAUG  =  644.9 eV  augmentation charge cutoff
   NELM   =    500;   NELMIN=  6; NELMDL= -5     # of ELM steps 
   EDIFF  = 0.1E-03   stopping-criterion for ELM
   LREAL  =      T    real-space projection
   NLSPLINE    = F    spline interpolate recip. space projectors
   LCOMPAT=      F    compatible to vasp.4.4
   GGA_COMPAT  = T    GGA compatible to vasp.4.4-vasp.4.6
   LMAXPAW     = -100 max onsite density
   LMAXMIX     =    2 max onsite mixed and CHGCAR
   VOSKOWN=      0    Vosko Wilk Nusair interpolation
   ROPT   =   -0.00050  -0.00050  -0.00050  -0.00050
 Ionic relaxation
   EDIFFG = -.1E+00   stopping-criterion for IOM
   NSW    =    300    number of steps for IOM
   NBLOCK =      1;   KBLOCK =    300    inner block; outer block 
   IBRION =      3    ionic relax: 0-MD 1-quasi-New 2-CG
   NFREE  =      0    steps in history (QN), initial steepest desc. (CG)
   ISIF   =      2    stress and relaxation
   IWAVPR =     11    prediction:  0-non 1-charg 2-wave 3-comb
   ISYM   =      2    0-nonsym 1-usesym 2-fastsym
   LCORR  =      T    Harris-Foulkes like correction to forces

   POTIM  = 0.0000    time-step for ionic-motion
   TEIN   =    0.0    initial temperature
   TEBEG  =    0.0;   TEEND  =   0.0 temperature during run
   SMASS  =   2.00    Nose mass-parameter (am)
   estimated Nose-frequenzy (Omega)   =  0.24E+10 period in steps =  0.00 mass=   0.137E-25a.u.
   SCALEE = 1.0000    scale energy and forces
   NPACO  =    256;   APACO  = 16.0  distance and # of slots for P.C.
   PSTRESS=    0.0 pullay stress

  Mass of Ions in am
   POMASS =   1.00 12.01 14.00 16.00
  Ionic Valenz
   ZVAL   =   1.00  4.00  5.00  6.00
  Atomic Wigner-Seitz radii
   RWIGS  =  -1.00 -1.00 -1.00 -1.00
  virtual crystal weights 
   VCA    =   1.00  1.00  1.00  1.00
   NELECT =      58.0000    total number of electrons
   NUPDOWN=      -1.0000    fix difference up-down

 DOS related values:
   EMIN   =  10.00;   EMAX   =-10.00  energy-range for DOS
   EFERMI =   0.00
   ISMEAR =     0;   SIGMA  =   0.20  broadening in eV -4-tet -1-fermi 0-gaus

 Electronic relaxation 2 (details)
   IALGO  =     38    algorithm
   LDIAG  =      T    sub-space diagonalisation (order eigenvalues)
   LSUBROT=      F    optimize rotation matrix (better conditioning)
   TURBO    =      0    0=normal 1=particle mesh
   IRESTART =      0    0=no restart 2=restart with 2 vectors
   NREBOOT  =      0    no. of reboots
   NMIN     =      0    reboot dimension
   EREF     =   0.00    reference energy to select bands
   IMIX   =      4    mixing-type and parameters
     AMIX     =   0.40;   BMIX     =  1.00
     AMIX_MAG =   1.60;   BMIX_MAG =  1.00
     AMIN     =   0.10
     WC   =   100.;   INIMIX=   1;  MIXPRE=   1;  MAXMIX= -45

 Intra band minimization:
   WEIMIN = 0.0010     energy-eigenvalue tresh-hold
   EBREAK =  0.61E-06  absolut break condition
   DEPER  =   0.30     relativ break condition  

   TIME   =   0.40     timestep for ELM

  volume/ion in A,a.u.               =    1227.27      8282.05
  Fermi-wavevector in a.u.,A,eV,Ry     =   0.211234  0.399174  0.607087  0.044620
  Thomas-Fermi vector in A             =   0.980021
 
 Write flags
   LWAVE  =      F    write WAVECAR
   LCHARG =      F    write CHGCAR
   LVTOT  =      F    write LOCPOT, total local potential
   LVHAR  =      F    write LOCPOT, Hartree potential only
   LELF   =      F    write electronic localiz. function (ELF)
   LORBIT =      0    0 simple, 1 ext, 2 COOP (PROOUT)


 Dipole corrections
   LMONO  =      F    monopole corrections only (constant potential shift)
   LDIPOL =      F    correct potential (dipole corrections)
   IDIPOL =      0    1-x, 2-y, 3-z, 4-all directions 
   EPSILON=  1.0000000 bulk dielectric constant

 Exchange correlation treatment:
   GGA     =    PE    GGA type
   LEXCH   =     8    internal setting for exchange type
   VOSKOWN=      0    Vosko Wilk Nusair interpolation
   LHFCALC =     F    Hartree Fock is set to
   LHFONE  =     F    Hartree Fock one center treatment
   AEXX    =    0.0000 exact exchange contribution

 Linear response parameters
   LEPSILON=     F    determine dielectric tensor
   LRPA    =     F    only Hartree local field effects (RPA)
   LNABLA  =     F    use nabla operator in PAW spheres
   LVEL    =     F    velocity operator in full k-point grid
   LINTERFAST=   F  fast interpolation
   KINTER  =     0    interpolate to denser k-point grid
   CSHIFT  =0.1000    complex shift for real part using Kramers Kronig
   OMEGAMAX=  -1.0    maximum frequency
   DEG_THRESHOLD= 0.2000000E-02 threshold for treating states as degnerate
   RTIME   =    0.100 relaxation time in fs

 Orbital magnetization related:
   ORBITALMAG=     F  switch on orbital magnetization
   LCHIMAG   =     F  perturbation theory with respect to B field
   DQ        =  0.001000  dq finite difference perturbation B field



--------------------------------------------------------------------------------------------------------


 quickmin algorithm: (dynamic with friction)
 charge density and potential will be updated during run
 non-spin polarized calculation
 Variant of blocked Davidson
 Davidson routine will perform the subspace rotation
 perform sub-space diagonalisation
    after iterative eigenvector-optimisation
 modified Broyden-mixing scheme, WC =      100.0
 initial mixing is a Kerker type mixing with AMIX =  0.4000 and BMIX =      1.0000
 Hartree-type preconditioning will be used
 using additional bands           12
 real space projection scheme for non local part
 use partial core corrections
 calculate Harris-corrections to forces 
   (improved forces if not selfconsistent)
 use gradient corrections 
 use of overlap-Matrix (Vanderbilt PP)
 Gauss-broadening in eV      SIGMA  =   0.20


--------------------------------------------------------------------------------------------------------


  energy-cutoff  :      400.00
  volume of cell :    27000.00
      direct lattice vectors                 reciprocal lattice vectors
    30.000000000  0.000000000  0.000000000     0.033333333  0.000000000  0.000000000
     0.000000000 30.000000000  0.000000000     0.000000000  0.033333333  0.000000000
     0.000000000  0.000000000 30.000000000     0.000000000  0.000000000  0.033333333

  length of vectors
    30.000000000 30.000000000 30.000000000     0.033333333  0.033333333  0.033333333


 
 k-points in units of 2pi/SCALE and weight: Mo2C                                    
   0.00833333  0.00833333  0.00833333       0.250
  -0.00833333  0.00833333  0.00833333       0.250
   0.00833333 -0.00833333  0.00833333       0.250
  -0.00833333 -0.00833333  0.00833333       0.250
 
 k-points in reciprocal lattice and weights: Mo2C                                    
   0.25000000  0.25000000  0.25000000       0.250
  -0.25000000  0.25000000  0.25000000       0.250
   0.25000000 -0.25000000  0.25000000       0.250
  -0.25000000 -0.25000000  0.25000000       0.250
 
 position of ions in fractional coordinates (direct lattice) 
   0.37847726  0.53695734  0.49805048
   0.37636470  0.48133460  0.47741755
   0.38508557  0.49087881  0.53527974
   0.44828908  0.44334141  0.51696080
   0.51945128  0.42694737  0.51217092
   0.56068194  0.44461294  0.44340276
   0.52059790  0.48586296  0.42804474
   0.50494365  0.42854132  0.43127647
   0.51600521  0.54567104  0.49828286
   0.57269870  0.56420080  0.57348688
   0.60843402  0.55780984  0.52678076
   0.56563858  0.59937897  0.52586226
   0.39266704  0.50352328  0.50163154
   0.44244362  0.50591584  0.49234301
   0.51387527  0.45955003  0.49623556
   0.52556750  0.45469774  0.44661626
   0.54766638  0.48988025  0.52118682
   0.57398560  0.56551787  0.53678829
   0.46622839  0.46907739  0.50414642
   0.54282733  0.53446976  0.51658079
   0.45961400  0.53941781  0.47493772
   0.57846210  0.47241262  0.54251740
 
 position of ions in cartesian coordinates  (Angst):
  11.35431765 16.10872014 14.94151433
  11.29094102 14.44003803 14.32252635
  11.55256723 14.72636418 16.05839218
  13.44867241 13.30024224 15.50882402
  15.58353844 12.80842098 15.36512752
  16.82045810 13.33838815 13.30208288
  15.61793700 14.57588871 12.84134234
  15.14830963 12.85623972 12.93829419
  15.48015632 16.37013115 14.94848571
  17.18096096 16.92602390 17.20460640
  18.25302067 16.73429512 15.80342283
  16.96915749 17.98136899 15.77586794
  11.78001111 15.10569838 15.04894606
  13.27330853 15.17747517 14.77029033
  15.41625803 13.78650104 14.88706673
  15.76702496 13.64093210 13.39848774
  16.42999139 14.69640748 15.63560454
  17.21956787 16.96553617 16.10364880
  13.98685166 14.07232173 15.12439275
  16.28482000 16.03409274 15.49742367
  13.78841995 16.18253438 14.24813145
  17.35386296 14.17237866 16.27552211
 


--------------------------------------------------------------------------------------------------------


 k-point  1 :   0.2500 0.2500 0.2500  plane waves:  490454
 k-point  2 :  -0.2500 0.2500 0.2500  plane waves:  490454
 k-point  3 :   0.2500-0.2500 0.2500  plane waves:  490454
 k-point  4 :  -0.2500-0.2500 0.2500  plane waves:  490454

 maximum and minimum number of plane-waves per node :    490454   490454

 maximum number of plane-waves:    490454
 maximum index in each direction: 
   IXMAX=   49   IYMAX=   49   IZMAX=   48
   IXMIN=  -49   IYMIN=  -49   IZMIN=  -49

 WARNING: aliasing errors must be expected set NGX to 198 to avoid them
 WARNING: aliasing errors must be expected set NGY to 198 to avoid them
 WARNING: aliasing errors must be expected set NGZ to 196 to avoid them
 aliasing errors are usually negligible using standard VASP settings
 and one can safely disregard these warnings

 serial   3D FFT for wavefunctions
 parallel 3D FFT for charge:
    minimum data exchange during FFTs selected (reduces bandwidth)


 total amount of memory used by VASP on root node  4333713. kBytes
========================================================================

   base      :      30000. kBytes
   nonlr-proj:       2408. kBytes
   fftplans  :     924480. kBytes
   grid      :    2089440. kBytes
   one-center:         67. kBytes
   wavefun   :    1287318. kBytes
 
     INWAV:  cpu time    0.0000: real time    0.0004
 Broyden mixing: mesh for mixing (old mesh)
   NGX = 97   NGY = 97   NGZ = 97
  (NGX  =300   NGY  =300   NGZ  =300)
  gives a total of 912673 points

 initial charge density was supplied:
 charge density of overlapping atoms calculated
 number of electron      58.0000000 magnetization 
 keeping initial charge density in first step


--------------------------------------------------------------------------------------------------------


 Maximum index for non-local projection operator         2284
 Maximum index for augmentation-charges         1573 (set IRDMAX)


--------------------------------------------------------------------------------------------------------


 First call to EWALD:  gamma=   0.059
 Maximum number of real-space cells 3x 3x 3
 Maximum number of reciprocal cells 3x 3x 3

 FEWALD executed in parallel
    FEWALD:  cpu time    0.0050: real time    0.0048


----------------------------------------- Iteration    1(   1)  ---------------------------------------


    POTLOK:  cpu time   24.0183: real time   23.9989
    SETDIJ:  cpu time    0.0280: real time    0.0283
     EDDAV:  cpu time  312.8094: real time  312.5536
       DOS:  cpu time    0.0010: real time    0.0009
    --------------------------------------------
      LOOP:  cpu time  336.8588: real time  336.5864

 eigenvalue-minimisations  :   408
 total energy-change (2. order) : 0.5781056E+03  (-0.8278945E+03)
 number of electron      58.0000000 magnetization 
 augmentation part       58.0000000 magnetization 

 Free energy of the ion-electron system (eV)
  ---------------------------------------------------
  alpha Z        PSCENC =         0.51957394
  Ewald energy   TEWEN  =      6089.16659089
  -Hartree energ DENC   =     -7833.05209119
  -exchange      EXHF   =         0.00000000
  -V(xc)+E(xc)   XCENC  =       201.92461280
  PAW double counting   =      1779.70502452    -1789.20730229
  entropy T*S    EENTRO =        -0.79882337
  eigenvalues    EBANDS =      -296.13532582
  atomic energy  EATOM  =      2425.98333211
  Solvation  Ediel_sol  =         0.00000000
  ---------------------------------------------------
  free energy    TOTEN  =       578.10559158 eV

  energy without entropy =      578.90441496  energy(sigma->0) =      578.50500327


--------------------------------------------------------------------------------------------------------




----------------------------------------- Iteration    1(   2)  ---------------------------------------


     EDDAV:  cpu time  429.0418: real time  428.6917
       DOS:  cpu time    0.0000: real time    0.0008
    --------------------------------------------
      LOOP:  cpu time  429.0428: real time  428.6955

 eigenvalue-minimisations  :   588
 total energy-change (2. order) :-0.3369428E+03  (-0.3272922E+03)
 number of electron      58.0000000 magnetization 
 augmentation part       58.0000000 magnetization 

 Free energy of the ion-electron system (eV)
  ---------------------------------------------------
  alpha Z        PSCENC =         0.51957394
  Ewald energy   TEWEN  =      6089.16659089
  -Hartree energ DENC   =     -7833.05209119
  -exchange      EXHF   =         0.00000000
  -V(xc)+E(xc)   XCENC  =       201.92461280
  PAW double counting   =      1779.70502452    -1789.20730229
  entropy T*S    EENTRO =        -0.36949727
  eigenvalues    EBANDS =      -633.50742376
  atomic energy  EATOM  =      2425.98333211
  Solvation  Ediel_sol  =         0.00000000
  ---------------------------------------------------
  free energy    TOTEN  =       241.16281974 eV

  energy without entropy =      241.53231701  energy(sigma->0) =      241.34756838


--------------------------------------------------------------------------------------------------------




----------------------------------------- Iteration    1(   3)  ---------------------------------------


     EDDAV:  cpu time  366.0324: real time  365.7343
       DOS:  cpu time    0.0000: real time    0.0006
    --------------------------------------------
      LOOP:  cpu time  366.0354: real time  365.7381

 eigenvalue-minimisations  :   488
 total energy-change (2. order) :-0.2929303E+03  (-0.2845294E+03)
 number of electron      58.0000000 magnetization 
 augmentation part       58.0000000 magnetization 

 Free energy of the ion-electron system (eV)
  ---------------------------------------------------
  alpha Z        PSCENC =         0.51957394
  Ewald energy   TEWEN  =      6089.16659089
  -Hartree energ DENC   =     -7833.05209119
  -exchange      EXHF   =         0.00000000
  -V(xc)+E(xc)   XCENC  =       201.92461280
  PAW double counting   =      1779.70502452    -1789.20730229
  entropy T*S    EENTRO =        -0.00369475
  eigenvalues    EBANDS =      -926.80348498
  atomic energy  EATOM  =      2425.98333211
  Solvation  Ediel_sol  =         0.00000000
  ---------------------------------------------------
  free energy    TOTEN  =       -51.76743896 eV

  energy without entropy =      -51.76374421  energy(sigma->0) =      -51.76559158


--------------------------------------------------------------------------------------------------------




----------------------------------------- Iteration    1(   4)  ---------------------------------------


     EDDAV:  cpu time  312.2755: real time  312.0217
       DOS:  cpu time    0.0000: real time    0.0005
    --------------------------------------------
      LOOP:  cpu time  312.2775: real time  312.0258

 eigenvalue-minimisations  :   405
 total energy-change (2. order) :-0.8510060E+02  (-0.8493458E+02)
 number of electron      58.0000000 magnetization 
 augmentation part       58.0000000 magnetization 

 Free energy of the ion-electron system (eV)
  ---------------------------------------------------
  alpha Z        PSCENC =         0.51957394
  Ewald energy   TEWEN  =      6089.16659089
  -Hartree energ DENC   =     -7833.05209119
  -exchange      EXHF   =         0.00000000
  -V(xc)+E(xc)   XCENC  =       201.92461280
  PAW double counting   =      1779.70502452    -1789.20730229
  entropy T*S    EENTRO =         0.00000000
  eigenvalues    EBANDS =     -1011.90778146
  atomic energy  EATOM  =      2425.98333211
  Solvation  Ediel_sol  =         0.00000000
  ---------------------------------------------------
  free energy    TOTEN  =      -136.86804068 eV

  energy without entropy =     -136.86804068  energy(sigma->0) =     -136.86804068


--------------------------------------------------------------------------------------------------------




----------------------------------------- Iteration    1(   5)  ---------------------------------------


     EDDAV:  cpu time  350.4857: real time  350.2000
       DOS:  cpu time    0.0000: real time    0.0005
    CHARGE:  cpu time   20.1849: real time   20.1687
    MIXING:  cpu time    0.6249: real time    0.6257
    --------------------------------------------
      LOOP:  cpu time  371.2986: real time  370.9978

 eigenvalue-minimisations  :   464
 total energy-change (2. order) :-0.4960086E+01  (-0.4949616E+01)
 number of electron      57.9999972 magnetization 
 augmentation part        2.9697236 magnetization 

 Broyden mixing:
  rms(total) = 0.19537E+01    rms(broyden)= 0.19515E+01
  rms(prec ) = 0.20291E+01
  weight for this iteration     100.00

 Free energy of the ion-electron system (eV)
  ---------------------------------------------------
  alpha Z        PSCENC =         0.51957394
  Ewald energy   TEWEN  =      6089.16659089
  -Hartree energ DENC   =     -7833.05209119
  -exchange      EXHF   =         0.00000000
  -V(xc)+E(xc)   XCENC  =       201.92461280
  PAW double counting   =      1779.70502452    -1789.20730229
  entropy T*S    EENTRO =         0.00000000
  eigenvalues    EBANDS =     -1016.86786757
  atomic energy  EATOM  =      2425.98333211
  Solvation  Ediel_sol  =         0.00000000
  ---------------------------------------------------
  free energy    TOTEN  =      -141.82812680 eV

  energy without entropy =     -141.82812680  energy(sigma->0) =     -141.82812680


--------------------------------------------------------------------------------------------------------




----------------------------------------- Iteration    1(   6)  ---------------------------------------


    POTLOK:  cpu time   21.9397: real time   21.9226
    SETDIJ:  cpu time    0.0290: real time    0.0291
     EDDAV:  cpu time  298.6746: real time  298.4288
       DOS:  cpu time    0.0000: real time    0.0005
    CHARGE:  cpu time   17.4114: real time   17.3964
    MIXING:  cpu time    0.6329: real time    0.6337
    --------------------------------------------
      LOOP:  cpu time  338.6905: real time  338.4161

 eigenvalue-minimisations  :   424
 total energy-change (2. order) : 0.1013943E+02  (-0.2383659E+01)
 number of electron      57.9999977 magnetization 
 augmentation part        2.6266024 magnetization 

 Broyden mixing:
  rms(total) = 0.99514E+00    rms(broyden)= 0.99469E+00
  rms(prec ) = 0.10233E+01
  weight for this iteration     100.00

 eigenvalues of (default mixing * dielectric matrix)
  average eigenvalue GAMMA=   1.2716
  1.2716

 Free energy of the ion-electron system (eV)
  ---------------------------------------------------
  alpha Z        PSCENC =         0.51957394
  Ewald energy   TEWEN  =      6089.16659089
  -Hartree energ DENC   =     -7947.95044590
  -exchange      EXHF   =         0.00000000
  -V(xc)+E(xc)   XCENC  =       208.02051132
  PAW double counting   =      2771.94979117    -2782.80540514
  entropy T*S    EENTRO =         0.00000000
  eigenvalues    EBANDS =      -896.57264705
  atomic energy  EATOM  =      2425.98333211
  Solvation  Ediel_sol  =         0.00000000
  ---------------------------------------------------
  free energy    TOTEN  =      -131.68869865 eV

  energy without entropy =     -131.68869865  energy(sigma->0) =     -131.68869865


--------------------------------------------------------------------------------------------------------




----------------------------------------- Iteration    1(   7)  ---------------------------------------


    POTLOK:  cpu time   19.3571: real time   19.3411
    SETDIJ:  cpu time    0.0280: real time    0.0286
     EDDAV:  cpu time  316.1289: real time  315.8707
       DOS:  cpu time    0.0000: real time    0.0005
    CHARGE:  cpu time   21.1538: real time   21.1364
    MIXING:  cpu time    0.7619: real time    0.7607
    --------------------------------------------
      LOOP:  cpu time  357.4317: real time  357.1419

 eigenvalue-minimisations  :   416
 total energy-change (2. order) : 0.1735150E+01  (-0.4463792E+00)
 number of electron      57.9999974 magnetization 
 augmentation part        2.6159405 magnetization 

 Broyden mixing:
  rms(total) = 0.51628E+00    rms(broyden)= 0.51617E+00
  rms(prec ) = 0.52899E+00
  weight for this iteration     100.00

 eigenvalues of (default mixing * dielectric matrix)
  average eigenvalue GAMMA=   1.5672
  1.0998  2.0347

 Free energy of the ion-electron system (eV)
  ---------------------------------------------------
  alpha Z        PSCENC =         0.51957394
  Ewald energy   TEWEN  =      6089.16659089
  -Hartree energ DENC   =     -8009.29811103
  -exchange      EXHF   =         0.00000000
  -V(xc)+E(xc)   XCENC  =       211.02212775
  PAW double counting   =      3729.55978586    -3740.68033186
  entropy T*S    EENTRO =         0.00000000
  eigenvalues    EBANDS =      -836.22651585
  atomic energy  EATOM  =      2425.98333211
  Solvation  Ediel_sol  =         0.00000000
  ---------------------------------------------------
  free energy    TOTEN  =      -129.95354818 eV

  energy without entropy =     -129.95354818  energy(sigma->0) =     -129.95354818


--------------------------------------------------------------------------------------------------------




----------------------------------------- Iteration    1(   8)  ---------------------------------------


    POTLOK:  cpu time   22.4126: real time   22.3949
    SETDIJ:  cpu time    0.0290: real time    0.0288
     EDDAV:  cpu time  319.6064: real time  319.3448
       DOS:  cpu time    0.0000: real time    0.0005
    CHARGE:  cpu time   19.7180: real time   19.7012
    MIXING:  cpu time    0.7299: real time    0.7298
    --------------------------------------------
      LOOP:  cpu time  362.4969: real time  362.2039

 eigenvalue-minimisations  :   432
 total energy-change (2. order) : 0.4914492E+00  (-0.8637164E-01)
 number of electron      57.9999974 magnetization 
 augmentation part        2.5877111 magnetization 

 Broyden mixing:
  rms(total) = 0.15245E+00    rms(broyden)= 0.15238E+00
  rms(prec ) = 0.16018E+00
  weight for this iteration     100.00

 eigenvalues of (default mixing * dielectric matrix)
  average eigenvalue GAMMA=   1.5417
  2.3835  0.9484  1.2931

 Free energy of the ion-electron system (eV)
  ---------------------------------------------------
  alpha Z        PSCENC =         0.51957394
  Ewald energy   TEWEN  =      6089.16659089
  -Hartree energ DENC   =     -8050.03267161
  -exchange      EXHF   =         0.00000000
  -V(xc)+E(xc)   XCENC  =       213.16043379
  PAW double counting   =      4551.64811863    -4562.95306782
  entropy T*S    EENTRO =         0.00000000
  eigenvalues    EBANDS =      -796.95440893
  atomic energy  EATOM  =      2425.98333211
  Solvation  Ediel_sol  =         0.00000000
  ---------------------------------------------------
  free energy    TOTEN  =      -129.46209899 eV

  energy without entropy =     -129.46209899  energy(sigma->0) =     -129.46209899


--------------------------------------------------------------------------------------------------------




----------------------------------------- Iteration    1(   9)  ---------------------------------------


    POTLOK:  cpu time   20.5219: real time   20.5052
    SETDIJ:  cpu time    0.0290: real time    0.0288
     EDDAV:  cpu time  334.5391: real time  334.2667
       DOS:  cpu time    0.0000: real time    0.0005
    CHARGE:  cpu time   20.5909: real time   20.5739
    MIXING:  cpu time    0.8269: real time    0.8272
    --------------------------------------------
      LOOP:  cpu time  376.5118: real time  376.2104

 eigenvalue-minimisations  :   464
 total energy-change (2. order) : 0.6719733E-01  (-0.1020014E-01)
 number of electron      57.9999975 magnetization 
 augmentation part        2.5793337 magnetization 

 Broyden mixing:
  rms(total) = 0.56758E-01    rms(broyden)= 0.56730E-01
  rms(prec ) = 0.65417E-01
  weight for this iteration     100.00

 eigenvalues of (default mixing * dielectric matrix)
  average eigenvalue GAMMA=   1.5173
  2.2045  1.0484  1.0484  1.7680

 Free energy of the ion-electron system (eV)
  ---------------------------------------------------
  alpha Z        PSCENC =         0.51957394
  Ewald energy   TEWEN  =      6089.16659089
  -Hartree energ DENC   =     -8063.52767184
  -exchange      EXHF   =         0.00000000
  -V(xc)+E(xc)   XCENC  =       213.70894277
  PAW double counting   =      4781.83547518    -4793.11163077
  entropy T*S    EENTRO =         0.00000000
  eigenvalues    EBANDS =      -783.96951394
  atomic energy  EATOM  =      2425.98333211
  Solvation  Ediel_sol  =         0.00000000
  ---------------------------------------------------
  free energy    TOTEN  =      -129.39490166 eV

  energy without entropy =     -129.39490166  energy(sigma->0) =     -129.39490166


--------------------------------------------------------------------------------------------------------




----------------------------------------- Iteration    1(  10)  ---------------------------------------


    POTLOK:  cpu time   23.3145: real time   23.2958
    SETDIJ:  cpu time    0.0290: real time    0.0291
     EDDAV:  cpu time  314.4112: real time  314.1533
       DOS:  cpu time    0.0000: real time    0.0005
    CHARGE:  cpu time   19.1001: real time   19.0842
    MIXING:  cpu time    0.8759: real time    0.8754
    --------------------------------------------
      LOOP:  cpu time  357.7316: real time  357.4428

 eigenvalue-minimisations  :   424
 total energy-change (2. order) : 0.1147419E-01  (-0.2488314E-02)
 number of electron      57.9999975 magnetization 
 augmentation part        2.5859149 magnetization 

 Broyden mixing:
  rms(total) = 0.25698E-01    rms(broyden)= 0.25676E-01
  rms(prec ) = 0.35842E-01
  weight for this iteration     100.00

 eigenvalues of (default mixing * dielectric matrix)
  average eigenvalue GAMMA=   1.4861
  2.1686  2.1686  0.9661  0.9661  1.1609

 Free energy of the ion-electron system (eV)
  ---------------------------------------------------
  alpha Z        PSCENC =         0.51957394
  Ewald energy   TEWEN  =      6089.16659089
  -Hartree energ DENC   =     -8068.53976195
  -exchange      EXHF   =         0.00000000
  -V(xc)+E(xc)   XCENC  =       213.72040131
  PAW double counting   =      4775.15320725    -4786.38008503
  entropy T*S    EENTRO =         0.00000000
  eigenvalues    EBANDS =      -779.00668599
  atomic energy  EATOM  =      2425.98333211
  Solvation  Ediel_sol  =         0.00000000
  ---------------------------------------------------
  free energy    TOTEN  =      -129.38342747 eV

  energy without entropy =     -129.38342747  energy(sigma->0) =     -129.38342747


--------------------------------------------------------------------------------------------------------




----------------------------------------- Iteration    1(  11)  ---------------------------------------


    POTLOK:  cpu time   20.8118: real time   20.7953
    SETDIJ:  cpu time    0.0280: real time    0.0285
     EDDAV:  cpu time  334.8451: real time  334.5707
       DOS:  cpu time    0.0000: real time    0.0005
    CHARGE:  cpu time   20.9138: real time   20.8970
    MIXING:  cpu time    1.0528: real time    1.0510
    --------------------------------------------
      LOOP:  cpu time  377.6526: real time  377.3468

 eigenvalue-minimisations  :   464
 total energy-change (2. order) : 0.5242318E-02  (-0.8051501E-03)
 number of electron      57.9999975 magnetization 
 augmentation part        2.5817156 magnetization 

 Broyden mixing:
  rms(total) = 0.16225E-01    rms(broyden)= 0.16219E-01
  rms(prec ) = 0.25092E-01
  weight for this iteration     100.00

 eigenvalues of (default mixing * dielectric matrix)
  average eigenvalue GAMMA=   1.5456
  2.4727  2.4727  0.9451  0.9451  1.2189  1.2189

 Free energy of the ion-electron system (eV)
  ---------------------------------------------------
  alpha Z        PSCENC =         0.51957394
  Ewald energy   TEWEN  =      6089.16659089
  -Hartree energ DENC   =     -8074.32017059
  -exchange      EXHF   =         0.00000000
  -V(xc)+E(xc)   XCENC  =       213.82340804
  PAW double counting   =      4777.64077135    -4788.86720547
  entropy T*S    EENTRO =         0.00000000
  eigenvalues    EBANDS =      -773.32448543
  atomic energy  EATOM  =      2425.98333211
  Solvation  Ediel_sol  =         0.00000000
  ---------------------------------------------------
  free energy    TOTEN  =      -129.37818515 eV

  energy without entropy =     -129.37818515  energy(sigma->0) =     -129.37818515


--------------------------------------------------------------------------------------------------------




----------------------------------------- Iteration    1(  12)  ---------------------------------------


    POTLOK:  cpu time   22.9585: real time   22.9407
    SETDIJ:  cpu time    0.0290: real time    0.0285
     EDDAV:  cpu time  269.0111: real time  268.7917
       DOS:  cpu time    0.0000: real time    0.0005
    CHARGE:  cpu time   19.3711: real time   19.3559
    MIXING:  cpu time    1.0468: real time    1.0459
    --------------------------------------------
      LOOP:  cpu time  312.4185: real time  312.1671

 eigenvalue-minimisations  :   352
 total energy-change (2. order) :-0.1001510E-02  (-0.5935041E-03)
 number of electron      57.9999975 magnetization 
 augmentation part        2.5811669 magnetization 

 Broyden mixing:
  rms(total) = 0.98774E-02    rms(broyden)= 0.98731E-02
  rms(prec ) = 0.16055E-01
  weight for this iteration     100.00

 eigenvalues of (default mixing * dielectric matrix)
  average eigenvalue GAMMA=   1.5877
  2.7053  2.7053  1.3274  1.2231  1.2231  0.9649  0.9649

 Free energy of the ion-electron system (eV)
  ---------------------------------------------------
  alpha Z        PSCENC =         0.51957394
  Ewald energy   TEWEN  =      6089.16659089
  -Hartree energ DENC   =     -8081.07056246
  -exchange      EXHF   =         0.00000000
  -V(xc)+E(xc)   XCENC  =       213.90960715
  PAW double counting   =      4772.88064322    -4784.09755460
  entropy T*S    EENTRO =         0.00000000
  eigenvalues    EBANDS =      -766.67081693
  atomic energy  EATOM  =      2425.98333211
  Solvation  Ediel_sol  =         0.00000000
  ---------------------------------------------------
  free energy    TOTEN  =      -129.37918666 eV

  energy without entropy =     -129.37918666  energy(sigma->0) =     -129.37918666


--------------------------------------------------------------------------------------------------------




----------------------------------------- Iteration    1(  13)  ---------------------------------------


    POTLOK:  cpu time   21.2788: real time   21.2616
    SETDIJ:  cpu time    0.0290: real time    0.0287
     EDDAV:  cpu time  306.1195: real time  305.8694
       DOS:  cpu time    0.0000: real time    0.0005
    CHARGE:  cpu time   19.8880: real time   19.8722
    MIXING:  cpu time    1.2848: real time    1.2841
    --------------------------------------------
      LOOP:  cpu time  348.6030: real time  348.3203

 eigenvalue-minimisations  :   432
 total energy-change (2. order) :-0.6304198E-02  (-0.4303814E-03)
 number of electron      57.9999975 magnetization 
 augmentation part        2.5797152 magnetization 

 Broyden mixing:
  rms(total) = 0.60331E-02    rms(broyden)= 0.60278E-02
  rms(prec ) = 0.98464E-02
  weight for this iteration     100.00

 eigenvalues of (default mixing * dielectric matrix)
  average eigenvalue GAMMA=   1.6936
  4.0564  2.4924  1.6272  1.3791  0.9982  0.9982  1.1130  0.8841

 Free energy of the ion-electron system (eV)
  ---------------------------------------------------
  alpha Z        PSCENC =         0.51957394
  Ewald energy   TEWEN  =      6089.16659089
  -Hartree energ DENC   =     -8086.45491626
  -exchange      EXHF   =         0.00000000
  -V(xc)+E(xc)   XCENC  =       213.97275200
  PAW double counting   =      4767.50331444    -4778.72015404
  entropy T*S    EENTRO =         0.00000000
  eigenvalues    EBANDS =      -761.35598395
  atomic energy  EATOM  =      2425.98333211
  Solvation  Ediel_sol  =         0.00000000
  ---------------------------------------------------
  free energy    TOTEN  =      -129.38549086 eV

  energy without entropy =     -129.38549086  energy(sigma->0) =     -129.38549086


--------------------------------------------------------------------------------------------------------




----------------------------------------- Iteration    1(  14)  ---------------------------------------


    POTLOK:  cpu time   23.2625: real time   23.2442
    SETDIJ:  cpu time    0.0290: real time    0.0289
     EDDAV:  cpu time  292.9735: real time  292.7340
       DOS:  cpu time    0.0000: real time    0.0005
    CHARGE:  cpu time   18.3702: real time   18.3551
    MIXING:  cpu time    1.0768: real time    1.0753
    --------------------------------------------
      LOOP:  cpu time  335.7130: real time  335.4421

 eigenvalue-minimisations  :   392
 total energy-change (2. order) :-0.6570875E-02  (-0.1772464E-03)
 number of electron      57.9999975 magnetization 
 augmentation part        2.5792393 magnetization 

 Broyden mixing:
  rms(total) = 0.38990E-02    rms(broyden)= 0.38959E-02
  rms(prec ) = 0.60177E-02
  weight for this iteration     100.00

 eigenvalues of (default mixing * dielectric matrix)
  average eigenvalue GAMMA=   1.8181
  5.0711  2.4102  2.2382  1.2837  1.2067  1.2067  0.9893  0.9893  0.9680

 Free energy of the ion-electron system (eV)
  ---------------------------------------------------
  alpha Z        PSCENC =         0.51957394
  Ewald energy   TEWEN  =      6089.16659089
  -Hartree energ DENC   =     -8090.07463102
  -exchange      EXHF   =         0.00000000
  -V(xc)+E(xc)   XCENC  =       213.99830902
  PAW double counting   =      4761.72166888    -4772.93561793
  entropy T*S    EENTRO =         0.00000000
  eigenvalues    EBANDS =      -757.77128762
  atomic energy  EATOM  =      2425.98333211
  Solvation  Ediel_sol  =         0.00000000
  ---------------------------------------------------
  free energy    TOTEN  =      -129.39206174 eV

  energy without entropy =     -129.39206174  energy(sigma->0) =     -129.39206174


--------------------------------------------------------------------------------------------------------




----------------------------------------- Iteration    1(  15)  ---------------------------------------


    POTLOK:  cpu time   21.9597: real time   21.9425
    SETDIJ:  cpu time    0.0290: real time    0.0290
     EDDAV:  cpu time  303.7268: real time  303.4780
       DOS:  cpu time    0.0000: real time    0.0005
    CHARGE:  cpu time   19.5250: real time   19.5086
    MIXING:  cpu time    1.2788: real time    1.2784
    --------------------------------------------
      LOOP:  cpu time  346.5213: real time  346.2406

 eigenvalue-minimisations  :   432
 total energy-change (2. order) :-0.8079326E-02  (-0.9987356E-04)
 number of electron      57.9999975 magnetization 
 augmentation part        2.5788119 magnetization 

 Broyden mixing:
  rms(total) = 0.24843E-02    rms(broyden)= 0.24827E-02
  rms(prec ) = 0.36400E-02
  weight for this iteration     100.00

 eigenvalues of (default mixing * dielectric matrix)
  average eigenvalue GAMMA=   1.9008
  5.6577  2.7521  2.3349  1.8287  1.3384  1.0254  1.0254  1.0666  1.0666  0.9123

 Free energy of the ion-electron system (eV)
  ---------------------------------------------------
  alpha Z        PSCENC =         0.51957394
  Ewald energy   TEWEN  =      6089.16659089
  -Hartree energ DENC   =     -8091.93545645
  -exchange      EXHF   =         0.00000000
  -V(xc)+E(xc)   XCENC  =       213.99996697
  PAW double counting   =      4760.82193170    -4772.03465405
  entropy T*S    EENTRO =         0.00000000
  eigenvalues    EBANDS =      -755.92142616
  atomic energy  EATOM  =      2425.98333211
  Solvation  Ediel_sol  =         0.00000000
  ---------------------------------------------------
  free energy    TOTEN  =      -129.40014106 eV

  energy without entropy =     -129.40014106  energy(sigma->0) =     -129.40014106


--------------------------------------------------------------------------------------------------------




----------------------------------------- Iteration    1(  16)  ---------------------------------------


    POTLOK:  cpu time   21.9997: real time   21.9819
    SETDIJ:  cpu time    0.0290: real time    0.0291
     EDDAV:  cpu time  269.4560: real time  269.2358
       DOS:  cpu time    0.0000: real time    0.0005
    CHARGE:  cpu time   19.7000: real time   19.6836
    MIXING:  cpu time    1.3458: real time    1.3454
    --------------------------------------------
      LOOP:  cpu time  312.5325: real time  312.2813

 eigenvalue-minimisations  :   350
 total energy-change (2. order) :-0.6288930E-02  (-0.5138694E-04)
 number of electron      57.9999975 magnetization 
 augmentation part        2.5790744 magnetization 

 Broyden mixing:
  rms(total) = 0.13484E-02    rms(broyden)= 0.13476E-02
  rms(prec ) = 0.20163E-02
  weight for this iteration     100.00

 eigenvalues of (default mixing * dielectric matrix)
  average eigenvalue GAMMA=   1.9427
  6.2832  3.2206  2.3483  1.9558  1.2723  1.2168  1.2168  1.0023  1.0023  0.9259
  0.9259

 Free energy of the ion-electron system (eV)
  ---------------------------------------------------
  alpha Z        PSCENC =         0.51957394
  Ewald energy   TEWEN  =      6089.16659089
  -Hartree energ DENC   =     -8092.54684181
  -exchange      EXHF   =         0.00000000
  -V(xc)+E(xc)   XCENC  =       213.98752322
  PAW double counting   =      4760.87594968    -4772.08712636
  entropy T*S    EENTRO =         0.00000000
  eigenvalues    EBANDS =      -755.30543167
  atomic energy  EATOM  =      2425.98333211
  Solvation  Ediel_sol  =         0.00000000
  ---------------------------------------------------
  free energy    TOTEN  =      -129.40642999 eV

  energy without entropy =     -129.40642999  energy(sigma->0) =     -129.40642999


--------------------------------------------------------------------------------------------------------




----------------------------------------- Iteration    1(  17)  ---------------------------------------


    POTLOK:  cpu time   22.7075: real time   22.6894
    SETDIJ:  cpu time    0.0290: real time    0.0288
     EDDAV:  cpu time  247.9573: real time  247.7540
       DOS:  cpu time    0.0000: real time    0.0005
    CHARGE:  cpu time   19.7490: real time   19.7338
    MIXING:  cpu time    1.4808: real time    1.4794
    --------------------------------------------
      LOOP:  cpu time  291.9266: real time  291.6895

 eigenvalue-minimisations  :   336
 total energy-change (2. order) :-0.2547079E-02  (-0.1247318E-04)
 number of electron      57.9999975 magnetization 
 augmentation part        2.5789425 magnetization 

 Broyden mixing:
  rms(total) = 0.94894E-03    rms(broyden)= 0.94862E-03
  rms(prec ) = 0.13647E-02
  weight for this iteration     100.00

 eigenvalues of (default mixing * dielectric matrix)
  average eigenvalue GAMMA=   2.0210
  7.0863  3.5820  2.2610  2.2610  1.5439  1.5439  1.0336  1.0336  1.0511  1.0511
  0.9021  0.9021

 Free energy of the ion-electron system (eV)
  ---------------------------------------------------
  alpha Z        PSCENC =         0.51957394
  Ewald energy   TEWEN  =      6089.16659089
  -Hartree energ DENC   =     -8092.86339331
  -exchange      EXHF   =         0.00000000
  -V(xc)+E(xc)   XCENC  =       213.98468596
  PAW double counting   =      4761.06700340    -4772.27841691
  entropy T*S    EENTRO =         0.00000000
  eigenvalues    EBANDS =      -754.98835316
  atomic energy  EATOM  =      2425.98333211
  Solvation  Ediel_sol  =         0.00000000
  ---------------------------------------------------
  free energy    TOTEN  =      -129.40897707 eV

  energy without entropy =     -129.40897707  energy(sigma->0) =     -129.40897707


--------------------------------------------------------------------------------------------------------




----------------------------------------- Iteration    1(  18)  ---------------------------------------


    POTLOK:  cpu time   21.3128: real time   21.2963
    SETDIJ:  cpu time    0.0290: real time    0.0287
     EDDAV:  cpu time  214.6394: real time  214.4647
       DOS:  cpu time    0.0000: real time    0.0005
    CHARGE:  cpu time   18.8151: real time   18.7991
    MIXING:  cpu time    1.5638: real time    1.5639
    --------------------------------------------
      LOOP:  cpu time  256.3620: real time  256.1575

 eigenvalue-minimisations  :   261
 total energy-change (2. order) :-0.1845390E-02  (-0.1156951E-04)
 number of electron      57.9999975 magnetization 
 augmentation part        2.5788785 magnetization 

 Broyden mixing:
  rms(total) = 0.53727E-03    rms(broyden)= 0.53701E-03
  rms(prec ) = 0.78551E-03
  weight for this iteration     100.00

 eigenvalues of (default mixing * dielectric matrix)
  average eigenvalue GAMMA=   2.0839
  7.5393  4.2461  2.5393  2.2314  1.7865  1.3824  1.3824  1.0331  1.0331  1.0345
  1.0345  0.9242  0.9242

 Free energy of the ion-electron system (eV)
  ---------------------------------------------------
  alpha Z        PSCENC =         0.51957394
  Ewald energy   TEWEN  =      6089.16659089
  -Hartree energ DENC   =     -8093.05077993
  -exchange      EXHF   =         0.00000000
  -V(xc)+E(xc)   XCENC  =       213.98180937
  PAW double counting   =      4761.08744212    -4772.29879325
  entropy T*S    EENTRO =         0.00000000
  eigenvalues    EBANDS =      -754.79999771
  atomic energy  EATOM  =      2425.98333211
  Solvation  Ediel_sol  =         0.00000000
  ---------------------------------------------------
  free energy    TOTEN  =      -129.41082246 eV

  energy without entropy =     -129.41082246  energy(sigma->0) =     -129.41082246


--------------------------------------------------------------------------------------------------------




----------------------------------------- Iteration    1(  19)  ---------------------------------------


    POTLOK:  cpu time   22.7445: real time   22.7270
    SETDIJ:  cpu time    0.0300: real time    0.0296
     EDDAV:  cpu time  246.8815: real time  246.6794
       DOS:  cpu time    0.0000: real time    0.0005
    CHARGE:  cpu time   18.2292: real time   18.2138
    MIXING:  cpu time    1.5738: real time    1.5724
    --------------------------------------------
      LOOP:  cpu time  289.4610: real time  289.2262

 eigenvalue-minimisations  :   317
 total energy-change (2. order) :-0.1029870E-02  (-0.6418002E-05)
 number of electron      57.9999975 magnetization 
 augmentation part        2.5788327 magnetization 

 Broyden mixing:
  rms(total) = 0.34677E-03    rms(broyden)= 0.34656E-03
  rms(prec ) = 0.47507E-03
  weight for this iteration     100.00

 eigenvalues of (default mixing * dielectric matrix)
  average eigenvalue GAMMA=   2.1315
  8.1019  4.6835  2.5966  2.5966  1.5966  1.5966  1.6307  1.0478  1.0478  1.0526
  1.0526  0.9698  0.9698  0.8983

 Free energy of the ion-electron system (eV)
  ---------------------------------------------------
  alpha Z        PSCENC =         0.51957394
  Ewald energy   TEWEN  =      6089.16659089
  -Hartree energ DENC   =     -8093.13929759
  -exchange      EXHF   =         0.00000000
  -V(xc)+E(xc)   XCENC  =       213.98131160
  PAW double counting   =      4761.54559494    -4772.75707623
  entropy T*S    EENTRO =         0.00000000
  eigenvalues    EBANDS =      -754.71188199
  atomic energy  EATOM  =      2425.98333211
  Solvation  Ediel_sol  =         0.00000000
  ---------------------------------------------------
  free energy    TOTEN  =      -129.41185233 eV

  energy without entropy =     -129.41185233  energy(sigma->0) =     -129.41185233


--------------------------------------------------------------------------------------------------------




----------------------------------------- Iteration    1(  20)  ---------------------------------------


    POTLOK:  cpu time   20.1889: real time   20.1728
    SETDIJ:  cpu time    0.0290: real time    0.0289
     EDDAV:  cpu time  217.6589: real time  217.4807
       DOS:  cpu time    0.0000: real time    0.0005
    CHARGE:  cpu time   19.2751: real time   19.2592
    MIXING:  cpu time    2.2327: real time    2.2314
    --------------------------------------------
      LOOP:  cpu time  259.3866: real time  259.1776

 eigenvalue-minimisations  :   288
 total energy-change (2. order) :-0.4193600E-03  (-0.1708331E-05)
 number of electron      57.9999975 magnetization 
 augmentation part        2.5788450 magnetization 

 Broyden mixing:
  rms(total) = 0.18897E-03    rms(broyden)= 0.18891E-03
  rms(prec ) = 0.27368E-03
  weight for this iteration     100.00

 eigenvalues of (default mixing * dielectric matrix)
  average eigenvalue GAMMA=   2.1562
  8.3008  5.2438  2.8471  2.4860  1.8599  1.8599  1.3258  1.3258  1.0401  1.0401
  1.0676  1.0676  0.9538  0.9620  0.9620

 Free energy of the ion-electron system (eV)
  ---------------------------------------------------
  alpha Z        PSCENC =         0.51957394
  Ewald energy   TEWEN  =      6089.16659089
  -Hartree energ DENC   =     -8093.15684644
  -exchange      EXHF   =         0.00000000
  -V(xc)+E(xc)   XCENC  =       213.97988440
  PAW double counting   =      4761.13716684    -4772.34859829
  entropy T*S    EENTRO =         0.00000000
  eigenvalues    EBANDS =      -754.69337515
  atomic energy  EATOM  =      2425.98333211
  Solvation  Ediel_sol  =         0.00000000
  ---------------------------------------------------
  free energy    TOTEN  =      -129.41227169 eV

  energy without entropy =     -129.41227169  energy(sigma->0) =     -129.41227169


--------------------------------------------------------------------------------------------------------




----------------------------------------- Iteration    1(  21)  ---------------------------------------


    POTLOK:  cpu time   23.1535: real time   23.1351
    SETDIJ:  cpu time    0.0300: real time    0.0299
     EDDAV:  cpu time  265.6876: real time  265.4712
       DOS:  cpu time    0.0000: real time    0.0005
    CHARGE:  cpu time   18.6172: real time   18.6014
    MIXING:  cpu time    1.7877: real time    1.7873
    --------------------------------------------
      LOOP:  cpu time  309.2780: real time  309.0298

 eigenvalue-minimisations  :   336
 total energy-change (2. order) :-0.2273524E-03  (-0.8999699E-06)
 number of electron      57.9999975 magnetization 
 augmentation part        2.5788370 magnetization 

 Broyden mixing:
  rms(total) = 0.12064E-03    rms(broyden)= 0.12059E-03
  rms(prec ) = 0.16972E-03
  weight for this iteration     100.00

 eigenvalues of (default mixing * dielectric matrix)
  average eigenvalue GAMMA=   2.2292
  8.5047  5.8346  3.3879  2.6392  2.3785  1.6707  1.6707  1.4629  1.0963  1.0963
  1.0383  1.0383  1.0196  0.9664  0.9664  0.8967

 Free energy of the ion-electron system (eV)
  ---------------------------------------------------
  alpha Z        PSCENC =         0.51957394
  Ewald energy   TEWEN  =      6089.16659089
  -Hartree energ DENC   =     -8093.16311472
  -exchange      EXHF   =         0.00000000
  -V(xc)+E(xc)   XCENC  =       213.97954335
  PAW double counting   =      4761.22111845    -4772.43256195
  entropy T*S    EENTRO =         0.00000000
  eigenvalues    EBANDS =      -754.68698112
  atomic energy  EATOM  =      2425.98333211
  Solvation  Ediel_sol  =         0.00000000
  ---------------------------------------------------
  free energy    TOTEN  =      -129.41249904 eV

  energy without entropy =     -129.41249904  energy(sigma->0) =     -129.41249904


--------------------------------------------------------------------------------------------------------




----------------------------------------- Iteration    1(  22)  ---------------------------------------


    POTLOK:  cpu time   21.8127: real time   21.7956
    SETDIJ:  cpu time    0.0300: real time    0.0292
     EDDAV:  cpu time  208.9872: real time  208.8163
       DOS:  cpu time    0.0000: real time    0.0005
    CHARGE:  cpu time   16.9914: real time   16.9772
    MIXING:  cpu time    1.5158: real time    1.5146
    --------------------------------------------
      LOOP:  cpu time  249.3391: real time  249.1377

 eigenvalue-minimisations  :   264
 total energy-change (2. order) :-0.1418461E-03  (-0.3770424E-06)
 number of electron      57.9999975 magnetization 
 augmentation part        2.5788372 magnetization 

 Broyden mixing:
  rms(total) = 0.78902E-04    rms(broyden)= 0.78864E-04
  rms(prec ) = 0.99924E-04
  weight for this iteration     100.00

 eigenvalues of (default mixing * dielectric matrix)
  average eigenvalue GAMMA=   2.2151
  8.6129  6.1329  3.6620  2.4686  2.4686  1.7485  1.7485  1.3711  1.3711  1.0998
  1.0998  1.0345  1.0345  0.9800  0.9800  0.9223  0.9223

 Free energy of the ion-electron system (eV)
  ---------------------------------------------------
  alpha Z        PSCENC =         0.51957394
  Ewald energy   TEWEN  =      6089.16659089
  -Hartree energ DENC   =     -8093.17637008
  -exchange      EXHF   =         0.00000000
  -V(xc)+E(xc)   XCENC  =       213.97927289
  PAW double counting   =      4761.12952979    -4772.34098838
  entropy T*S    EENTRO =         0.00000000
  eigenvalues    EBANDS =      -754.67358205
  atomic energy  EATOM  =      2425.98333211
  Solvation  Ediel_sol  =         0.00000000
  ---------------------------------------------------
  free energy    TOTEN  =      -129.41264089 eV

  energy without entropy =     -129.41264089  energy(sigma->0) =     -129.41264089


--------------------------------------------------------------------------------------------------------




----------------------------------------- Iteration    1(  23)  ---------------------------------------


    POTLOK:  cpu time   19.0101: real time   18.9939
    SETDIJ:  cpu time    0.0290: real time    0.0296
     EDDAV:  cpu time  266.1895: real time  265.9723
       DOS:  cpu time    0.0000: real time    0.0005
    --------------------------------------------
      LOOP:  cpu time  285.2306: real time  285.0007

 eigenvalue-minimisations  :   368
 total energy-change (2. order) :-0.3726249E-04  (-0.9914096E-07)
 number of electron      57.9999975 magnetization 
 augmentation part        2.5788372 magnetization 

 Free energy of the ion-electron system (eV)
  ---------------------------------------------------
  alpha Z        PSCENC =         0.51957394
  Ewald energy   TEWEN  =      6089.16659089
  -Hartree energ DENC   =     -8093.18373540
  -exchange      EXHF   =         0.00000000
  -V(xc)+E(xc)   XCENC  =       213.97926150
  PAW double counting   =      4761.15447631    -4772.36592068
  entropy T*S    EENTRO =         0.00000000
  eigenvalues    EBANDS =      -754.66625683
  atomic energy  EATOM  =      2425.98333211
  Solvation  Ediel_sol  =         0.00000000
  ---------------------------------------------------
  free energy    TOTEN  =      -129.41267815 eV

  energy without entropy =     -129.41267815  energy(sigma->0) =     -129.41267815


--------------------------------------------------------------------------------------------------------




 average (electrostatic) potential at core
  the test charge radii are     0.5201  0.6991  0.7089  0.7215
  (the norm of the test charge is              1.0000)
       1 -42.3181       2 -42.5718       3 -42.5519       4 -44.7766       5 -42.3519
       6 -41.9188       7 -41.8217       8 -41.9678       9 -43.3467      10 -41.7249
      11 -41.7146      12 -42.0419      13 -59.0958      14 -61.5047      15 -60.0232
      16 -58.6430      17 -60.7640      18 -59.1300      19 -74.7684      20 -73.9146
      21 -79.9954      22 -79.2437
 
 
 
 E-fermi :  -4.5063     XC(G=0):  -0.1530     alpha+bet : -0.0465


 k-point     1 :       0.2500    0.2500    0.2500
  band No.  band energies     occupation 
      1     -26.2068      2.00000
      2     -25.4940      2.00000
      3     -23.4287      2.00000
      4     -22.6179      2.00000
      5     -19.5673      2.00000
      6     -18.2556      2.00000
      7     -17.3593      2.00000
      8     -16.1454      2.00000
      9     -14.7475      2.00000
     10     -13.9164      2.00000
     11     -13.2281      2.00000
     12     -12.5115      2.00000
     13     -11.5446      2.00000
     14     -11.3669      2.00000
     15     -10.8720      2.00000
     16     -10.7739      2.00000
     17     -10.3529      2.00000
     18     -10.1053      2.00000
     19      -9.9743      2.00000
     20      -9.9446      2.00000
     21      -9.3809      2.00000
     22      -9.1434      2.00000
     23      -8.9803      2.00000
     24      -8.7189      2.00000
     25      -8.4489      2.00000
     26      -6.7652      2.00000
     27      -6.2454      2.00000
     28      -5.8134      2.00000
     29      -5.4237      2.00000
     30      -1.1552      0.00000
     31      -1.0023      0.00000
     32      -0.4604      0.00000
     33      -0.2938      0.00000
     34      -0.2149      0.00000
     35      -0.0563      0.00000
     36       0.0254      0.00000
     37       0.0840      0.00000
     38       0.1051      0.00000
     39       0.1153      0.00000
     40       0.1603      0.00000
     41       0.1747      0.00000

 k-point     2 :      -0.2500    0.2500    0.2500
  band No.  band energies     occupation 
      1     -26.2068      2.00000
      2     -25.4940      2.00000
      3     -23.4287      2.00000
      4     -22.6179      2.00000
      5     -19.5673      2.00000
      6     -18.2556      2.00000
      7     -17.3593      2.00000
      8     -16.1454      2.00000
      9     -14.7475      2.00000
     10     -13.9164      2.00000
     11     -13.2281      2.00000
     12     -12.5115      2.00000
     13     -11.5446      2.00000
     14     -11.3669      2.00000
     15     -10.8720      2.00000
     16     -10.7739      2.00000
     17     -10.3529      2.00000
     18     -10.1053      2.00000
     19      -9.9743      2.00000
     20      -9.9446      2.00000
     21      -9.3809      2.00000
     22      -9.1434      2.00000
     23      -8.9803      2.00000
     24      -8.7189      2.00000
     25      -8.4489      2.00000
     26      -6.7652      2.00000
     27      -6.2454      2.00000
     28      -5.8134      2.00000
     29      -5.4237      2.00000
     30      -1.1552      0.00000
     31      -1.0023      0.00000
     32      -0.4603      0.00000
     33      -0.2938      0.00000
     34      -0.2149      0.00000
     35      -0.0558      0.00000
     36       0.0235      0.00000
     37       0.0809      0.00000
     38       0.1098      0.00000
     39       0.1192      0.00000
     40       0.1606      0.00000
     41       0.1733      0.00000

 k-point     3 :       0.2500   -0.2500    0.2500
  band No.  band energies     occupation 
      1     -26.2068      2.00000
      2     -25.4940      2.00000
      3     -23.4287      2.00000
      4     -22.6179      2.00000
      5     -19.5673      2.00000
      6     -18.2556      2.00000
      7     -17.3593      2.00000
      8     -16.1454      2.00000
      9     -14.7475      2.00000
[...]

 Free energy of the ion-electron system (eV)
  ---------------------------------------------------
  alpha Z        PSCENC =         0.51957394
  Ewald energy   TEWEN  =      6120.49658927
  -Hartree energ DENC   =     -8124.06105062
  -exchange      EXHF   =         0.00000000
  -V(xc)+E(xc)   XCENC  =       214.08867965
  PAW double counting   =      4777.54925813    -4788.76815946
  entropy T*S    EENTRO =         0.00000000
  eigenvalues    EBANDS =      -755.24271659
  atomic energy  EATOM  =      2425.98333211
  Solvation  Ediel_sol  =         0.00000000
  ---------------------------------------------------
  free energy    TOTEN  =      -129.43449356 eV

  energy without entropy =     -129.43449356  energy(sigma->0) =     -129.43449356


--------------------------------------------------------------------------------------------------------




 average (electrostatic) potential at core
  the test charge radii are     0.5201  0.6991  0.7089  0.7215
  (the norm of the test charge is              1.0000)
       1 -42.3320       2 -42.5666       3 -42.5926       4 -44.8000       5 -42.3818
       6 -41.9020       7 -41.7805       8 -41.9311       9 -43.4056      10 -41.7400
      11 -41.7211      12 -42.0460      13 -59.1021      14 -61.5033      15 -59.9961
      16 -58.6008      17 -60.7494      18 -59.1319      19 -74.7781      20 -73.9294
      21 -79.9922      22 -79.2534
 
 
 
 E-fermi :  -4.4941     XC(G=0):  -0.1342     alpha+bet : -0.0465


 k-point     1 :       0.2500    0.2500    0.2500
  band No.  band energies     occupation 
      1     -26.2184      2.00000
      2     -25.5066      2.00000
      3     -23.4505      2.00000
      4     -22.6515      2.00000
      5     -19.5919      2.00000
      6     -18.2702      2.00000
      7     -17.3559      2.00000
      8     -16.1546      2.00000
      9     -14.7264      2.00000
     10     -13.9596      2.00000
     11     -13.2710      2.00000
     12     -12.5436      2.00000
     13     -11.5632      2.00000
     14     -11.3480      2.00000
     15     -10.8858      2.00000
     16     -10.7791      2.00000
     17     -10.3529      2.00000
     18     -10.1159      2.00000
     19      -9.9883      2.00000
     20      -9.9092      2.00000
     21      -9.3823      2.00000
     22      -9.1655      2.00000
     23      -8.9940      2.00000
     24      -8.7142      2.00000
     25      -8.4505      2.00000
     26      -6.7962      2.00000
     27      -6.2303      2.00000
     28      -5.8258      2.00000
     29      -5.4198      2.00000
     30      -1.1768      0.00000
     31      -0.9939      0.00000
     32      -0.4376      0.00000
     33      -0.2966      0.00000
     34      -0.2101      0.00000
     35      -0.0577      0.00000
     36       0.0467      0.00000
     37       0.1068      0.00000
     38       0.1256      0.00000
     39       0.1373      0.00000
     40       0.1809      0.00000
     41       0.1964      0.00000

 k-point     2 :      -0.2500    0.2500    0.2500
  band No.  band energies     occupation 
      1     -26.2184      2.00000
      2     -25.5066      2.00000
      3     -23.4505      2.00000
      4     -22.6515      2.00000
      5     -19.5919      2.00000
      6     -18.2702      2.00000
      7     -17.3559      2.00000
      8     -16.1546      2.00000
      9     -14.7264      2.00000
     10     -13.9596      2.00000
     11     -13.2710      2.00000
     12     -12.5436      2.00000
     13     -11.5632      2.00000
     14     -11.3480      2.00000
     15     -10.8858      2.00000
     16     -10.7791      2.00000
     17     -10.3529      2.00000
     18     -10.1159      2.00000
     19      -9.9883      2.00000
     20      -9.9092      2.00000
     21      -9.3823      2.00000
     22      -9.1655      2.00000
     23      -8.9940      2.00000
     24      -8.7142      2.00000
     25      -8.4505      2.00000
     26      -6.7962      2.00000
     27      -6.2303      2.00000
     28      -5.8258      2.00000
     29      -5.4198      2.00000
     30      -1.1768      0.00000
     31      -0.9939      0.00000
     32      -0.4376      0.00000
     33      -0.2966      0.00000
     34      -0.2101      0.00000
     35      -0.0575      0.00000
     36       0.0453      0.00000
     37       0.1044      0.00000
     38       0.1296      0.00000
     39       0.1406      0.00000
     40       0.1823      0.00000
     41       0.1939      0.00000

 k-point     3 :       0.2500   -0.2500    0.2500
  band No.  band energies     occupation 
      1     -26.2184      2.00000
      2     -25.5066      2.00000
      3     -23.4505      2.00000
      4     -22.6515      2.00000
      5     -19.5919      2.00000
      6     -18.2702      2.00000
      7     -17.3559      2.00000
      8     -16.1546      2.00000
      9     -14.7264      2.00000
     10     -13.9596      2.00000
     11     -13.2710      2.00000
     12     -12.5436      2.00000
     13     -11.5632      2.00000
     14     -11.3480      2.00000
     15     -10.8858      2.00000
     16     -10.7791      2.00000
     17     -10.3529      2.00000
     18     -10.1159      2.00000
     19      -9.9883      2.00000
     20      -9.9092      2.00000
     21      -9.3823      2.00000
     22      -9.1655      2.00000
     23      -8.9940      2.00000
     24      -8.7142      2.00000
     25      -8.4505      2.00000
     26      -6.7962      2.00000
     27      -6.2303      2.00000
     28      -5.8258      2.00000
     29      -5.4198      2.00000
     30      -1.1768      0.00000
     31      -0.9939      0.00000
     32      -0.4376      0.00000
     33      -0.2966      0.00000
     34      -0.2101      0.00000
     35      -0.0572      0.00000
     36       0.0414      0.00000
     37       0.1138      0.00000
     38       0.1226      0.00000
     39       0.1444      0.00000
     40       0.1849      0.00000
     41       0.1938      0.00000

 k-point     4 :      -0.2500   -0.2500    0.2500
  band No.  band energies     occupation 
      1     -26.2184      2.00000
      2     -25.5066      2.00000
      3     -23.4505      2.00000
      4     -22.6515      2.00000
      5     -19.5919      2.00000
      6     -18.2702      2.00000
      7     -17.3559      2.00000
      8     -16.1546      2.00000
      9     -14.7264      2.00000
     10     -13.9596      2.00000
     11     -13.2710      2.00000
     12     -12.5436      2.00000
     13     -11.5632      2.00000
     14     -11.3480      2.00000
     15     -10.8858      2.00000
     16     -10.7791      2.00000
     17     -10.3529      2.00000
     18     -10.1159      2.00000
     19      -9.9883      2.00000
     20      -9.9092      2.00000
     21      -9.3823      2.00000
     22      -9.1655      2.00000
     23      -8.9940      2.00000
     24      -8.7142      2.00000
     25      -8.4506      2.00000
     26      -6.7962      2.00000
     27      -6.2303      2.00000
     28      -5.8258      2.00000
     29      -5.4198      2.00000
     30      -1.1768      0.00000
     31      -0.9939      0.00000
     32      -0.4376      0.00000
     33      -0.2966      0.00000
     34      -0.2101      0.00000
     35      -0.0571      0.00000
     36       0.0415      0.00000
     37       0.1195      0.00000
     38       0.1293      0.00000
     39       0.1319      0.00000
     40       0.1746      0.00000
     41       0.1905      0.00000


--------------------------------------------------------------------------------------------------------


 soft charge-density along one line, spin component           1
         0         1         2         3         4         5         6         7         8         9
 total charge-density along one line
 
 pseudopotential strength for first ion, spin component:           1
 -2.352  -4.056   0.002   0.000  -0.001
 -4.056  -6.906   0.005   0.000  -0.002
  0.002   0.005  -0.332   0.000  -0.002
  0.000   0.000   0.000  -0.336   0.000
 -0.001  -0.002  -0.002   0.000  -0.335
 total augmentation occupancy for first ion, spin component:           1
  3.531  -0.636  -0.409   0.031   0.168
 -0.636   0.129   0.075  -0.006  -0.031
 -0.409   0.075   0.049  -0.003  -0.017
  0.031  -0.006  -0.003   0.009   0.002
  0.168  -0.031  -0.017   0.002   0.015


------------------------ aborting loop because EDIFF is reached ----------------------------------------


    CHARGE:  cpu time   16.9034: real time   16.8910
    FORLOC:  cpu time    5.7981: real time    5.7948
    FORNL :  cpu time   62.1396: real time   62.0957
    STRESS:  cpu time  187.7845: real time  187.6490
    FORCOR:  cpu time   23.9504: real time   23.9333
    FORHAR:  cpu time   10.5544: real time   10.5467
    MIXING:  cpu time    0.7939: real time    0.7928
    OFIELD:  cpu time    0.0000: real time    0.0000

  FORCE on cell =-STRESS in cart. coord.  units (eV):
  Direction    XX          YY          ZZ          XY          YZ          ZX
  --------------------------------------------------------------------------------------
  Alpha Z     0.51957     0.51957     0.51957
  Ewald    3066.52257  2092.18569   961.78696   -21.27268    35.47736   629.07693
  Hartree  3577.66050  2640.67805  1905.72311   -12.36326   132.66991   506.48424
  E(xc)    -229.80474  -229.69269  -231.60723    -0.14996    -0.74830     0.62468
  Local   -7247.39578 -5320.78139 -3499.69381    29.37202  -195.71254 -1123.44545
  n-local  -132.96274  -134.88367  -131.97008     0.65417     2.10301    -1.02713
  augment    14.59602    14.41329    14.41635    -0.04517     0.85565    -0.12763
  Kinetic   947.12359   934.03861   977.00509     3.73955    25.13830   -11.46846
  Fock        0.00000     0.00000     0.00000     0.00000     0.00000     0.00000
  -------------------------------------------------------------------------------------
  Total      -3.74100    -3.52254    -3.82004    -0.06533    -0.21661     0.11719
  in kB      -0.22199    -0.20903    -0.22668    -0.00388    -0.01285     0.00695
  external pressure =       -0.22 kB  Pullay stress =        0.00 kB


 VOLUME and BASIS-vectors are now :
 -----------------------------------------------------------------------------
  energy-cutoff  :      400.00
  volume of cell :    27000.00
      direct lattice vectors                 reciprocal lattice vectors
    30.000000000  0.000000000  0.000000000     0.033333333  0.000000000  0.000000000
     0.000000000 30.000000000  0.000000000     0.000000000  0.033333333  0.000000000
     0.000000000  0.000000000 30.000000000     0.000000000  0.000000000  0.033333333

  length of vectors
    30.000000000 30.000000000 30.000000000     0.033333333  0.033333333  0.033333333


 FORCES acting on ions
    electron-ion (+dipol)            ewald-force                    non-local-force                 convergence-correction
 -----------------------------------------------------------------------------------------------
   0.617E+02 -.609E+02 -.356E+00   -.639E+02 0.661E+02 -.361E-01   0.216E+01 -.523E+01 0.396E+00   0.204E-05 0.857E-05 0.784E-05
   0.651E+02 0.367E+02 0.429E+02   -.676E+02 -.399E+02 -.466E+02   0.251E+01 0.313E+01 0.373E+01   -.391E-05 0.576E-05 0.113E-04
   0.512E+02 0.217E+02 -.641E+02   -.524E+02 -.237E+02 0.691E+02   0.119E+01 0.200E+01 -.496E+01   -.153E-05 0.677E-05 0.152E-04
   0.583E+02 0.876E+02 -.513E+02   -.621E+02 -.929E+02 0.548E+02   0.378E+01 0.539E+01 -.348E+01   -.616E-05 -.485E-05 0.229E-04
   -.117E+02 0.991E+02 -.266E+02   0.127E+02 -.104E+03 0.288E+02   -.108E+01 0.521E+01 -.222E+01   0.144E-04 -.710E-05 0.187E-04
   -.723E+02 0.337E+02 0.435E+02   0.776E+02 -.351E+02 -.441E+02   -.534E+01 0.136E+01 0.664E+00   0.130E-04 -.191E-05 0.474E-05
   -.759E+01 -.392E+02 0.753E+02   0.670E+01 0.442E+02 -.778E+02   0.885E+00 -.499E+01 0.246E+01   0.662E-05 0.224E-05 0.628E-05
   0.241E+02 0.625E+02 0.626E+02   -.271E+02 -.662E+02 -.652E+02   0.302E+01 0.375E+01 0.263E+01   0.108E-04 0.363E-05 0.154E-05
   0.308E+02 -.677E+02 0.334E+02   -.363E+02 0.701E+02 -.373E+02   0.554E+01 -.238E+01 0.393E+01   0.303E-05 0.482E-05 0.136E-04
   -.144E+02 -.262E+02 -.824E+02   0.141E+02 0.258E+02 0.880E+02   0.331E+00 0.357E+00 -.555E+01   -.872E-05 -.572E-05 0.706E-06
   -.859E+02 -.187E+02 0.497E+01   0.913E+02 0.175E+02 -.630E+01   -.533E+01 0.122E+01 0.133E+01   -.108E-04 -.882E-08 0.904E-06
   -.659E+01 -.871E+02 0.592E+01   0.542E+01 0.924E+02 -.749E+01   0.116E+01 -.530E+01 0.157E+01   -.470E-05 -.164E-04 0.183E-05
   0.227E+03 -.449E+01 -.266E+02   -.228E+03 0.550E+01 0.267E+02   0.789E+00 -.101E+01 -.562E-01   -.125E-05 0.448E-04 0.358E-04
   0.187E+03 0.768E+01 -.130E+02   -.192E+03 -.735E+01 0.137E+02   0.495E+01 -.331E+00 -.752E+00   0.341E-05 0.125E-03 0.454E-05
   -.349E+02 0.168E+03 0.135E+02   0.405E+02 -.169E+03 -.142E+02   -.551E+01 0.130E+01 0.702E+00   0.673E-04 0.294E-04 0.379E-04
   -.674E+02 0.955E+02 0.210E+03   0.675E+02 -.952E+02 -.211E+03   -.139E+00 -.353E+00 0.113E+01   0.168E-04 0.121E-04 0.148E-04
   -.276E+02 0.411E+02 -.197E+02   0.248E+02 -.435E+02 0.179E+02   0.278E+01 0.240E+01 0.182E+01   -.460E-04 0.694E-04 -.756E-06
   -.134E+03 -.186E+03 -.903E+02   0.137E+03 0.189E+03 0.929E+02   -.371E+01 -.287E+01 -.255E+01   -.543E-04 -.992E-05 -.336E-04
   0.126E+03 0.192E+03 -.868E+02   -.123E+03 -.192E+03 0.871E+02   -.299E+01 -.215E+00 -.289E+00   0.450E-04 0.882E-04 0.119E-03
   -.341E+02 -.201E+03 -.860E+01   0.322E+02 0.204E+03 0.731E+01   0.191E+01 -.307E+01 0.129E+01   -.466E-04 0.664E-04 0.130E-04
   0.552E+02 -.347E+03 0.212E+03   -.374E+02 0.389E+03 -.236E+03   -.178E+02 -.421E+02 0.237E+02   0.522E-04 0.866E-04 -.771E-04
   -.340E+03 0.210E+03 -.233E+03   0.380E+03 -.234E+03 0.260E+03   -.392E+02 0.234E+02 -.269E+02   -.461E-04 -.935E-05 0.150E-04
 -----------------------------------------------------------------------------------------------
   0.501E+02 0.183E+02 0.141E+01   0.000E+00 0.568E-13 0.000E+00   -.501E+02 -.183E+02 -.140E+01   0.467E-05 0.498E-03 0.235E-03
 
 
 POSITION                                       TOTAL-FORCE (eV/Angst)
 -----------------------------------------------------------------------------------
     11.38401     16.10329     14.92977         0.005638      0.001661      0.003727
     11.30947     14.45679     14.25176         0.000566      0.006721     -0.007960
     11.58249     14.67765     15.99619        -0.000771     -0.006683     -0.005808
     13.48246     13.33027     15.58591         0.004833      0.005165      0.018397
     15.59368     12.77692     15.28115         0.002024     -0.002772     -0.001245
     16.82615     13.46663     13.24302        -0.003215      0.004143     -0.004092
     15.59688     14.71258     12.88837        -0.005494      0.003849      0.004430
     15.15608     12.98264     12.84988        -0.004163      0.004148     -0.000771
     15.47172     16.34078     14.98402        -0.000794     -0.003310      0.000510
     17.10224     16.84984     17.29214        -0.000562      0.001367      0.000438
     18.21966     16.68465     15.92276        -0.002520      0.002564     -0.001159
     16.93888     17.93830     15.88020        -0.004334     -0.000109     -0.000374
     11.80274     15.09384     15.00198         0.002319     -0.000574     -0.002176
     13.29311     15.16012     14.72711         0.002009     -0.004497     -0.002239
     15.42555     13.77694     14.85872         0.001321     -0.001796      0.001483
     15.76789     13.73858     13.36379        -0.002975      0.002551      0.000436
     16.43077     14.65949     15.64146         0.002478     -0.001696      0.000751
     17.17903     16.91550     16.19523        -0.002304      0.000375      0.000012
     14.00232     14.06385     15.11350         0.001944     -0.001068      0.005502
     16.26398     15.99716     15.54389        -0.001844     -0.001718      0.001999
     13.81464     16.14885     14.17976         0.002198     -0.008710     -0.010295
     17.35641     14.12531     16.26942         0.003646      0.000391     -0.001567
 -----------------------------------------------------------------------------------
    total drift:                               -0.002017      0.016820      0.015424


--------------------------------------------------------------------------------------------------------



  FREE ENERGIE OF THE ION-ELECTRON SYSTEM (eV)
  ---------------------------------------------------
  free  energy   TOTEN  =      -129.43449356 eV

  energy  without entropy=     -129.43449356  energy(sigma->0) =     -129.43449356
 
 d Force = 0.1744369E-04[ 0.171E-04, 0.178E-04]  d Energy = 0.1748696E-04-0.433E-07
 d Force =-0.3469176E-01[-0.347E-01,-0.347E-01]  d Ewald  =-0.3469176E-01-0.173E-09


--------------------------------------------------------------------------------------------------------


    POTLOK:  cpu time   21.8757: real time   21.8607


--------------------------------------------------------------------------------------------------------


 NEB: the previous image is higher in energy: F
 NEB: the next image is higher in energy    : F
 NEB: image is at an extrema
 NEB: diff energy (min, max):     0.000270    0.001782

 NEB: Tangent
 ----------------------------------------------
     -0.00614     -0.04222     -0.03830
      0.03239     -0.00062     -0.13510
     -0.00661     -0.09941     -0.12068
      0.01816     -0.06599     -0.19605
      0.03012     -0.01740     -0.22717
      0.07944      0.22821     -0.09677
      0.06941      0.24328      0.00839
      0.10028      0.25339     -0.20260
     -0.00298     -0.00562      0.12366
     -0.18014     -0.17731      0.24681
     -0.06129     -0.10986      0.34488
     -0.03699     -0.08682      0.31091
      0.00705     -0.03873     -0.08947
      0.01156     -0.00127     -0.04990
      0.02621      0.02191     -0.11722
      0.07178      0.19779     -0.10025
     -0.02109     -0.05485      0.01460
     -0.07887     -0.10909      0.26403
      0.01541     -0.02495     -0.13117
     -0.02341     -0.05042      0.12244
      0.01329      0.04800      0.04979
     -0.05763     -0.10800      0.01913

 NEB: forces: par spring, perp REAL, dneb     0.015826    0.033988    0.000000
 NEB: distance to prev, next image, angle between     1.264640    1.267805  169.737699
 NEB: projections on to tangent (spring, REAL)     0.015826   -0.000046

 stress matrix after NEB project (eV)
     -3.74100     -0.06533      0.11719
     -0.06533     -3.52254     -0.21661
      0.11719     -0.21661     -3.82004
  FORCES: max atom, RMS     0.016639    0.007993
  FORCE total and by dimension    0.037492    0.015286
  Stress total and by dimension    6.412948    3.820038
 OPT: skip step - force has converged


--------------------------------------------------------------------------------------------------------


  
 reached required accuracy - stopping structural energy minimisation
     LOOP+:  cpu time 1818.3656: real time 1817.1317
    4ORBIT:  cpu time    0.0000: real time    0.0000

 total amount of memory used by VASP on root node  4333713. kBytes
========================================================================

   base      :      30000. kBytes
   nonlr-proj:       2408. kBytes
   fftplans  :     924480. kBytes
   grid      :    2089440. kBytes
   one-center:         67. kBytes
   wavefun   :    1287318. kBytes
 
  
  
 General timing and accounting informations for this job:
 ========================================================
  
                  Total CPU time used (sec):   226699.656
                            User time (sec):   225267.326
                          System time (sec):     1432.336
                         Elapsed time (sec):   226579.189
  
                   Maximum memory used (kb):     5900632.
                   Average memory used (kb):           0.
  
                          Minor page faults:    317542430
                          Major page faults:           10
                 Voluntary context switches:        13710
