unknown system                          
           1
    30.000000    0.000000    0.000000
     0.000000   30.000000    0.000000
     0.000000    0.000000   30.000000
   H    C    N    O 
  12   6   2   2
Direct configuration=     1
   0.37848204  0.53695923  0.49804338
   0.37636179  0.48132873  0.47739739
   0.38511120  0.49087068  0.53525237
   0.44830358  0.44334840  0.51696835
   0.51944704  0.42696664  0.51214289
   0.56068239  0.44464628  0.44339255
   0.52059663  0.48589391  0.42806128
   0.50494367  0.42856949  0.43125073
   0.51600994  0.54566548  0.49830249
   0.57267317  0.56417549  0.57350603
   0.60842613  0.55779649  0.52681696
   0.56563070  0.59937553  0.52588966
   0.39267925  0.50351353  0.50163722
   0.44244546  0.50591423  0.49232290
   0.51387896  0.45951331  0.49624298
   0.52557559  0.45473369  0.44659869
   0.54767462  0.48989534  0.52118846
   0.57398543  0.56549355  0.53682218
   0.46621773  0.46907329  0.50413973
   0.54280228  0.53445249  0.51657216
   0.45962759  0.53942270  0.47493846
   0.57844993  0.47239149  0.54251316
Direct configuration=     2
   0.37849336  0.53695837  0.49803052
   0.37635911  0.48132079  0.47736191
   0.38516064  0.49085067  0.53520739
   0.44832682  0.44335758  0.51698614
   0.51944166  0.42698616  0.51209556
   0.56068574  0.44471310  0.44337089
   0.52059312  0.48596212  0.42809217
   0.50494666  0.42862966  0.43119947
   0.51600803  0.54565776  0.49833409
   0.57262140  0.56412340  0.57354839
   0.60841237  0.55776806  0.52688900
   0.56561710  0.59936145  0.52594753
   0.39269912  0.50349975  0.50163027
   0.44245117  0.50591057  0.49228628
   0.51388260  0.45947234  0.49624376
   0.52558635  0.45479356  0.44657109
   0.54768051  0.48990352  0.52118752
   0.57397397  0.56545203  0.53687989
   0.46620767  0.46906659  0.50412252
   0.54277509  0.53442824  0.51656994
   0.45965299  0.53943092  0.47493899
   0.57842967  0.47235332  0.54250669
Direct configuration=     3
   0.37851273  0.53694954  0.49801391
   0.37636076  0.48131585  0.47731801
   0.38522993  0.49081495  0.53515792
   0.44835159  0.44336401  0.51701632
   0.51943912  0.42698204  0.51204087
   0.56069510  0.44481152  0.44333681
   0.52058641  0.48607249  0.42813421
   0.50495597  0.42872448  0.43112434
   0.51598809  0.54565132  0.49836895
   0.57254408  0.56404446  0.57361711
   0.60839481  0.55772356  0.52699457
   0.56560063  0.59932869  0.52603777
   0.39272070  0.50348829  0.50158853
   0.44246382  0.50590477  0.49223933
   0.51388217  0.45946675  0.49622048
   0.52559233  0.45486281  0.44654316
   0.54767212  0.48987975  0.52117991
   0.57394126  0.56540372  0.53694976
   0.46621085  0.46905886  0.50409100
   0.54276945  0.53440787  0.51658913
   0.45968666  0.53943990  0.47493763
   0.57840661  0.47230436  0.54250033
Direct configuration=     4
   0.37853955  0.53693260  0.49799424
   0.37636805  0.48131524  0.47726745
   0.38531626  0.49076367  0.53510687
   0.44837693  0.44336930  0.51705722
   0.51944023  0.42694981  0.51198120
   0.56071134  0.44493949  0.44329022
   0.52057677  0.48622221  0.42818668
   0.50497178  0.42885243  0.43102632
   0.51595350  0.54564463  0.49840808
   0.57244283  0.56394003  0.57371057
   0.60837228  0.55766397  0.52713225
   0.56558200  0.59927641  0.52615925
   0.39274250  0.50347931  0.50150863
   0.44248512  0.50589702  0.49218687
   0.51387743  0.45950082  0.49617028
   0.52559203  0.45494238  0.44651622
   0.54764938  0.48982458  0.52116748
   0.57389163  0.56535337  0.53703255
   0.46622713  0.46904967  0.50404547
   0.54278004  0.53438857  0.51662581
   0.45972634  0.53944781  0.47493254
   0.57838208  0.47224665  0.54249385
Direct configuration=     5
   0.37857128  0.53691306  0.49797030
   0.37637866  0.48131509  0.47720425
   0.38541963  0.49070142  0.53504294
   0.44840900  0.44338181  0.51710413
   0.51944191  0.42690964  0.51190568
   0.56073199  0.44509712  0.44323160
   0.52056550  0.48640297  0.42825197
   0.50499124  0.42900982  0.43090461
   0.51592006  0.54563179  0.49846154
   0.57231875  0.56381175  0.57382372
   0.60834061  0.55759149  0.52730329
   0.56555916  0.59921228  0.52630899
   0.39276921  0.50346530  0.50141135
   0.44251408  0.50588801  0.49212974
   0.51387267  0.45953453  0.49610902
   0.52559090  0.45504961  0.44647963
   0.54762444  0.48976610  0.52115770
   0.57384042  0.56529469  0.53714283
   0.46624315  0.46903739  0.50399002
   0.54277721  0.53435481  0.51666066
   0.45977218  0.53945414  0.47492145
   0.57835321  0.47217712  0.54248465
Direct configuration=     6
   0.37860465  0.53689648  0.49794119
   0.37638903  0.48130983  0.47712175
   0.38553745  0.49063487  0.53495401
   0.44845166  0.44340761  0.51715280
   0.51944050  0.42688527  0.51180359
   0.56075166  0.44528175  0.44316301
   0.52055332  0.48660506  0.42832943
   0.50501115  0.42919018  0.43076163
   0.51589697  0.54560945  0.49853298
   0.57217558  0.56366402  0.57395053
   0.60829873  0.55750912  0.52750411
   0.56553027  0.59914688  0.52648014
   0.39280673  0.50344081  0.50132532
   0.44254578  0.50587915  0.49206740
   0.51387359  0.45952390  0.49605753
   0.52559805  0.45519501  0.44642466
   0.54760731  0.48972848  0.52115523
   0.57379577  0.56521719  0.53728707
   0.46624816  0.46902186  0.50392959
   0.54274698  0.53429971  0.51668465
   0.45982370  0.53945851  0.47490238
   0.57831828  0.47209478  0.54247107
Direct configuration=     7
   0.37864370  0.53687914  0.49790411
   0.37640187  0.48129778  0.47700757
   0.38567929  0.49055685  0.53482870
   0.44850516  0.44344876  0.51721137
   0.51943642  0.42687137  0.51166163
   0.56076963  0.44551671  0.44307563
   0.52053704  0.48685762  0.42842485
   0.50503554  0.42941803  0.43058156
   0.51587190  0.54557643  0.49862299
   0.57199696  0.56347946  0.57410941
   0.60824539  0.55740589  0.52775667
   0.56549233  0.59907366  0.52669237
   0.39286004  0.50340680  0.50124645
   0.44258137  0.50587005  0.49199156
   0.51388056  0.45946849  0.49601208
   0.52561599  0.45538721  0.44634625
   0.54759267  0.48969309  0.52115788
   0.57373735  0.56510417  0.53747258
   0.46625025  0.46900262  0.50385697
   0.54270969  0.53423131  0.51671806
   0.45988552  0.53945964  0.47486883
   0.57827669  0.47199481  0.54245257
Direct configuration=     8
   0.37869348  0.53684905  0.49786237
   0.37642996  0.48128947  0.47687081
   0.38583692  0.49045694  0.53468967
   0.44855430  0.44349684  0.51729163
   0.51943770  0.42681892  0.51149682
   0.56079089  0.44580749  0.44296400
   0.52051152  0.48718345  0.42853400
   0.50507183  0.42970811  0.43036331
   0.51582389  0.54553641  0.49871727
   0.57177952  0.56325280  0.57431305
   0.60818647  0.55727580  0.52806203
   0.56544897  0.59897546  0.52695437
   0.39291834  0.50337726  0.50113399
   0.44262354  0.50585949  0.49190151
   0.51388587  0.45944670  0.49593927
   0.52563365  0.45559716  0.44626442
   0.54756293  0.48960606  0.52115645
   0.57363689  0.56496771  0.53767915
   0.46627718  0.46898033  0.50376734
   0.54270560  0.53417507  0.51679134
   0.45995504  0.53945403  0.47481219
   0.57824096  0.47188532  0.54243513
Direct configuration=     9
   0.37875418  0.53680608  0.49781863
   0.37648805  0.48129674  0.47672036
   0.38599842  0.49032855  0.53455363
   0.44859809  0.44355924  0.51740078
   0.51944774  0.42670591  0.51131310
   0.56082674  0.44615473  0.44282350
   0.52047458  0.48757762  0.42866562
   0.50511855  0.43006198  0.43010479
   0.51577452  0.54548034  0.49882782
   0.57152318  0.56298367  0.57455876
   0.60811249  0.55711888  0.52842264
   0.56540003  0.59884191  0.52726836
   0.39297560  0.50334850  0.50096226
   0.44268588  0.50584192  0.49179170
   0.51389288  0.45948085  0.49582471
   0.52563675  0.45584219  0.44618308
   0.54752859  0.48949172  0.52115401
   0.57352378  0.56483312  0.53792145
   0.46631803  0.46895425  0.50367015
   0.54267700  0.53409089  0.51687166
   0.46002963  0.53943762  0.47472049
   0.57822087  0.47176313  0.54242264
Direct configuration=    10
   0.37881475  0.53677651  0.49776929
   0.37656454  0.48130133  0.47653075
   0.38615663  0.49019417  0.53437439
   0.44865641  0.44365708  0.51753712
   0.51945344  0.42663055  0.51106540
   0.56086246  0.44655366  0.44265973
   0.52042854  0.48799742  0.42883194
   0.50515820  0.43045451  0.42981125
   0.51573715  0.54540352  0.49895405
   0.57123842  0.56268553  0.57481828
   0.60801127  0.55694333  0.52882758
   0.56533579  0.59870846  0.52761139
   0.39306138  0.50329238  0.50083116
   0.44275170  0.50581599  0.49164990
   0.51392035  0.45939987  0.49575016
   0.52565417  0.45618377  0.44606777
   0.54753849  0.48941889  0.52116906
   0.57342806  0.56465954  0.53822901
   0.46632734  0.46893540  0.50358794
   0.54259569  0.53394850  0.51694401
   0.46011363  0.53940796  0.47458050
   0.57819726  0.47163146  0.54239949
Direct configuration=    11
   0.37888837  0.53672744  0.49772326
   0.37666489  0.48130810  0.47631205
   0.38629029  0.49004490  0.53418644
   0.44869839  0.44376828  0.51772750
   0.51947084  0.42650303  0.51079557
   0.56088403  0.44700335  0.44247132
   0.52035903  0.48849665  0.42900644
   0.50521049  0.43090789  0.42950612
   0.51565669  0.54531441  0.49904722
   0.57093546  0.56236630  0.57511288
   0.60791219  0.55674261  0.52925157
   0.56526282  0.59855266  0.52797908
   0.39315937  0.50327014  0.50069385
   0.44280694  0.50579700  0.49148841
   0.51393997  0.45938052  0.49566587
   0.52567793  0.45647460  0.44596773
   0.54750157  0.48924184  0.52115001
   0.57324734  0.56444761  0.53851021
   0.46639893  0.46891414  0.50351901
   0.54260644  0.53389518  0.51710825
   0.46019803  0.53934882  0.47437433
   0.57823581  0.47149430  0.54240307
Direct configuration=    12
   0.37896236  0.53669057  0.49768108
   0.37680417  0.48134867  0.47610162
   0.38639239  0.48988454  0.53400169
   0.44876440  0.44391968  0.51794758
   0.51949515  0.42635061  0.51050143
   0.56093290  0.44747421  0.44225882
   0.52028439  0.48897803  0.42922245
   0.50524890  0.43137046  0.42918221
   0.51567326  0.54518807  0.49919320
   0.57062932  0.56204553  0.57541225
   0.60777605  0.55653549  0.52969883
   0.56517962  0.59837363  0.52836415
   0.39323215  0.50321786  0.50051051
   0.44291979  0.50574711  0.49134282
   0.51396854  0.45934399  0.49554945
   0.52567764  0.45686812  0.44585447
   0.54761989  0.48916670  0.52124852
   0.57315786  0.56429640  0.53886367
   0.46641867  0.46891317  0.50348339
   0.54238939  0.53364890  0.51714568
   0.46027831  0.53926203  0.47409915
   0.57820079  0.47137598  0.54233725
Direct configuration=    13
   0.37896269  0.53669162  0.49768047
   0.37680285  0.48134580  0.47609194
   0.38638657  0.48988464  0.53399455
   0.44876365  0.44391910  0.51795462
   0.51949458  0.42635254  0.51049184
   0.56092931  0.44748163  0.44225460
   0.52028221  0.48898912  0.42922100
   0.50525038  0.43137811  0.42917900
   0.51564359  0.54519199  0.49917082
   0.57062704  0.56204464  0.57541839
   0.60777838  0.55653138  0.52970079
   0.56517685  0.59837714  0.52836711
   0.39323895  0.50322092  0.50052257
   0.44290887  0.50575653  0.49134001
   0.51397466  0.45934001  0.49555765
   0.52568047  0.45686296  0.44585370
   0.54754528  0.48915617  0.52119778
   0.57312588  0.56427303  0.53885141
   0.46643634  0.46891169  0.50348490
   0.54246233  0.53368529  0.51720218
   0.46027679  0.53925246  0.47408944
   0.57825826  0.47135296  0.54237545
Direct configuration=    14
   0.37896312  0.53669141  0.49767741
   0.37680467  0.48134277  0.47606855
   0.38637374  0.48987822  0.53397737
   0.44876577  0.44391615  0.51795615
   0.51949577  0.42635004  0.51045841
   0.56092823  0.44751092  0.44223575
   0.52028195  0.48902537  0.42921849
   0.50525748  0.43140824  0.42915533
   0.51561310  0.54519244  0.49915197
   0.57061203  0.56203253  0.57544707
   0.60777671  0.55651859  0.52973145
   0.56516996  0.59837593  0.52839476
   0.39324884  0.50322344  0.50053386
   0.44289487  0.50576495  0.49133467
   0.51398443  0.45933478  0.49555853
   0.52568858  0.45687193  0.44584145
   0.54747636  0.48911666  0.52115466
   0.57308249  0.56423478  0.53886050
   0.46646071  0.46890924  0.50348174
   0.54254402  0.53373355  0.51728087
   0.46027694  0.53924006  0.47407008
   0.57830615  0.47132771  0.54241114
Direct configuration=    15
   0.37896321  0.53669115  0.49767708
   0.37680601  0.48134370  0.47606694
   0.38637219  0.48987670  0.53397635
   0.44876715  0.44391648  0.51795512
   0.51949639  0.42634845  0.51045436
   0.56092926  0.44751484  0.44223288
   0.52028235  0.48902912  0.42921891
   0.50525821  0.43141211  0.42915151
   0.51561935  0.54519028  0.49915683
   0.57060991  0.56203066  0.57545080
   0.60777489  0.55651730  0.52973717
   0.56516916  0.59837396  0.52839949
   0.39324814  0.50322293  0.50053166
   0.44289656  0.50576282  0.49133476
   0.51398431  0.45933493  0.49555538
   0.52568906  0.45687616  0.44583906
   0.54749224  0.48911286  0.52116645
   0.57308648  0.56423648  0.53886790
   0.46645912  0.46890961  0.50348151
   0.54253072  0.53372799  0.51727496
   0.46027737  0.53923993  0.47406778
   0.57829389  0.47133127  0.54240331
Direct configuration=    16
   0.37896340  0.53669063  0.49767641
   0.37680863  0.48134552  0.47606365
   0.38636907  0.48987369  0.53397423
   0.44876982  0.44391708  0.51795319
   0.51949758  0.42634528  0.51044621
   0.56093125  0.44752266  0.44222715
   0.52028312  0.48903669  0.42921971
   0.50525970  0.43141986  0.42914390
   0.51563079  0.54518622  0.49916579
   0.57060567  0.56202694  0.57545833
   0.60777143  0.55651469  0.52974849
   0.56516757  0.59837012  0.52840891
   0.39324686  0.50322194  0.50052749
   0.44289978  0.50575900  0.49133476
   0.51398422  0.45933512  0.49554938
   0.52568997  0.45688446  0.44583436
   0.54751996  0.48910665  0.52118719
   0.57309339  0.56423935  0.53888201
   0.46645635  0.46891028  0.50348106
   0.54250674  0.53371732  0.51726495
   0.46027806  0.53923936  0.47406318
   0.57827258  0.47133685  0.54238985
Direct configuration=    17
   0.37896373  0.53668990  0.49767539
   0.37681249  0.48134815  0.47605841
   0.38636424  0.48986919  0.53397077
   0.44877368  0.44391779  0.51795062
   0.51949922  0.42634050  0.51043363
   0.56093418  0.44753462  0.44221842
   0.52028420  0.48904842  0.42922086
   0.50526200  0.43143174  0.42913235
   0.51564535  0.54518070  0.49917742
   0.57059919  0.56202131  0.57547006
   0.60776664  0.55651056  0.52976541
   0.56516522  0.59836459  0.52842320
   0.39324522  0.50322049  0.50052171
   0.44290424  0.50575435  0.49133428
   0.51398458  0.45933522  0.49554095
   0.52569131  0.45689678  0.44582745
   0.54755186  0.48910070  0.52121145
   0.57310112  0.56424231  0.53890178
   0.46645331  0.46891110  0.50348038
   0.54247700  0.53370218  0.51725442
   0.46027874  0.53923773  0.47405621
   0.57824843  0.47134141  0.54237505
Direct configuration=    18
   0.37896423  0.53668902  0.49767399
   0.37681742  0.48135141  0.47605094
   0.38635762  0.48986333  0.53396574
   0.44877846  0.44391842  0.51794792
   0.51950114  0.42633418  0.51041652
   0.56093786  0.44755067  0.44220672
   0.52028549  0.48906450  0.42922223
   0.50526513  0.43144778  0.42911702
   0.51565962  0.54517452  0.49918932
   0.57059051  0.56201386  0.57548622
   0.60776105  0.55650478  0.52978744
   0.56516215  0.59835775  0.52844216
   0.39324362  0.50321865  0.50051503
   0.44290928  0.50575010  0.49133281
   0.51398584  0.45933504  0.49553099
   0.52569303  0.45691261  0.44581866
   0.54757646  0.48909830  0.52123114
   0.57310647  0.56424366  0.53892510
   0.46645145  0.46891184  0.50347948
   0.54244950  0.53368428  0.51724890
   0.46027905  0.53923424  0.47404682
   0.57823056  0.47134079  0.54236509
Direct configuration=    19
   0.37896489  0.53668812  0.49767232
   0.37682291  0.48135494  0.47604163
   0.38634966  0.48985666  0.53395934
   0.44878363  0.44391880  0.51794573
   0.51950313  0.42632693  0.51039621
   0.56094184  0.44756954  0.44219305
   0.52028673  0.48908378  0.42922365
   0.50526886  0.43146674  0.42909928
   0.51567043  0.54516861  0.49919904
   0.57058035  0.56200526  0.57550556
   0.60775543  0.55649773  0.52981245
   0.56515858  0.59835043  0.52846408
   0.39324251  0.50321667  0.50050850
   0.44291391  0.50574714  0.49133024
   0.51398812  0.45933463  0.49552087
   0.52569497  0.45693028  0.44580891
   0.54758645  0.48910003  0.52124088
   0.57310719  0.56424208  0.53894881
   0.46645184  0.46891233  0.50347847
   0.54243110  0.53366685  0.51725208
   0.46027889  0.53922882  0.47403557
   0.57822456  0.47133335  0.54236355
Direct configuration=    20
   0.37896570  0.53668730  0.49767049
   0.37682858  0.48135850  0.47603082
   0.38634068  0.48984960  0.53395183
   0.44878886  0.44391895  0.51794461
   0.51950512  0.42631922  0.51037385
   0.56094575  0.44759019  0.44217817
   0.52028773  0.48910524  0.42922507
   0.50527292  0.43148758  0.42908026
   0.51567640  0.54516338  0.49920537
   0.57056935  0.56199609  0.57552692
   0.60775015  0.55648974  0.52983879
   0.56515458  0.59834320  0.52848751
   0.39324215  0.50321475  0.50050281
   0.44291741  0.50574559  0.49132673
   0.51399138  0.45933413  0.49551146
   0.52569708  0.45694859  0.44579880
   0.54758104  0.48910398  0.52123993
   0.57310243  0.56423694  0.53897098
   0.46645487  0.46891254  0.50347755
   0.54242460  0.53365259  0.51726510
   0.46027838  0.53922172  0.47402271
   0.57823080  0.47131990  0.54237045
Direct configuration=    21
   0.37896680  0.53668657  0.49766835
   0.37683487  0.48136239  0.47601737
   0.38632968  0.48984166  0.53394241
   0.44879463  0.44391900  0.51794526
   0.51950737  0.42631055  0.51034759
   0.56094966  0.44761438  0.44216089
   0.52028831  0.48913080  0.42922661
   0.50527760  0.43151210  0.42905866
   0.51567728  0.54515837  0.49920805
   0.57055673  0.56198577  0.57555187
   0.60774475  0.55648009  0.52986820
   0.56514957  0.59833565  0.52851398
   0.39324282  0.50321291  0.50049801
   0.44291941  0.50574507  0.49132200
   0.51399599  0.45933367  0.49550240
   0.52569957  0.45696881  0.44578760
   0.54756123  0.48910673  0.52122908
   0.57309086  0.56422678  0.53899284
   0.46646136  0.46891251  0.50347693
   0.54243126  0.53364307  0.51729051
   0.46027768  0.53921222  0.47400638
   0.57824856  0.47130062  0.54238526
Direct configuration=    22
   0.37896834  0.53668609  0.49766597
   0.37684182  0.48136677  0.47600081
   0.38631607  0.48983288  0.53393079
   0.44880123  0.44391941  0.51794929
   0.51951016  0.42630116  0.51031740
   0.56095310  0.44764235  0.44214116
   0.52028793  0.48916071  0.42922846
   0.50528268  0.43154052  0.42903494
   0.51567334  0.54515304  0.49920671
   0.57054277  0.56197470  0.57557990
   0.60773887  0.55646869  0.52990006
   0.56514297  0.59832792  0.52854278
   0.39324491  0.50321146  0.50049475
   0.44291906  0.50574468  0.49131626
   0.51400206  0.45933350  0.49549410
   0.52570252  0.45699040  0.44577537
   0.54753451  0.48910024  0.52121329
   0.57307222  0.56421058  0.53901406
   0.46647174  0.46891246  0.50347734
   0.54245064  0.53364243  0.51732858
   0.46027719  0.53920014  0.47398485
   0.57827182  0.47127956  0.54240336
Direct configuration=    23
   0.37897057  0.53668604  0.49766355
   0.37684959  0.48137219  0.47598144
   0.38629938  0.48982351  0.53391732
   0.44880945  0.44392131  0.51795878
   0.51951395  0.42629145  0.51028430
   0.56095552  0.44767348  0.44211953
   0.52028588  0.48919402  0.42923108
   0.50528759  0.43157214  0.42901053
   0.51566937  0.54514573  0.49920373
   0.57052847  0.56196394  0.57560902
   0.60773154  0.55645607  0.52993274
   0.56513418  0.59831979  0.52857210
   0.39324826  0.50321074  0.50049309
   0.44291672  0.50574237  0.49131015
   0.51400904  0.45933384  0.49548651
   0.52570569  0.45701266  0.44576263
   0.54752036  0.48907567  0.52120578
   0.57305069  0.56419002  0.53903588
   0.46648452  0.46891301  0.50348016
   0.54247178  0.53365134  0.51737181
   0.46027748  0.53918556  0.47395627
   0.57828597  0.47126480  0.54241384
Direct configuration=    24
   0.37897070  0.53668611  0.49766358
   0.37684976  0.48137245  0.47598120
   0.38629895  0.48982343  0.53391720
   0.44880981  0.44392168  0.51795969
   0.51951412  0.42629141  0.51028407
   0.56095537  0.44767378  0.44211935
   0.52028559  0.48919426  0.42923126
   0.50528747  0.43157241  0.42901062
   0.51567034  0.54514521  0.49920410
   0.57052856  0.56196412  0.57560890
   0.60773119  0.55645600  0.52993266
   0.56513387  0.59831961  0.52857198
   0.39324829  0.50321083  0.50049314
   0.44291678  0.50574192  0.49131013
   0.51400905  0.45933384  0.49548647
   0.52570566  0.45701280  0.44576264
   0.54752397  0.48907380  0.52120822
   0.57305125  0.56419017  0.53903635
   0.46648444  0.46891317  0.50348067
   0.54246973  0.53365140  0.51737088
   0.46027757  0.53918515  0.47395524
   0.57828352  0.47126613  0.54241188
Direct configuration=    25
   0.37897096  0.53668625  0.49766363
   0.37685009  0.48137296  0.47598070
   0.38629809  0.48982327  0.53391694
   0.44881054  0.44392241  0.51796152
   0.51951445  0.42629133  0.51028359
   0.56095508  0.44767440  0.44211898
   0.52028503  0.48919476  0.42923164
   0.50528723  0.43157297  0.42901076
   0.51567222  0.54514419  0.49920478
   0.57052875  0.56196447  0.57560869
   0.60773051  0.55645586  0.52993254
   0.56513325  0.59831924  0.52857177
   0.39324836  0.50321101  0.50049323
   0.44291691  0.50574107  0.49131008
   0.51400908  0.45933383  0.49548639
   0.52570560  0.45701310  0.44576266
   0.54753081  0.48907028  0.52121284
   0.57305229  0.56419044  0.53903727
   0.46648431  0.46891350  0.50348170
   0.54246580  0.53365146  0.51736916
   0.46027772  0.53918430  0.47395316
   0.57827895  0.47126859  0.54240818
Direct configuration=    26
   0.37897136  0.53668646  0.49766371
   0.37685059  0.48137376  0.47597995
   0.38629677  0.48982302  0.53391654
   0.44881164  0.44392351  0.51796432
   0.51951493  0.42629116  0.51028282
   0.56095465  0.44767537  0.44211839
   0.52028418  0.48919554  0.42923221
   0.50528688  0.43157384  0.42901095
   0.51567486  0.54514269  0.49920569
   0.57052900  0.56196499  0.57560844
   0.60772950  0.55645563  0.52993236
   0.56513232  0.59831868  0.52857148
   0.39324846  0.50321127  0.50049337
   0.44291713  0.50573987  0.49130996
   0.51400917  0.45933378  0.49548631
   0.52570548  0.45701360  0.44576269
   0.54754011  0.48906558  0.52121911
   0.57305369  0.56419081  0.53903858
   0.46648418  0.46891398  0.50348325
   0.54246031  0.53365138  0.51736691
   0.46027790  0.53918293  0.47395002
   0.57827290  0.47127184  0.54240319
Direct configuration=    27
   0.37897192  0.53668676  0.49766381
   0.37685131  0.48137488  0.47597886
   0.38629493  0.48982266  0.53391596
   0.44881315  0.44392500  0.51796822
   0.51951557  0.42629088  0.51028169
   0.56095408  0.44767675  0.44211753
   0.52028300  0.48919668  0.42923301
   0.50528641  0.43157510  0.42901114
   0.51567809  0.54514074  0.49920666
   0.57052932  0.56196569  0.57560821
   0.60772817  0.55645527  0.52993215
   0.56513105  0.59831790  0.52857117
   0.39324859  0.50321160  0.50049353
   0.44291745  0.50573841  0.49130969
   0.51400936  0.45933367  0.49548624
   0.52570530  0.45701438  0.44576273
   0.54755077  0.48906037  0.52122626
   0.57305525  0.56419123  0.53904025
   0.46648415  0.46891462  0.50348538
   0.54245372  0.53365091  0.51736453
   0.46027807  0.53918088  0.47394566
   0.57826636  0.47127534  0.54239755
Direct configuration=    28
   0.37897269  0.53668717  0.49766393
   0.37685227  0.48137639  0.47597737
   0.38629245  0.48982214  0.53391516
   0.44881513  0.44392693  0.51797346
   0.51951636  0.42629040  0.51028004
   0.56095338  0.44767870  0.44211630
   0.52028145  0.48919830  0.42923407
   0.50528579  0.43157687  0.42901128
   0.51568161  0.54513834  0.49920745
   0.57052967  0.56196655  0.57560815
   0.60772653  0.55645472  0.52993194
   0.56512942  0.59831684  0.52857092
   0.39324879  0.50321199  0.50049371
   0.44291791  0.50573680  0.49130918
   0.51400974  0.45933343  0.49548624
   0.52570500  0.45701558  0.44576278
   0.54756102  0.48905570  0.52123305
   0.57305662  0.56419160  0.53904218
   0.46648439  0.46891541  0.50348820
   0.54244676  0.53364969  0.51736269
   0.46027816  0.53917790  0.47393986
   0.57826087  0.47127826  0.54239226
Direct configuration=    29
   0.37897273  0.53668719  0.49766394
   0.37685231  0.48137645  0.47597730
   0.38629234  0.48982211  0.53391512
   0.44881521  0.44392700  0.51797368
   0.51951638  0.42629036  0.51027995
   0.56095336  0.44767879  0.44211624
   0.52028139  0.48919839  0.42923412
   0.50528576  0.43157695  0.42901127
   0.51568162  0.54513828  0.49920740
   0.57052967  0.56196658  0.57560818
   0.60772648  0.55645468  0.52993195
   0.56512936  0.59831680  0.52857093
   0.39324880  0.50321199  0.50049371
   0.44291793  0.50573678  0.49130914
   0.51400977  0.45933341  0.49548625
   0.52570498  0.45701566  0.44576278
   0.54756084  0.48905584  0.52123291
   0.57305657  0.56419158  0.53904221
   0.46648445  0.46891544  0.50348831
   0.54244676  0.53364956  0.51736283
   0.46027814  0.53917774  0.47393963
   0.57826113  0.47127812  0.54239239
Direct configuration=    30
   0.37897279  0.53668723  0.49766394
   0.37685239  0.48137658  0.47597715
   0.38629213  0.48982205  0.53391503
   0.44881537  0.44392713  0.51797411
   0.51951643  0.42629028  0.51027976
   0.56095332  0.44767900  0.44211610
   0.52028126  0.48919857  0.42923420
   0.50528572  0.43157714  0.42901123
   0.51568166  0.54513815  0.49920731
   0.57052967  0.56196662  0.57560828
   0.60772638  0.55645461  0.52993197
   0.56512924  0.59831671  0.52857098
   0.39324882  0.50321201  0.50049370
   0.44291797  0.50573675  0.49130905
   0.51400984  0.45933338  0.49548627
   0.52570494  0.45701582  0.44576278
   0.54756049  0.48905610  0.52123266
   0.57305647  0.56419154  0.53904229
   0.46648455  0.46891548  0.50348852
   0.54244677  0.53364930  0.51736310
   0.46027811  0.53917743  0.47393916
   0.57826165  0.47127784  0.54239263
Direct configuration=    31
   0.37897289  0.53668728  0.49766394
   0.37685252  0.48137678  0.47597693
   0.38629181  0.48982195  0.53391490
   0.44881560  0.44392733  0.51797474
   0.51951651  0.42629016  0.51027946
   0.56095327  0.44767932  0.44211589
   0.52028109  0.48919887  0.42923433
   0.50528567  0.43157745  0.42901114
   0.51568173  0.54513795  0.49920719
   0.57052964  0.56196667  0.57560844
   0.60772624  0.55645449  0.52993205
   0.56512906  0.59831656  0.52857108
   0.39324884  0.50321203  0.50049369
   0.44291804  0.50573670  0.49130891
   0.51400994  0.45933332  0.49548629
   0.52570489  0.45701607  0.44576276
   0.54755999  0.48905647  0.52123228
   0.57305631  0.56419148  0.53904243
   0.46648472  0.46891555  0.50348883
   0.54244676  0.53364891  0.51736353
   0.46027807  0.53917697  0.47393846
   0.57826241  0.47127741  0.54239299
Direct configuration=    32
   0.37897302  0.53668735  0.49766394
   0.37685270  0.48137704  0.47597661
   0.38629139  0.48982181  0.53391471
   0.44881591  0.44392758  0.51797556
   0.51951661  0.42628998  0.51027902
   0.56095321  0.44767978  0.44211558
   0.52028086  0.48919930  0.42923450
   0.50528560  0.43157788  0.42901099
   0.51568182  0.54513769  0.49920704
   0.57052959  0.56196672  0.57560869
   0.60772604  0.55645432  0.52993220
   0.56512882  0.59831636  0.52857126
   0.39324888  0.50321205  0.50049366
   0.44291812  0.50573663  0.49130873
   0.51401008  0.45933325  0.49548630
   0.52570484  0.45701644  0.44576271
   0.54755935  0.48905693  0.52123182
   0.57305610  0.56419137  0.53904265
   0.46648494  0.46891563  0.50348922
   0.54244675  0.53364839  0.51736410
   0.46027801  0.53917636  0.47393752
   0.57826338  0.47127684  0.54239344
Direct configuration=    33
   0.37897319  0.53668742  0.49766393
   0.37685292  0.48137736  0.47597618
   0.38629086  0.48982162  0.53391445
   0.44881630  0.44392788  0.51797655
   0.51951674  0.42628976  0.51027843
   0.56095315  0.44768040  0.44211516
   0.52028059  0.48919989  0.42923470
   0.50528554  0.43157847  0.42901075
   0.51568193  0.54513737  0.49920688
   0.57052948  0.56196674  0.57560905
   0.60772578  0.55645410  0.52993245
   0.56512851  0.59831610  0.52857153
   0.39324893  0.50321207  0.50049361
   0.44291823  0.50573653  0.49130849
   0.51401025  0.45933317  0.49548628
   0.52570477  0.45701693  0.44576262
   0.54755861  0.48905744  0.52123128
   0.57305582  0.56419122  0.53904299
   0.46648521  0.46891573  0.50348969
   0.54244672  0.53364776  0.51736484
   0.46027794  0.53917561  0.47393637
   0.57826452  0.47127614  0.54239399
Direct configuration=    34
   0.37897338  0.53668750  0.49766391
   0.37685319  0.48137774  0.47597565
   0.38629023  0.48982137  0.53391412
   0.44881677  0.44392823  0.51797768
   0.51951690  0.42628947  0.51027767
   0.56095310  0.44768119  0.44211462
   0.52028028  0.48920067  0.42923493
   0.50528548  0.43157924  0.42901040
   0.51568209  0.54513697  0.49920673
   0.57052932  0.56196673  0.57560956
   0.60772546  0.55645380  0.52993286
   0.56512814  0.59831577  0.52857195
   0.39324900  0.50321208  0.50049353
   0.44291835  0.50573640  0.49130819
   0.51401046  0.45933308  0.49548623
   0.52570471  0.45701758  0.44576248
   0.54755780  0.48905795  0.52123070
   0.57305547  0.56419102  0.53904347
   0.46648553  0.46891583  0.50349022
   0.54244667  0.53364703  0.51736574
   0.46027788  0.53917474  0.47393499
   0.57826580  0.47127532  0.54239460
Direct configuration=    35
   0.37897363  0.53668759  0.49766387
   0.37685355  0.48137823  0.47597492
   0.38628941  0.48982101  0.53391366
   0.44881738  0.44392864  0.51797908
   0.51951712  0.42628907  0.51027658
   0.56095306  0.44768231  0.44211387
   0.52027990  0.48920178  0.42923522
   0.50528544  0.43158033  0.42900985
   0.51568230  0.54513646  0.49920658
   0.57052904  0.56196664  0.57561034