   6   6   0   0
  0.4500000E+04  0.3000000E-08  0.3000000E-08  0.3000000E-08  0.0000000E+00
  1.000000000000000E-004
  CAR 
 unknown system                          
      2.02527465    -24.58049000  301     -7.02033890      1.00000000
    -24.580  0.0000E+00  0.0000E+00
    -24.492  0.0000E+00  0.0000E+00
    -24.403  0.0000E+00  0.0000E+00
    -24.314  0.0000E+00  0.0000E+00
    -24.226  0.0000E+00  0.0000E+00
    -24.137  0.0000E+00  0.0000E+00
    -24.048  0.0000E+00  0.0000E+00
    -23.960  0.0000E+00  0.0000E+00
    -23.871  0.0000E+00  0.0000E+00
    -23.782  0.0000E+00  0.0000E+00
    -23.694  0.1335E-15  0.1184E-16
    -23.605  0.1624E-13  0.1452E-14
    -23.516  0.1362E-11  0.1223E-12
    -23.428  0.7759E-10  0.7004E-11
    -23.339  0.3003E-08  0.2733E-09
    -23.250  0.7902E-07  0.7281E-08
    -23.162  0.1415E-05  0.1328E-06
    -23.073  0.1725E-04  0.1663E-05
    -22.984  0.1434E-03  0.1438E-04
    -22.895  0.8127E-03  0.8645E-04
    -22.807  0.3144E-02  0.3653E-03
    -22.718  0.8306E-02  0.1102E-02
    -22.629  0.1499E-01  0.2432E-02
    -22.541  0.1849E-01  0.4072E-02
    -22.452  0.1559E-01  0.5454E-02
    -22.363  0.8984E-02  0.6251E-02
    -22.275  0.3537E-02  0.6565E-02
    -22.186  0.9509E-03  0.6649E-02
    -22.097  0.1745E-03  0.6665E-02
    -22.009  0.2184E-04  0.6666E-02
    -21.920  0.1863E-05  0.6667E-02
    -21.831  0.1083E-06  0.6667E-02
    -21.743  0.4281E-08  0.6667E-02
    -21.654  0.1151E-09  0.6667E-02
    -21.565  0.2103E-11  0.6667E-02
    -21.476  0.2611E-13  0.6667E-02
    -21.388  0.2170E-15  0.6667E-02
    -21.299  0.0000E+00  0.6667E-02
    -21.210  0.0000E+00  0.6667E-02
    -21.122  0.0000E+00  0.6667E-02
    -21.033  0.0000E+00  0.6667E-02
    -20.944  0.0000E+00  0.6667E-02
    -20.856  0.0000E+00  0.6667E-02
    -20.767  0.0000E+00  0.6667E-02
    -20.678  0.0000E+00  0.6667E-02
    -20.590  0.0000E+00  0.6667E-02
    -20.501  0.3338E-16  0.6667E-02
    -20.412  0.4619E-14  0.6667E-02
    -20.324  0.4301E-12  0.6667E-02
    -20.235  0.2718E-10  0.6667E-02
    -20.146  0.1167E-08  0.6667E-02
    -20.058  0.3406E-07  0.6667E-02
    -19.969  0.6764E-06  0.6667E-02
    -19.880  0.9145E-05  0.6668E-02
    -19.791  0.8425E-04  0.6675E-02
    -19.703  0.5292E-03  0.6722E-02
    -19.614  0.2269E-02  0.6923E-02
    -19.525  0.6641E-02  0.7512E-02
    -19.437  0.1328E-01  0.8690E-02
    -19.348  0.1814E-01  0.1030E-01
    -19.259  0.1695E-01  0.1180E-01
    -19.171  0.1082E-01  0.1276E-01
    -19.082  0.4718E-02  0.1318E-01
    -18.993  0.1405E-02  0.1330E-01
    -18.905  0.2858E-03  0.1333E-01
    -18.816  0.3966E-04  0.1333E-01
    -18.727  0.3751E-05  0.1333E-01
    -18.639  0.2417E-06  0.1333E-01
    -18.550  0.1060E-07  0.1333E-01
    -18.461  0.3162E-09  0.1333E-01
    -18.372  0.6409E-11  0.1333E-01
    -18.284  0.8825E-13  0.1333E-01
    -18.195  0.8346E-15  0.1333E-01
    -18.106  0.0000E+00  0.1333E-01
    -18.018  0.0000E+00  0.1333E-01
    -17.929  0.0000E+00  0.1333E-01
    -17.840  0.0000E+00  0.1333E-01
    -17.752  0.0000E+00  0.1333E-01
    -17.663  0.0000E+00  0.1333E-01
    -17.574  0.0000E+00  0.1333E-01
    -17.486  0.0000E+00  0.1333E-01
    -17.397  0.0000E+00  0.1333E-01
    -17.308  0.0000E+00  0.1333E-01
    -17.220  0.0000E+00  0.1333E-01
    -17.131  0.0000E+00  0.1333E-01
    -17.042  0.0000E+00  0.1333E-01
    -16.954  0.0000E+00  0.1333E-01
    -16.865  0.0000E+00  0.1333E-01
    -16.776  0.0000E+00  0.1333E-01
    -16.687  0.0000E+00  0.1333E-01
    -16.599  0.0000E+00  0.1333E-01
    -16.510  0.0000E+00  0.1333E-01
    -16.421  0.0000E+00  0.1333E-01
    -16.333  0.0000E+00  0.1333E-01
    -16.244  0.0000E+00  0.1333E-01
    -16.155  0.0000E+00  0.1333E-01
    -16.067  0.0000E+00  0.1333E-01
    -15.978  0.0000E+00  0.1333E-01
    -15.889  0.0000E+00  0.1333E-01
    -15.801  0.0000E+00  0.1333E-01
    -15.712  0.0000E+00  0.1333E-01
    -15.623  0.0000E+00  0.1333E-01
    -15.535  0.0000E+00  0.1333E-01
    -15.446  0.0000E+00  0.1333E-01
    -15.357  0.0000E+00  0.1333E-01
    -15.268  0.0000E+00  0.1333E-01
    -15.180  0.0000E+00  0.1333E-01
    -15.091  0.0000E+00  0.1333E-01
    -15.002  0.0000E+00  0.1333E-01
    -14.914  0.0000E+00  0.1333E-01
    -14.825  0.0000E+00  0.1333E-01
    -14.736  0.0000E+00  0.1333E-01
    -14.648  0.0000E+00  0.1333E-01
    -14.559  0.0000E+00  0.1333E-01
    -14.470  0.0000E+00  0.1333E-01
    -14.382  0.0000E+00  0.1333E-01
    -14.293  0.0000E+00  0.1333E-01
    -14.204  0.0000E+00  0.1333E-01
    -14.116  0.0000E+00  0.1333E-01
    -14.027  0.0000E+00  0.1333E-01
    -13.938  0.0000E+00  0.1333E-01
    -13.849  0.2170E-15  0.1333E-01
    -13.761  0.2561E-13  0.1333E-01
    -13.672  0.2068E-11  0.1333E-01
    -13.583  0.1133E-09  0.1333E-01
    -13.495  0.4222E-08  0.1333E-01
    -13.406  0.1069E-06  0.1333E-01
    -13.317  0.1843E-05  0.1333E-01
    -13.229  0.2164E-04  0.1334E-01
    -13.140  0.1732E-03  0.1335E-01
    -13.051  0.9451E-03  0.1343E-01
    -12.963  0.3521E-02  0.1375E-01
    -12.874  0.8957E-02  0.1454E-01
    -12.785  0.1557E-01  0.1592E-01
    -12.697  0.1849E-01  0.1756E-01
    -12.608  0.1502E-01  0.1889E-01
    -12.519  0.8333E-02  0.1963E-01
    -12.431  0.3159E-02  0.1991E-01
    -12.342  0.8178E-03  0.1999E-01
    -12.253  0.1445E-03  0.2000E-01
    -12.164  0.1765E-04  0.2000E-01
    -12.076  0.5393E-05  0.2000E-01
    -11.987  0.4560E-04  0.2000E-01
    -11.898  0.3576E-03  0.2004E-01
    -11.810  0.1923E-02  0.2021E-01
    -11.721  0.7084E-02  0.2083E-01
    -11.632  0.1789E-01  0.2242E-01
    -11.544  0.3098E-01  0.2517E-01
    -11.455  0.3681E-01  0.2843E-01
    -11.366  0.3000E-01  0.3109E-01
    -11.278  0.1678E-01  0.3258E-01
    -11.189  0.6433E-02  0.3315E-01
    -11.100  0.1691E-02  0.3330E-01
    -11.012  0.3045E-03  0.3333E-01
    -10.923  0.3752E-04  0.3333E-01
    -10.834  0.3162E-05  0.3333E-01
    -10.745  0.1821E-06  0.3333E-01
    -10.657  0.7158E-08  0.3333E-01
    -10.568  0.1919E-09  0.3333E-01
    -10.479  0.3505E-11  0.3333E-01
    -10.391  0.4358E-13  0.3333E-01
    -10.302  0.3756E-15  0.3333E-01
    -10.213  0.0000E+00  0.3333E-01
    -10.125  0.0000E+00  0.3333E-01
    -10.036  0.0000E+00  0.3333E-01
     -9.947  0.0000E+00  0.3333E-01
     -9.859  0.0000E+00  0.3333E-01
     -9.770  0.0000E+00  0.3333E-01
     -9.681  0.5007E-16  0.3333E-01
     -9.593  0.6604E-14  0.3333E-01
     -9.504  0.5970E-12  0.3333E-01
     -9.415  0.3664E-10  0.3333E-01
     -9.327  0.1528E-08  0.3333E-01
     -9.238  0.4331E-07  0.3333E-01
     -9.149  0.8352E-06  0.3333E-01
     -9.060  0.1097E-04  0.3333E-01
     -8.972  0.9815E-04  0.3334E-01
     -8.883  0.5990E-03  0.3340E-01
     -8.794  0.2494E-02  0.3362E-01
     -8.706  0.7094E-02  0.3425E-01
     -8.617  0.1379E-01  0.3547E-01
     -8.528  0.1838E-01  0.3710E-01
     -8.440  0.1713E-01  0.3862E-01
     -8.351  0.1267E-01  0.3974E-01
     -8.262  0.1178E-01  0.4079E-01
     -8.174  0.1778E-01  0.4236E-01
     -8.085  0.2704E-01  0.4476E-01
     -7.996  0.3240E-01  0.4764E-01
     -7.908  0.2945E-01  0.5025E-01
     -7.819  0.2006E-01  0.5203E-01
     -7.730  0.1004E-01  0.5292E-01
     -7.641  0.3605E-02  0.5324E-01
     -7.553  0.9113E-03  0.5332E-01
     -7.464  0.1601E-03  0.5333E-01
     -7.375  0.1936E-04  0.5333E-01
     -7.287  0.1605E-05  0.5333E-01
     -7.198  0.9089E-07  0.5333E-01
     -7.109  0.3508E-08  0.5333E-01
     -7.021  0.9212E-10  0.5333E-01
     -6.932  0.1645E-11  0.5333E-01
     -6.843  0.1993E-13  0.5333E-01
     -6.755  0.1669E-15  0.5333E-01
     -6.666  0.0000E+00  0.5333E-01
     -6.577  0.0000E+00  0.5333E-01
     -6.489  0.0000E+00  0.5333E-01
     -6.400  0.0000E+00  0.5333E-01
     -6.311  0.0000E+00  0.5333E-01
     -6.223  0.0000E+00  0.5333E-01
     -6.134  0.0000E+00  0.5333E-01
     -6.045  0.0000E+00  0.5333E-01
     -5.956  0.0000E+00  0.5333E-01
     -5.868  0.0000E+00  0.5333E-01
     -5.779  0.0000E+00  0.5333E-01
     -5.690  0.0000E+00  0.5333E-01
     -5.602  0.0000E+00  0.5333E-01
     -5.513  0.0000E+00  0.5333E-01
     -5.424  0.0000E+00  0.5333E-01
     -5.336  0.0000E+00  0.5333E-01
     -5.247  0.0000E+00  0.5333E-01
     -5.158  0.0000E+00  0.5333E-01
     -5.070  0.0000E+00  0.5333E-01
     -4.981  0.0000E+00  0.5333E-01
     -4.892  0.0000E+00  0.5333E-01
     -4.804  0.0000E+00  0.5333E-01
     -4.715  0.0000E+00  0.5333E-01
     -4.626  0.0000E+00  0.5333E-01
     -4.537  0.0000E+00  0.5333E-01
     -4.449  0.0000E+00  0.5333E-01
     -4.360  0.0000E+00  0.5333E-01
     -4.271  0.0000E+00  0.5333E-01
     -4.183  0.0000E+00  0.5333E-01
     -4.094  0.0000E+00  0.5333E-01
     -4.005  0.0000E+00  0.5333E-01
     -3.917  0.0000E+00  0.5333E-01
     -3.828  0.0000E+00  0.5333E-01
     -3.739  0.0000E+00  0.5333E-01
     -3.651  0.0000E+00  0.5333E-01
     -3.562  0.0000E+00  0.5333E-01
     -3.473  0.0000E+00  0.5333E-01
     -3.385  0.0000E+00  0.5333E-01
     -3.296  0.0000E+00  0.5333E-01
     -3.207  0.0000E+00  0.5333E-01
     -3.119  0.0000E+00  0.5333E-01
     -3.030  0.0000E+00  0.5333E-01
     -2.941  0.0000E+00  0.5333E-01
     -2.852  0.0000E+00  0.5333E-01
     -2.764  0.0000E+00  0.5333E-01
     -2.675  0.0000E+00  0.5333E-01
     -2.586  0.0000E+00  0.5333E-01
     -2.498  0.0000E+00  0.5333E-01
     -2.409  0.0000E+00  0.5333E-01
     -2.320  0.0000E+00  0.5333E-01
     -2.232  0.1252E-15  0.5333E-01
     -2.143  0.1551E-13  0.5333E-01
     -2.054  0.1306E-11  0.5333E-01
     -1.966  0.7468E-10  0.5333E-01
     -1.877  0.2901E-08  0.5333E-01
     -1.788  0.7664E-07  0.5333E-01
     -1.700  0.1377E-05  0.5333E-01
     -1.611  0.1686E-04  0.5333E-01
     -1.522  0.1407E-03  0.5335E-01
     -1.433  0.8003E-03  0.5342E-01
     -1.345  0.3108E-02  0.5369E-01
     -1.256  0.8242E-02  0.5442E-01
     -1.167  0.1493E-01  0.5575E-01
     -1.079  0.1849E-01  0.5739E-01
     -0.990  0.1566E-01  0.5878E-01
     -0.901  0.9143E-02  0.5959E-01
     -0.813  0.4224E-02  0.5996E-01
     -0.724  0.4047E-02  0.6032E-01
     -0.635  0.1021E-01  0.6123E-01
     -0.547  0.2242E-01  0.6322E-01
     -0.458  0.3426E-01  0.6625E-01
     -0.369  0.3607E-01  0.6945E-01
     -0.281  0.2677E-01  0.7183E-01
     -0.192  0.1631E-01  0.7327E-01
     -0.103  0.1339E-01  0.7446E-01
     -0.015  0.1668E-01  0.7594E-01
      0.074  0.1864E-01  0.7759E-01
      0.163  0.1491E-01  0.7892E-01
      0.252  0.8196E-02  0.7964E-01
      0.340  0.3082E-02  0.7992E-01
      0.429  0.7915E-03  0.7999E-01
      0.518  0.1388E-03  0.8000E-01
      0.606  0.1659E-04  0.8000E-01
      0.695  0.1352E-05  0.8000E-01
      0.784  0.7502E-07  0.8000E-01
      0.872  0.2833E-08  0.8000E-01
      0.961  0.7274E-10  0.8000E-01
      1.050  0.1269E-11  0.8000E-01
      1.138  0.1504E-13  0.8000E-01
      1.227  0.1210E-15  0.8000E-01
      1.316  0.0000E+00  0.8000E-01
      1.404  0.0000E+00  0.8000E-01
      1.493  0.0000E+00  0.8000E-01
      1.582  0.0000E+00  0.8000E-01
      1.671  0.0000E+00  0.8000E-01
      1.759  0.0000E+00  0.8000E-01
      1.848  0.0000E+00  0.8000E-01
      1.937  0.0000E+00  0.8000E-01
      2.025  0.0000E+00  0.8000E-01
