    6    6  300    1
  0.4500000E+04  0.3000000E-08  0.3000000E-08  0.3000000E-08  0.0000000E+00
  1.000000000000000E-004
  CAR 
 unknown system                          
     16      4     12
 
  0.2500000E+00  0.2500000E+00  0.2500000E+00  0.2500000E+00
    1      -22.580490   1.000000
    2      -19.363952   1.000000
    3      -12.745131   1.000000
    4      -11.517482   1.000000
    5      -11.488717   1.000000
    6       -8.551003   1.000000
    7       -8.099207   1.000000
    8       -7.952518   1.000000
    9       -1.117624   0.000000
   10       -0.459682   0.000000
   11       -0.434023   0.000000
   12        0.025275   0.000000
 
 -0.2500000E+00  0.2500000E+00  0.2500000E+00  0.2500000E+00
    1      -22.580489   1.000000
    2      -19.363950   1.000000
    3      -12.745132   1.000000
    4      -11.517480   1.000000
    5      -11.488714   1.000000
    6       -8.550995   1.000000
    7       -8.099210   1.000000
    8       -7.952517   1.000000
    9       -1.117632   0.000000
   10       -0.459681   0.000000
   11       -0.434034   0.000000
   12        0.021582   0.000000
 
  0.2500000E+00 -0.2500000E+00  0.2500000E+00  0.2500000E+00
    1      -22.580490   1.000000
    2      -19.363950   1.000000
    3      -12.745130   1.000000
    4      -11.517488   1.000000
    5      -11.488719   1.000000
    6       -8.550995   1.000000
    7       -8.099206   1.000000
    8       -7.952516   1.000000
    9       -1.117623   0.000000
   10       -0.459694   0.000000
   11       -0.434024   0.000000
   12        0.024302   0.000000
 
 -0.2500000E+00 -0.2500000E+00  0.2500000E+00  0.2500000E+00
    1      -22.580489   1.000000
    2      -19.363952   1.000000
    3      -12.745131   1.000000
    4      -11.517487   1.000000
    5      -11.488719   1.000000
    6       -8.550995   1.000000
    7       -8.099223   1.000000
    8       -7.952514   1.000000
    9       -1.117621   0.000000
   10       -0.459685   0.000000
   11       -0.434023   0.000000
   12        0.023833   0.000000
