 vasp.5.4.1 24Jun15 (build Jan 13 2020 12:58:22) complex                        
  
 executed on           IFC91_ompi date 2020.02.03  02:42:24
 running on   15 total cores
 each image running on    1 cores
 distrk:  each k-point on    1 cores,    1 groups
 distr:  one band on NCORES_PER_BAND=   1 cores,    1 groups


--------------------------------------------------------------------------------------------------------


 INCAR:
 POTCAR:    PAW_PBE H 15Jun2001                   
 POTCAR:    PAW_PBE C 08Apr2002                   
 POTCAR:    PAW_PBE N 08Apr2002                   
 POTCAR:    PAW_PBE H 15Jun2001                   
   VRHFIN =H: ultrasoft test                                                    
   LEXCH  = PE                                                                  
   EATOM  =    12.4884 eV,    0.9179 Ry                                         
                                                                                
   TITEL  = PAW_PBE H 15Jun2001                                                 
   LULTRA =        F    use ultrasoft PP ?                                      
   IUNSCR =        0    unscreen: 0-lin 1-nonlin 2-no                           
   RPACOR =    0.000    partial core radius                                     
   POMASS =    1.000; ZVAL   =    1.000    mass and valenz                      
   RCORE  =    1.100    outmost cutoff radius                                   
   RWIGS  =    0.700; RWIGS  =    0.370    wigner-seitz radius (au A)           
   ENMAX  =  250.000; ENMIN  =  200.000 eV                                      
   RCLOC  =    0.701    cutoff for local pot                                    
   LCOR   =        T    correct aug charges                                     
   LPAW   =        T    paw PP                                                  
   EAUG   =  400.000                                                            
   RMAX   =    1.123    core radius for proj-oper                               
   RAUG   =    1.200    factor for augmentation sphere                          
   RDEP   =    1.112    radius for radial grids                                 
   RDEPT  =    0.926    core radius for aug-charge                              
                                                                                
   Atomic configuration                                                         
    2 entries                                                                   
     n  l   j            E        occ.                                          
     1  0  0.50        -6.4927   1.0000                                         
     2  1  0.50        -3.4015   0.0000                                         
   Description                                                                  
     l       E           TYP  RCUT    TYP  RCUT                                 
     0     -6.4927494     23  1.100                                             
     0      6.8029130     23  1.100                                             
     1     -4.0817478     23  1.100                                             
  local pseudopotential read in
  atomic valenz-charges read in
  non local Contribution for L=           0  read in
    real space projection operators read in
  non local Contribution for L=           0  read in
    real space projection operators read in
  non local Contribution for L=           1  read in
    real space projection operators read in
    PAW grid and wavefunctions read in
 
   number of l-projection  operators is LMAX  =           3
   number of lm-projection operators is LMMAX =           5
 
 POTCAR:    PAW_PBE C 08Apr2002                   
   VRHFIN =C: s2p2                                                              
   LEXCH  = PE                                                                  
   EATOM  =   147.1560 eV,   10.8157 Ry                                         
                                                                                
   TITEL  = PAW_PBE C 08Apr2002                                                 
   LULTRA =        F    use ultrasoft PP ?                                      
   IUNSCR =        1    unscreen: 0-lin 1-nonlin 2-no                           
   RPACOR =    1.200    partial core radius                                     
   POMASS =   12.011; ZVAL   =    4.000    mass and valenz                      
   RCORE  =    1.500    outmost cutoff radius                                   
   RWIGS  =    1.630; RWIGS  =    0.863    wigner-seitz radius (au A)           
   ENMAX  =  400.000; ENMIN  =  300.000 eV                                      
   ICORE  =        2    local potential                                         
   LCOR   =        T    correct aug charges                                     
   LPAW   =        T    paw PP                                                  
   EAUG   =  644.873                                                            
   DEXC   =    0.000                                                            
   RMAX   =    1.529    core radius for proj-oper                               
   RAUG   =    1.300    factor for augmentation sphere                          
   RDEP   =    1.501    radius for radial grids                                 
   RDEPT  =    1.300    core radius for aug-charge                              
                                                                                
   Atomic configuration                                                         
    4 entries                                                                   
     n  l   j            E        occ.                                          
     1  0  0.50      -273.3789   2.0000                                         
     2  0  0.50       -13.7508   2.0000                                         
     2  1  0.50        -5.2854   2.0000                                         
     3  2  1.50        -5.4423   0.0000                                         
   Description                                                                  
     l       E           TYP  RCUT    TYP  RCUT                                 
     0    -13.7508458     23  1.200                                             
     0     -8.2022199     23  1.200                                             
     1     -5.2854383     23  1.500                                             
     1     34.0145650     23  1.500                                             
     2     -5.4423304      7  1.500                                             
  local pseudopotential read in
  partial core-charges read in
  partial kinetic energy density read in
  atomic valenz-charges read in
  non local Contribution for L=           0  read in
    real space projection operators read in
  non local Contribution for L=           0  read in
    real space projection operators read in
  non local Contribution for L=           1  read in
    real space projection operators read in
  non local Contribution for L=           1  read in
    real space projection operators read in
    PAW grid and wavefunctions read in
 
   number of l-projection  operators is LMAX  =           4
   number of lm-projection operators is LMMAX =           8
 
 POTCAR:    PAW_PBE N 08Apr2002                   
   VRHFIN =N: s2p3                                                              
   LEXCH  = PE                                                                  
   EATOM  =   264.5486 eV,   19.4438 Ry                                         
                                                                                
   TITEL  = PAW_PBE N 08Apr2002                                                 
   LULTRA =        F    use ultrasoft PP ?                                      
   IUNSCR =        1    unscreen: 0-lin 1-nonlin 2-no                           
   RPACOR =    1.200    partial core radius                                     
   POMASS =   14.001; ZVAL   =    5.000    mass and valenz                      
   RCORE  =    1.500    outmost cutoff radius                                   
   RWIGS  =    1.400; RWIGS  =    0.741    wigner-seitz radius (au A)           
   ENMAX  =  400.000; ENMIN  =  300.000 eV                                      
   ICORE  =        2    local potential                                         
   LCOR   =        T    correct aug charges                                     
   LPAW   =        T    paw PP                                                  
   EAUG   =  627.112                                                            
   DEXC   =    0.000                                                            
   RMAX   =    1.529    core radius for proj-oper                               
   RAUG   =    1.300    factor for augmentation sphere                          
   RDEP   =    1.514    radius for radial grids                                 
   RDEPT  =    1.338    core radius for aug-charge                              
                                                                                
   Atomic configuration                                                         
    4 entries                                                                   
     n  l   j            E        occ.                                          
     1  0  0.50      -384.7179   2.0000                                         
     2  0  0.50       -18.5828   2.0000                                         
     2  1  0.50        -7.0898   3.0000                                         
     3  2  1.50        -6.8029   0.0000                                         
   Description                                                                  
     l       E           TYP  RCUT    TYP  RCUT                                 
     0    -18.5828119     23  1.200                                             
     0    -13.5018863     23  1.200                                             
     1     -7.0897853     23  1.500                                             
     1      9.5240782     23  1.500                                             
     2     -6.8029130      7  1.500                                             
  local pseudopotential read in
  partial core-charges read in
  partial kinetic energy density read in
  atomic valenz-charges read in
  non local Contribution for L=           0  read in
    real space projection operators read in
  non local Contribution for L=           0  read in
    real space projection operators read in
  non local Contribution for L=           1  read in
    real space projection operators read in
  non local Contribution for L=           1  read in
    real space projection operators read in
    PAW grid and wavefunctions read in
 
   number of l-projection  operators is LMAX  =           4
   number of lm-projection operators is LMMAX =           8
 

 ----------------------------------------------------------------------------- 
|                                                                             |
|  ADVICE TO THIS USER RUNNING 'VASP/VAMP'   (HEAR YOUR MASTER'S VOICE ...):  |
|                                                                             |
|      You have a (more or less) 'small supercell' and for smaller cells      |
|      it is recommended  to use the reciprocal-space projection scheme!      |
|      The real space optimization is not  efficient for small cells and it   |
|      is also less accurate ...                                              |
|      Therefore set LREAL=.FALSE. in the  INCAR file                         |
|                                                                             |
 ----------------------------------------------------------------------------- 

 Optimization of the real space projectors (new method)

 maximal supplied QI-value         = 34.20
 optimisation between [QCUT,QGAM] = [  9.92, 20.18] = [ 27.55,114.04] Ry 
 Optimized for a Real-space Cutoff    1.26 Angstroem

   l    n(q)    QCUT    max X(q) W(low)/X(q) W(high)/X(q)  e(spline) 
   0      8     9.919    19.460    0.50E-03    0.23E-03    0.29E-06
   0      8     9.919    12.209    0.48E-03    0.23E-03    0.28E-06
   1      7     9.919     4.655    0.17E-03    0.75E-03    0.30E-06
 Optimization of the real space projectors (new method)

 maximal supplied QI-value         = 25.13
 optimisation between [QCUT,QGAM] = [ 10.05, 20.36] = [ 28.30,116.06] Ry 
 Optimized for a Real-space Cutoff    1.30 Angstroem

   l    n(q)    QCUT    max X(q) W(low)/X(q) W(high)/X(q)  e(spline) 
   0      8    10.053   115.676    0.49E-03    0.72E-03    0.18E-06
   0      8    10.053    87.132    0.49E-03    0.71E-03    0.18E-06
   1      7    10.053     4.429    0.32E-03    0.31E-03    0.18E-06
   1      7    10.053     2.733    0.23E-03    0.19E-03    0.20E-06
 Optimization of the real space projectors (new method)

 maximal supplied QI-value         = 25.13
 optimisation between [QCUT,QGAM] = [ 10.05, 20.36] = [ 28.30,116.06] Ry 
 Optimized for a Real-space Cutoff    1.65 Angstroem

   l    n(q)    QCUT    max X(q) W(low)/X(q) W(high)/X(q)  e(spline) 
   0     10    10.053    79.467    0.76E-04    0.72E-04    0.56E-06
   0     10    10.053    66.151    0.76E-04    0.72E-04    0.55E-06
   1     10    10.053     8.350    0.25E-03    0.92E-03    0.41E-05
   1     10    10.053     5.531    0.27E-03    0.10E-02    0.45E-05
  PAW_PBE H 15Jun2001                   :
 energy of atom  1       EATOM=  -12.4884
 kinetic energy error for atom=    0.0098 (will be added to EATOM!!)
  PAW_PBE C 08Apr2002                   :
 energy of atom  2       EATOM= -147.1560
 kinetic energy error for atom=    0.0288 (will be added to EATOM!!)
  PAW_PBE N 08Apr2002                   :
 energy of atom  3       EATOM= -264.5486
 kinetic energy error for atom=    0.0736 (will be added to EATOM!!)
 
 
 POSCAR: H3 C2 N1                                
  positions in direct lattice
  velocities in cartesian coordinates
 exchange correlation table for  LEXCH =        8
   RHO(1)=    0.500       N(1)  =     2000
   RHO(2)=  100.500       N(2)  =     4000

 VTST: version 3.2, (02/03/18)

 CHAIN: initializing optimizer
 
 OPT: Using FIRE optimizer
 OPT: FIRE, Init
 OPT: FIRE, MAXMOVE       0.20000
 OPT: FIRE, TIMESTEP      0.10000
 OPT: FIRE, FTIMEMAX      1.00000
 OPT: FIRE, FTIMEINC      1.10000
 OPT: FIRE, FTIMEDEC      0.50000
 OPT: FIRE, FALPHADEC     0.99000
 OPT: FIRE, FALPHA        0.10000
 OPT: FIRE, FNMIN         5
 
 CHAIN: Read ICHAIN            0
 CHAIN: Running the NEB
 NEB:          SPRING     -5.000000
 NEB:          LCLIMB      T
 NEB:     LTANGENTOLD      F
 NEB:           LDNEB      F
 NEB:        LDNEBORG      F
 NEB:        LNEBCELL      F
 NEB:          EFIRST      0.000000
 NEB:           ELAST      0.000000
 
 POSCAR: H3 C2 N1                                
  positions in direct lattice
  No initial velocities read in
 
 POSCAR: H3 C2 N1                                
  positions in direct lattice
  No initial velocities read in
 


--------------------------------------------------------------------------------------------------------


 ion  position               nearest neighbor table
   1  0.470  0.464  0.503-   4 1.10
   2  0.473  0.509  0.463-   4 1.10
   3  0.473  0.521  0.521-   4 1.10
   4  0.484  0.497  0.495-   2 1.10   1 1.10   3 1.10   5 1.45
   5  0.532  0.498  0.500-   6 1.17   4 1.45
   6  0.566  0.509  0.516-   5 1.17
 
  LATTYP: Found a simple cubic cell.
 ALAT       =    30.0000000000
  
  Lattice vectors:
  
 A1 = (  30.0000000000,   0.0000000000,   0.0000000000)
 A2 = (   0.0000000000,  30.0000000000,   0.0000000000)
 A3 = (   0.0000000000,   0.0000000000,  30.0000000000)


Analysis of symmetry for initial positions (statically):
=====================================================================
 Subroutine PRICEL returns:
 Original cell was already a primitive cell.
 

 Routine SETGRP: Setting up the symmetry group for a 
 simple cubic supercell.


 Subroutine GETGRP returns: Found  1 space group operations
 (whereof  1 operations were pure point group operations)
 out of a pool of 48 trial point group operations.


The static configuration has the point symmetry C_1 .


Analysis of symmetry for dynamics (positions and initial velocities):
=====================================================================
 Subroutine PRICEL returns:
 Original cell was already a primitive cell.
 

 Routine SETGRP: Setting up the symmetry group for a 
 simple cubic supercell.


 Subroutine GETGRP returns: Found  1 space group operations
 (whereof  1 operations were pure point group operations)
 out of a pool of 48 trial point group operations.


The dynamic configuration has the point symmetry C_1 .
 
 
 KPOINTS: Mo2C                                    

Automatic generation of k-mesh.
Space group operators:
 irot       det(A)        alpha          n_x          n_y          n_z        tau_x        tau_y        tau_z
    1     1.000000     0.000000     1.000000     0.000000     0.000000     0.000000     0.000000     0.000000
 
 Subroutine IBZKPT returns following result:
 ===========================================
 
 Found      4 irreducible k-points:
 
 Following reciprocal coordinates:
            Coordinates               Weight
  0.250000  0.250000  0.250000      2.000000
 -0.250000  0.250000  0.250000      2.000000
  0.250000 -0.250000  0.250000      2.000000
 -0.250000 -0.250000  0.250000      2.000000
 
 Following cartesian coordinates:
            Coordinates               Weight
  0.008333  0.008333  0.008333      2.000000
 -0.008333  0.008333  0.008333      2.000000
  0.008333 -0.008333  0.008333      2.000000
 -0.008333 -0.008333  0.008333      2.000000
 


--------------------------------------------------------------------------------------------------------




 Dimension of arrays:
   k-points           NKPTS =      4   k-points in BZ     NKDIM =      4   number of bands    NBANDS=     12
   number of dos      NEDOS =    301   number of ions     NIONS =      6
   non local maximal  LDIM  =      4   non local SUM 2l+1 LMDIM =      8
   total plane-waves  NPLWV = ******
   max r-space proj   IRMAX =   2395   max aug-charges    IRDMAX=   1738
   dimension x,y,z NGX =   150 NGY =  150 NGZ =  150
   dimension x,y,z NGXF=   300 NGYF=  300 NGZF=  300
   support grid    NGXF=   300 NGYF=  300 NGZF=  300
   ions per type =               3   2   1
 NGX,Y,Z   is equivalent  to a cutoff of   8.31,  8.31,  8.31 a.u.
 NGXF,Y,Z  is equivalent  to a cutoff of  16.62, 16.62, 16.62 a.u.


 I would recommend the setting:
   dimension x,y,z NGX =   147 NGY =  147 NGZ =  147
 SYSTEM =  unknown system                          
 POSCAR =  H3 C2 N1                                

 Startparameter for this run:
   NWRITE =      2    write-flag & timer
   PREC   = normal    normal or accurate (medium, high low for compatibility)
   ISTART =      0    job   : 0-new  1-cont  2-samecut
   ICHARG =      2    charge: 1-file 2-atom 10-const
   ISPIN  =      1    spin polarized calculation?
   LNONCOLLINEAR =      F non collinear calculations
   LSORBIT =      F    spin-orbit coupling
   INIWAV =      1    electr: 0-lowe 1-rand  2-diag
   LASPH  =      F    aspherical Exc in radial PAW
   METAGGA=      F    non-selfconsistent MetaGGA calc.

 Electronic Relaxation 1
   ENCUT  =  400.0 eV  29.40 Ry    5.42 a.u.  48.92 48.92 48.92*2*pi/ulx,y,z
   ENINI  =  400.0     initial cutoff
   ENAUG  =  644.9 eV  augmentation charge cutoff
   NELM   =    500;   NELMIN=  6; NELMDL= -5     # of ELM steps 
   EDIFF  = 0.1E-03   stopping-criterion for ELM
   LREAL  =      T    real-space projection
   NLSPLINE    = F    spline interpolate recip. space projectors
   LCOMPAT=      F    compatible to vasp.4.4
   GGA_COMPAT  = T    GGA compatible to vasp.4.4-vasp.4.6
   LMAXPAW     = -100 max onsite density
   LMAXMIX     =    2 max onsite mixed and CHGCAR
   VOSKOWN=      0    Vosko Wilk Nusair interpolation
   ROPT   =   -0.00050  -0.00050  -0.00050
 Ionic relaxation
   EDIFFG = -.1E+00   stopping-criterion for IOM
   NSW    =    300    number of steps for IOM
   NBLOCK =      1;   KBLOCK =    300    inner block; outer block 
   IBRION =      3    ionic relax: 0-MD 1-quasi-New 2-CG
   NFREE  =      0    steps in history (QN), initial steepest desc. (CG)
   ISIF   =      2    stress and relaxation
   IWAVPR =     11    prediction:  0-non 1-charg 2-wave 3-comb
   ISYM   =      2    0-nonsym 1-usesym 2-fastsym
   LCORR  =      T    Harris-Foulkes like correction to forces

   POTIM  = 0.0000    time-step for ionic-motion
   TEIN   =    0.0    initial temperature
   TEBEG  =    0.0;   TEEND  =   0.0 temperature during run
   SMASS  =   2.00    Nose mass-parameter (am)
   estimated Nose-frequenzy (Omega)   =  0.12E+10 period in steps =  0.00 mass=   0.137E-25a.u.
   SCALEE = 1.0000    scale energy and forces
   NPACO  =    256;   APACO  = 16.0  distance and # of slots for P.C.
   PSTRESS=    0.0 pullay stress

  Mass of Ions in am
   POMASS =   1.00 12.01 14.00
  Ionic Valenz
   ZVAL   =   1.00  4.00  5.00
  Atomic Wigner-Seitz radii
   RWIGS  =  -1.00 -1.00 -1.00
  virtual crystal weights 
   VCA    =   1.00  1.00  1.00
   NELECT =      16.0000    total number of electrons
   NUPDOWN=      -1.0000    fix difference up-down

 DOS related values:
   EMIN   =  10.00;   EMAX   =-10.00  energy-range for DOS
   EFERMI =   0.00
   ISMEAR =     0;   SIGMA  =   0.20  broadening in eV -4-tet -1-fermi 0-gaus

 Electronic relaxation 2 (details)
   IALGO  =     38    algorithm
   LDIAG  =      T    sub-space diagonalisation (order eigenvalues)
   LSUBROT=      F    optimize rotation matrix (better conditioning)
   TURBO    =      0    0=normal 1=particle mesh
   IRESTART =      0    0=no restart 2=restart with 2 vectors
   NREBOOT  =      0    no. of reboots
   NMIN     =      0    reboot dimension
   EREF     =   0.00    reference energy to select bands
   IMIX   =      4    mixing-type and parameters
     AMIX     =   0.40;   BMIX     =  1.00
     AMIX_MAG =   1.60;   BMIX_MAG =  1.00
     AMIN     =   0.10
     WC   =   100.;   INIMIX=   1;  MIXPRE=   1;  MAXMIX= -45

 Intra band minimization:
   WEIMIN = 0.0010     energy-eigenvalue tresh-hold
   EBREAK =  0.21E-05  absolut break condition
   DEPER  =   0.30     relativ break condition  

   TIME   =   0.40     timestep for ELM

  volume/ion in A,a.u.               =    4500.00     30367.50
  Fermi-wavevector in a.u.,A,eV,Ry     =   0.137508  0.259852  0.257264  0.018908
  Thomas-Fermi vector in A             =   0.790710
 
 Write flags
   LWAVE  =      F    write WAVECAR
   LCHARG =      F    write CHGCAR
   LVTOT  =      F    write LOCPOT, total local potential
   LVHAR  =      F    write LOCPOT, Hartree potential only
   LELF   =      F    write electronic localiz. function (ELF)
   LORBIT =      0    0 simple, 1 ext, 2 COOP (PROOUT)


 Dipole corrections
   LMONO  =      F    monopole corrections only (constant potential shift)
   LDIPOL =      F    correct potential (dipole corrections)
   IDIPOL =      0    1-x, 2-y, 3-z, 4-all directions 
   EPSILON=  1.0000000 bulk dielectric constant

 Exchange correlation treatment:
   GGA     =    PE    GGA type
   LEXCH   =     8    internal setting for exchange type
   VOSKOWN=      0    Vosko Wilk Nusair interpolation
   LHFCALC =     F    Hartree Fock is set to
   LHFONE  =     F    Hartree Fock one center treatment
   AEXX    =    0.0000 exact exchange contribution

 Linear response parameters
   LEPSILON=     F    determine dielectric tensor
   LRPA    =     F    only Hartree local field effects (RPA)
   LNABLA  =     F    use nabla operator in PAW spheres
   LVEL    =     F    velocity operator in full k-point grid
   LINTERFAST=   F  fast interpolation
   KINTER  =     0    interpolate to denser k-point grid
   CSHIFT  =0.1000    complex shift for real part using Kramers Kronig
   OMEGAMAX=  -1.0    maximum frequency
   DEG_THRESHOLD= 0.2000000E-02 threshold for treating states as degnerate
   RTIME   =    0.100 relaxation time in fs

 Orbital magnetization related:
   ORBITALMAG=     F  switch on orbital magnetization
   LCHIMAG   =     F  perturbation theory with respect to B field
   DQ        =  0.001000  dq finite difference perturbation B field



--------------------------------------------------------------------------------------------------------


 quickmin algorithm: (dynamic with friction)
 charge density and potential will be updated during run
 non-spin polarized calculation
 Variant of blocked Davidson
 Davidson routine will perform the subspace rotation
 perform sub-space diagonalisation
    after iterative eigenvector-optimisation
 modified Broyden-mixing scheme, WC =      100.0
 initial mixing is a Kerker type mixing with AMIX =  0.4000 and BMIX =      1.0000
 Hartree-type preconditioning will be used
 using additional bands            4
 real space projection scheme for non local part
 use partial core corrections
 calculate Harris-corrections to forces 
   (improved forces if not selfconsistent)
 use gradient corrections 
 use of overlap-Matrix (Vanderbilt PP)
 Gauss-broadening in eV      SIGMA  =   0.20


--------------------------------------------------------------------------------------------------------


  energy-cutoff  :      400.00
  volume of cell :    27000.00
      direct lattice vectors                 reciprocal lattice vectors
    30.000000000  0.000000000  0.000000000     0.033333333  0.000000000  0.000000000
     0.000000000 30.000000000  0.000000000     0.000000000  0.033333333  0.000000000
     0.000000000  0.000000000 30.000000000     0.000000000  0.000000000  0.033333333

  length of vectors
    30.000000000 30.000000000 30.000000000     0.033333333  0.033333333  0.033333333


 
 k-points in units of 2pi/SCALE and weight: Mo2C                                    
   0.00833333  0.00833333  0.00833333       0.250
  -0.00833333  0.00833333  0.00833333       0.250
   0.00833333 -0.00833333  0.00833333       0.250
  -0.00833333 -0.00833333  0.00833333       0.250
 
 k-points in reciprocal lattice and weights: Mo2C                                    
   0.25000000  0.25000000  0.25000000       0.250
  -0.25000000  0.25000000  0.25000000       0.250
   0.25000000 -0.25000000  0.25000000       0.250
  -0.25000000 -0.25000000  0.25000000       0.250
 
 position of ions in fractional coordinates (direct lattice) 
   0.46979995  0.46435125  0.50304554
   0.47282522  0.50885501  0.46263816
   0.47333276  0.52116724  0.52104930
   0.48406857  0.49714827  0.49539099
   0.53222464  0.49806378  0.50046968
   0.56604050  0.50875082  0.51639328
 
 position of ions in cartesian coordinates  (Angst):
  14.09399854 13.93053757 15.09136635
  14.18475667 15.26565042 13.87914467
  14.19998270 15.63501711 15.63147886
  14.52205712 14.91444824 14.86172961
  15.96673908 14.94191337 15.01409028
  16.98121490 15.26252446 15.49179831
 


--------------------------------------------------------------------------------------------------------


 k-point  1 :   0.2500 0.2500 0.2500  plane waves:  490454
 k-point  2 :  -0.2500 0.2500 0.2500  plane waves:  490454
 k-point  3 :   0.2500-0.2500 0.2500  plane waves:  490454
 k-point  4 :  -0.2500-0.2500 0.2500  plane waves:  490454

 maximum and minimum number of plane-waves per node :    490454   490454

 maximum number of plane-waves:    490454
 maximum index in each direction: 
   IXMAX=   49   IYMAX=   49   IZMAX=   48
   IXMIN=  -49   IYMIN=  -49   IZMIN=  -49

 WARNING: aliasing errors must be expected set NGX to 198 to avoid them
 WARNING: aliasing errors must be expected set NGY to 198 to avoid them
 WARNING: aliasing errors must be expected set NGZ to 196 to avoid them
 aliasing errors are usually negligible using standard VASP settings
 and one can safely disregard these warnings

 serial   3D FFT for wavefunctions
 parallel 3D FFT for charge:
    minimum data exchange during FFTs selected (reduces bandwidth)


 total amount of memory used by VASP on root node  3203888. kBytes
========================================================================

   base      :      30000. kBytes
   nonlr-proj:        692. kBytes
   fftplans  :     924480. kBytes
   grid      :    1872000. kBytes
   one-center:         18. kBytes
   wavefun   :     376698. kBytes
 
     INWAV:  cpu time    0.0010: real time    0.0004
 Broyden mixing: mesh for mixing (old mesh)
   NGX = 97   NGY = 97   NGZ = 97
  (NGX  =300   NGY  =300   NGZ  =300)
  gives a total of 912673 points

 initial charge density was supplied:
 charge density of overlapping atoms calculated
 number of electron      16.0000000 magnetization 
 keeping initial charge density in first step


--------------------------------------------------------------------------------------------------------


 Maximum index for non-local projection operator         2276
 Maximum index for augmentation-charges         1494 (set IRDMAX)


--------------------------------------------------------------------------------------------------------


 First call to EWALD:  gamma=   0.059
 Maximum number of real-space cells 3x 3x 3
 Maximum number of reciprocal cells 3x 3x 3

 FEWALD executed in parallel
    FEWALD:  cpu time    0.0030: real time    0.0027


----------------------------------------- Iteration    1(   1)  ---------------------------------------


    POTLOK:  cpu time   27.5388: real time   27.6004
    SETDIJ:  cpu time    0.0070: real time    0.0067
     EDDAV:  cpu time  118.1460: real time  118.4150
       DOS:  cpu time    0.0000: real time    0.0003
    --------------------------------------------
      LOOP:  cpu time  145.6949: real time  146.0285

 eigenvalue-minimisations  :   160
 total energy-change (2. order) : 0.1155044E+03  (-0.2125308E+03)
 number of electron      16.0000000 magnetization 
 augmentation part       16.0000000 magnetization 

 Free energy of the ion-electron system (eV)
  ---------------------------------------------------
  alpha Z        PSCENC =         0.04144063
  Ewald energy   TEWEN  =       678.61405715
  -Hartree energ DENC   =     -1092.44215494
  -exchange      EXHF   =         0.00000000
  -V(xc)+E(xc)   XCENC  =        51.39023881
  PAW double counting   =       428.37890668     -430.73533574
  entropy T*S    EENTRO =        -0.18325733
  eigenvalues    EBANDS =      -115.72480253
  atomic energy  EATOM  =       596.16534815
  Solvation  Ediel_sol  =         0.00000000
  ---------------------------------------------------
  free energy    TOTEN  =       115.50444088 eV

  energy without entropy =      115.68769821  energy(sigma->0) =      115.59606954


--------------------------------------------------------------------------------------------------------




----------------------------------------- Iteration    1(   2)  ---------------------------------------


     EDDAV:  cpu time  143.2382: real time  143.5764
       DOS:  cpu time    0.0000: real time    0.0001
    --------------------------------------------
      LOOP:  cpu time  143.2402: real time  143.5807

 eigenvalue-minimisations  :   192
 total energy-change (2. order) :-0.1166432E+03  (-0.1142089E+03)
 number of electron      16.0000000 magnetization 
 augmentation part       16.0000000 magnetization 

 Free energy of the ion-electron system (eV)
  ---------------------------------------------------
  alpha Z        PSCENC =         0.04144063
  Ewald energy   TEWEN  =       678.61405715
  -Hartree energ DENC   =     -1092.44215494
  -exchange      EXHF   =         0.00000000
  -V(xc)+E(xc)   XCENC  =        51.39023881
  PAW double counting   =       428.37890668     -430.73533574
  entropy T*S    EENTRO =         0.00000000
  eigenvalues    EBANDS =      -232.55130544
  atomic energy  EATOM  =       596.16534815
  Solvation  Ediel_sol  =         0.00000000
  ---------------------------------------------------
  free energy    TOTEN  =        -1.13880470 eV

  energy without entropy =       -1.13880470  energy(sigma->0) =       -1.13880470


--------------------------------------------------------------------------------------------------------




----------------------------------------- Iteration    1(   3)  ---------------------------------------


     EDDAV:  cpu time  107.0377: real time  107.2867
       DOS:  cpu time    0.0000: real time    0.0002
    --------------------------------------------
      LOOP:  cpu time  107.0397: real time  107.2904

 eigenvalue-minimisations  :   128
 total energy-change (2. order) :-0.3610281E+02  (-0.3596581E+02)
 number of electron      16.0000000 magnetization 
 augmentation part       16.0000000 magnetization 

 Free energy of the ion-electron system (eV)
  ---------------------------------------------------
  alpha Z        PSCENC =         0.04144063
  Ewald energy   TEWEN  =       678.61405715
  -Hartree energ DENC   =     -1092.44215494
  -exchange      EXHF   =         0.00000000
  -V(xc)+E(xc)   XCENC  =        51.39023881
  PAW double counting   =       428.37890668     -430.73533574
  entropy T*S    EENTRO =         0.00000000
  eigenvalues    EBANDS =      -268.65411709
  atomic energy  EATOM  =       596.16534815
  Solvation  Ediel_sol  =         0.00000000
  ---------------------------------------------------
  free energy    TOTEN  =       -37.24161635 eV

  energy without entropy =      -37.24161635  energy(sigma->0) =      -37.24161635


--------------------------------------------------------------------------------------------------------




----------------------------------------- Iteration    1(   4)  ---------------------------------------


     EDDAV:  cpu time  107.9366: real time  108.1885
       DOS:  cpu time    0.0010: real time    0.0002
    --------------------------------------------
      LOOP:  cpu time  107.9386: real time  108.1923

 eigenvalue-minimisations  :   128
 total energy-change (2. order) :-0.3304805E+01  (-0.3255069E+01)
 number of electron      16.0000000 magnetization 
 augmentation part       16.0000000 magnetization 

 Free energy of the ion-electron system (eV)
  ---------------------------------------------------
  alpha Z        PSCENC =         0.04144063
  Ewald energy   TEWEN  =       678.61405715
  -Hartree energ DENC   =     -1092.44215494
  -exchange      EXHF   =         0.00000000
  -V(xc)+E(xc)   XCENC  =        51.39023881
  PAW double counting   =       428.37890668     -430.73533574
  entropy T*S    EENTRO =         0.00000000
  eigenvalues    EBANDS =      -271.95892163
  atomic energy  EATOM  =       596.16534815
  Solvation  Ediel_sol  =         0.00000000
  ---------------------------------------------------
  free energy    TOTEN  =       -40.54642089 eV

  energy without entropy =      -40.54642089  energy(sigma->0) =      -40.54642089


--------------------------------------------------------------------------------------------------------




----------------------------------------- Iteration    1(   5)  ---------------------------------------


     EDDAV:  cpu time   96.8133: real time   97.0372
       DOS:  cpu time    0.0000: real time    0.0002
    CHARGE:  cpu time    7.8638: real time    7.8832
    MIXING:  cpu time    0.6979: real time    0.6987
    --------------------------------------------
      LOOP:  cpu time  105.3760: real time  105.6225

 eigenvalue-minimisations  :   112
 total energy-change (2. order) :-0.7187843E-01  (-0.7083048E-01)
 number of electron      16.0000011 magnetization 
 augmentation part        0.5265606 magnetization 

 Broyden mixing:
  rms(total) = 0.10953E+01    rms(broyden)= 0.10946E+01
  rms(prec ) = 0.11387E+01
  weight for this iteration     100.00

 Free energy of the ion-electron system (eV)
  ---------------------------------------------------
  alpha Z        PSCENC =         0.04144063
  Ewald energy   TEWEN  =       678.61405715
  -Hartree energ DENC   =     -1092.44215494
  -exchange      EXHF   =         0.00000000
  -V(xc)+E(xc)   XCENC  =        51.39023881
  PAW double counting   =       428.37890668     -430.73533574
  entropy T*S    EENTRO =         0.00000000
  eigenvalues    EBANDS =      -272.03080006
  atomic energy  EATOM  =       596.16534815
  Solvation  Ediel_sol  =         0.00000000
  ---------------------------------------------------
  free energy    TOTEN  =       -40.61829932 eV

  energy without entropy =      -40.61829932  energy(sigma->0) =      -40.61829932


--------------------------------------------------------------------------------------------------------




----------------------------------------- Iteration    1(   6)  ---------------------------------------


    POTLOK:  cpu time   26.9809: real time   27.0432
    SETDIJ:  cpu time    0.0070: real time    0.0066
     EDDAV:  cpu time  108.8485: real time  109.1038
       DOS:  cpu time    0.0000: real time    0.0002
    CHARGE:  cpu time    9.3356: real time    9.3579
    MIXING:  cpu time    0.8459: real time    0.8474
    --------------------------------------------
      LOOP:  cpu time  146.0198: real time  146.3635

 eigenvalue-minimisations  :   128
 total energy-change (2. order) : 0.3299946E+01  (-0.6327314E+00)
 number of electron      16.0000011 magnetization 
 augmentation part        0.4544504 magnetization 

 Broyden mixing:
  rms(total) = 0.59656E+00    rms(broyden)= 0.59634E+00
  rms(prec ) = 0.61279E+00
  weight for this iteration     100.00

 eigenvalues of (default mixing * dielectric matrix)
  average eigenvalue GAMMA=   1.2558
  1.2558

 Free energy of the ion-electron system (eV)
  ---------------------------------------------------
  alpha Z        PSCENC =         0.04144063
  Ewald energy   TEWEN  =       678.61405715
  -Hartree energ DENC   =     -1124.57765012
  -exchange      EXHF   =         0.00000000
  -V(xc)+E(xc)   XCENC  =        53.17770293
  PAW double counting   =       731.33031514     -734.01467472
  entropy T*S    EENTRO =         0.00000000
  eigenvalues    EBANDS =      -238.05489232
  atomic energy  EATOM  =       596.16534815
  Solvation  Ediel_sol  =         0.00000000
  ---------------------------------------------------
  free energy    TOTEN  =       -37.31835317 eV

  energy without entropy =      -37.31835317  energy(sigma->0) =      -37.31835317


--------------------------------------------------------------------------------------------------------




----------------------------------------- Iteration    1(   7)  ---------------------------------------


    POTLOK:  cpu time   27.3838: real time   27.4466
    SETDIJ:  cpu time    0.0060: real time    0.0065
     EDDAV:  cpu time   99.7058: real time   99.9363
       DOS:  cpu time    0.0000: real time    0.0002
    CHARGE:  cpu time    7.9428: real time    7.9617
    MIXING:  cpu time    0.9469: real time    0.9487
    --------------------------------------------
      LOOP:  cpu time  135.9863: real time  136.3045

 eigenvalue-minimisations  :   116
 total energy-change (2. order) : 0.6577231E+00  (-0.1484595E+00)
 number of electron      16.0000011 magnetization 
 augmentation part        0.4560591 magnetization 

 Broyden mixing:
  rms(total) = 0.30526E+00    rms(broyden)= 0.30521E+00
  rms(prec ) = 0.31343E+00
  weight for this iteration     100.00

 eigenvalues of (default mixing * dielectric matrix)
  average eigenvalue GAMMA=   1.4289
  0.8927  1.9651

 Free energy of the ion-electron system (eV)
  ---------------------------------------------------
  alpha Z        PSCENC =         0.04144063
  Ewald energy   TEWEN  =       678.61405715
  -Hartree energ DENC   =     -1141.48857727
  -exchange      EXHF   =         0.00000000
  -V(xc)+E(xc)   XCENC  =        54.09766594
  PAW double counting   =      1035.47246226    -1038.27116206
  entropy T*S    EENTRO =         0.00000000
  eigenvalues    EBANDS =      -221.29186486
  atomic energy  EATOM  =       596.16534815
  Solvation  Ediel_sol  =         0.00000000
  ---------------------------------------------------
  free energy    TOTEN  =       -36.66063006 eV

  energy without entropy =      -36.66063006  energy(sigma->0) =      -36.66063006


--------------------------------------------------------------------------------------------------------




----------------------------------------- Iteration    1(   8)  ---------------------------------------


    POTLOK:  cpu time   26.2620: real time   26.3230
    SETDIJ:  cpu time    0.0070: real time    0.0064
     EDDAV:  cpu time  108.4755: real time  108.7285
       DOS:  cpu time    0.0000: real time    0.0002
    CHARGE:  cpu time    8.8746: real time    8.8969
    MIXING:  cpu time    1.2028: real time    1.2050
    --------------------------------------------
      LOOP:  cpu time  144.8230: real time  145.1649

 eigenvalue-minimisations  :   128
 total energy-change (2. order) : 0.1751009E+00  (-0.4139189E-01)
 number of electron      16.0000011 magnetization 
 augmentation part        0.4363335 magnetization 

 Broyden mixing:
  rms(total) = 0.11261E+00    rms(broyden)= 0.11258E+00
  rms(prec ) = 0.11702E+00
  weight for this iteration     100.00

 eigenvalues of (default mixing * dielectric matrix)
  average eigenvalue GAMMA=   1.4567
  2.1749  1.4495  0.7458

 Free energy of the ion-electron system (eV)
  ---------------------------------------------------
  alpha Z        PSCENC =         0.04144063
  Ewald energy   TEWEN  =       678.61405715
  -Hartree energ DENC   =     -1152.25630450
  -exchange      EXHF   =         0.00000000
  -V(xc)+E(xc)   XCENC  =        54.78444759
  PAW double counting   =      1288.82467668    -1291.67753936
  entropy T*S    EENTRO =         0.00000000
  eigenvalues    EBANDS =      -210.98165547
  atomic energy  EATOM  =       596.16534815
  Solvation  Ediel_sol  =         0.00000000
  ---------------------------------------------------
  free energy    TOTEN  =       -36.48552914 eV

  energy without entropy =      -36.48552914  energy(sigma->0) =      -36.48552914


--------------------------------------------------------------------------------------------------------




----------------------------------------- Iteration    1(   9)  ---------------------------------------


    POTLOK:  cpu time   28.2967: real time   28.3649
    SETDIJ:  cpu time    0.0060: real time    0.0064
     EDDAV:  cpu time  108.3815: real time  108.6412
       DOS:  cpu time    0.0000: real time    0.0002
    CHARGE:  cpu time    7.9768: real time    7.9964
    MIXING:  cpu time    1.0388: real time    1.0410
    --------------------------------------------
      LOOP:  cpu time  145.7018: real time  146.0548

 eigenvalue-minimisations  :   128
 total energy-change (2. order) : 0.2637756E-01  (-0.3794906E-02)
 number of electron      16.0000011 magnetization 
 augmentation part        0.4377179 magnetization 

 Broyden mixing:
  rms(total) = 0.33554E-01    rms(broyden)= 0.33541E-01
  rms(prec ) = 0.39027E-01
  weight for this iteration     100.00

 eigenvalues of (default mixing * dielectric matrix)
  average eigenvalue GAMMA=   1.4478
  2.2945  1.6524  0.7876  1.0568

 Free energy of the ion-electron system (eV)
  ---------------------------------------------------
  alpha Z        PSCENC =         0.04144063
  Ewald energy   TEWEN  =       678.61405715
  -Hartree energ DENC   =     -1154.22175650
  -exchange      EXHF   =         0.00000000
  -V(xc)+E(xc)   XCENC  =        54.90350834
  PAW double counting   =      1369.22527514    -1372.04948468
  entropy T*S    EENTRO =         0.00000000
  eigenvalues    EBANDS =      -209.13753980
  atomic energy  EATOM  =       596.16534815
  Solvation  Ediel_sol  =         0.00000000
  ---------------------------------------------------
  free energy    TOTEN  =       -36.45915157 eV

  energy without entropy =      -36.45915157  energy(sigma->0) =      -36.45915157


--------------------------------------------------------------------------------------------------------




----------------------------------------- Iteration    1(  10)  ---------------------------------------


    POTLOK:  cpu time   26.0100: real time   26.0702
    SETDIJ:  cpu time    0.0060: real time    0.0065
     EDDAV:  cpu time  108.9824: real time  109.2360
       DOS:  cpu time    0.0000: real time    0.0002
    CHARGE:  cpu time    8.1878: real time    8.2067
    MIXING:  cpu time    0.9948: real time    0.9976
    --------------------------------------------
      LOOP:  cpu time  144.1831: real time  144.5215

 eigenvalue-minimisations  :   128
 total energy-change (2. order) : 0.4064433E-02  (-0.4858181E-03)
 number of electron      16.0000011 magnetization 
 augmentation part        0.4385955 magnetization 

 Broyden mixing:
  rms(total) = 0.14546E-01    rms(broyden)= 0.14540E-01
  rms(prec ) = 0.20798E-01
  weight for this iteration     100.00

 eigenvalues of (default mixing * dielectric matrix)
  average eigenvalue GAMMA=   1.4618
  2.1743  2.1743  1.3401  0.8102  0.8102

 Free energy of the ion-electron system (eV)
  ---------------------------------------------------
  alpha Z        PSCENC =         0.04144063
  Ewald energy   TEWEN  =       678.61405715
  -Hartree energ DENC   =     -1155.43969553
  -exchange      EXHF   =         0.00000000
  -V(xc)+E(xc)   XCENC  =        54.94249097
  PAW double counting   =      1384.21778557    -1387.03088095
  entropy T*S    EENTRO =         0.00000000
  eigenvalues    EBANDS =      -207.96563314
  atomic energy  EATOM  =       596.16534815
  Solvation  Ediel_sol  =         0.00000000
  ---------------------------------------------------
  free energy    TOTEN  =       -36.45508714 eV

  energy without entropy =      -36.45508714  energy(sigma->0) =      -36.45508714


--------------------------------------------------------------------------------------------------------




----------------------------------------- Iteration    1(  11)  ---------------------------------------


    POTLOK:  cpu time   27.2599: real time   27.3235
    SETDIJ:  cpu time    0.0060: real time    0.0066
     EDDAV:  cpu time  103.0153: real time  103.2578
       DOS:  cpu time    0.0000: real time    0.0002
    CHARGE:  cpu time    8.9246: real time    8.9469
    MIXING:  cpu time    1.2648: real time    1.2669
    --------------------------------------------
      LOOP:  cpu time  140.4736: real time  140.8067

 eigenvalue-minimisations  :   120
 total energy-change (2. order) :-0.1114113E-02  (-0.1756502E-03)
 number of electron      16.0000011 magnetization 
 augmentation part        0.4382113 magnetization 

 Broyden mixing:
  rms(total) = 0.95945E-02    rms(broyden)= 0.95930E-02
  rms(prec ) = 0.14653E-01
  weight for this iteration     100.00

 eigenvalues of (default mixing * dielectric matrix)
  average eigenvalue GAMMA=   1.7103
  3.0713  2.4857  0.8036  0.8922  1.5045  1.5045

 Free energy of the ion-electron system (eV)
  ---------------------------------------------------
  alpha Z        PSCENC =         0.04144063
  Ewald energy   TEWEN  =       678.61405715
  -Hartree energ DENC   =     -1156.51492904
  -exchange      EXHF   =         0.00000000
  -V(xc)+E(xc)   XCENC  =        54.96670272
  PAW double counting   =      1381.14546063    -1383.95399359
  entropy T*S    EENTRO =         0.00000000
  eigenvalues    EBANDS =      -206.92028790
  atomic energy  EATOM  =       596.16534815
  Solvation  Ediel_sol  =         0.00000000
  ---------------------------------------------------
  free energy    TOTEN  =       -36.45620125 eV

  energy without entropy =      -36.45620125  energy(sigma->0) =      -36.45620125


--------------------------------------------------------------------------------------------------------




----------------------------------------- Iteration    1(  12)  ---------------------------------------


    POTLOK:  cpu time   26.9509: real time   27.0142
    SETDIJ:  cpu time    0.0070: real time    0.0064
     EDDAV:  cpu time   86.0259: real time   86.2293
       DOS:  cpu time    0.0000: real time    0.0002
    CHARGE:  cpu time    8.0718: real time    8.0927
    MIXING:  cpu time    1.5338: real time    1.5368
    --------------------------------------------
      LOOP:  cpu time  122.5914: real time  122.8843

 eigenvalue-minimisations  :    96
 total energy-change (2. order) :-0.6546234E-02  (-0.4690028E-03)
 number of electron      16.0000011 magnetization 
 augmentation part        0.4376416 magnetization 

 Broyden mixing:
  rms(total) = 0.48334E-02    rms(broyden)= 0.48250E-02
  rms(prec ) = 0.71539E-02
  weight for this iteration     100.00

 eigenvalues of (default mixing * dielectric matrix)
  average eigenvalue GAMMA=   1.7001
  3.6760  2.2681  1.7858  1.3775  0.7931  0.9163  1.0837

 Free energy of the ion-electron system (eV)
  ---------------------------------------------------
  alpha Z        PSCENC =         0.04144063
  Ewald energy   TEWEN  =       678.61405715
  -Hartree energ DENC   =     -1158.28722235
  -exchange      EXHF   =         0.00000000
  -V(xc)+E(xc)   XCENC  =        55.00369425
  PAW double counting   =      1375.11484807    -1377.91854188
  entropy T*S    EENTRO =         0.00000000
  eigenvalues    EBANDS =      -205.19637151
  atomic energy  EATOM  =       596.16534815
  Solvation  Ediel_sol  =         0.00000000
  ---------------------------------------------------
  free energy    TOTEN  =       -36.46274749 eV

  energy without entropy =      -36.46274749  energy(sigma->0) =      -36.46274749


--------------------------------------------------------------------------------------------------------




----------------------------------------- Iteration    1(  13)  ---------------------------------------


    POTLOK:  cpu time   26.6280: real time   26.6889
    SETDIJ:  cpu time    0.0060: real time    0.0066
     EDDAV:  cpu time  123.3283: real time  123.6185
       DOS:  cpu time    0.0000: real time    0.0002
    CHARGE:  cpu time    7.9578: real time    7.9772
    MIXING:  cpu time    1.4238: real time    1.4264
    --------------------------------------------
      LOOP:  cpu time  159.3458: real time  159.7224

 eigenvalue-minimisations  :   148
 total energy-change (2. order) :-0.4014239E-02  (-0.1209249E-03)
 number of electron      16.0000011 magnetization 
 augmentation part        0.4374798 magnetization 

 Broyden mixing:
  rms(total) = 0.35771E-02    rms(broyden)= 0.35752E-02
  rms(prec ) = 0.52711E-02
  weight for this iteration     100.00

 eigenvalues of (default mixing * dielectric matrix)
  average eigenvalue GAMMA=   1.7368
  4.2425  2.4039  1.5412  1.5412  1.5475  0.7984  0.9252  0.8948

 Free energy of the ion-electron system (eV)
  ---------------------------------------------------
  alpha Z        PSCENC =         0.04144063
  Ewald energy   TEWEN  =       678.61405715
  -Hartree energ DENC   =     -1158.73280790
  -exchange      EXHF   =         0.00000000
  -V(xc)+E(xc)   XCENC  =        55.01007978
  PAW double counting   =      1375.90390067    -1378.70841489
  entropy T*S    EENTRO =         0.00000000
  eigenvalues    EBANDS =      -204.76036531
  atomic energy  EATOM  =       596.16534815
  Solvation  Ediel_sol  =         0.00000000
  ---------------------------------------------------
  free energy    TOTEN  =       -36.46676173 eV

  energy without entropy =      -36.46676173  energy(sigma->0) =      -36.46676173


--------------------------------------------------------------------------------------------------------




----------------------------------------- Iteration    1(  14)  ---------------------------------------


    POTLOK:  cpu time   26.1430: real time   26.2020
    SETDIJ:  cpu time    0.0060: real time    0.0065
     EDDAV:  cpu time   99.3209: real time   99.5472
       DOS:  cpu time    0.0000: real time    0.0002
    CHARGE:  cpu time    7.8088: real time    7.8262
    MIXING:  cpu time    1.3738: real time    1.3769
    --------------------------------------------
      LOOP:  cpu time  134.6535: real time  134.9632

 eigenvalue-minimisations  :   116
 total energy-change (2. order) :-0.4266509E-02  (-0.5866115E-04)
 number of electron      16.0000011 magnetization 
 augmentation part        0.4375614 magnetization 

 Broyden mixing:
  rms(total) = 0.25115E-02    rms(broyden)= 0.25110E-02
  rms(prec ) = 0.35245E-02
  weight for this iteration     100.00

 eigenvalues of (default mixing * dielectric matrix)
  average eigenvalue GAMMA=   1.8622
  5.1415  2.7778  2.3166  1.5291  1.3991  0.8021  0.8997  0.9468  0.9468

 Free energy of the ion-electron system (eV)
  ---------------------------------------------------
  alpha Z        PSCENC =         0.04144063
  Ewald energy   TEWEN  =       678.61405715
  -Hartree energ DENC   =     -1158.92125136
  -exchange      EXHF   =         0.00000000
  -V(xc)+E(xc)   XCENC  =        55.00242405
  PAW double counting   =      1373.87221865    -1376.67655273
  entropy T*S    EENTRO =         0.00000000
  eigenvalues    EBANDS =      -204.56871277
  atomic energy  EATOM  =       596.16534815
  Solvation  Ediel_sol  =         0.00000000
  ---------------------------------------------------
  free energy    TOTEN  =       -36.47102823 eV

  energy without entropy =      -36.47102823  energy(sigma->0) =      -36.47102823


--------------------------------------------------------------------------------------------------------




----------------------------------------- Iteration    1(  15)  ---------------------------------------


    POTLOK:  cpu time   25.9281: real time   25.9859
    SETDIJ:  cpu time    0.0060: real time    0.0065
     EDDAV:  cpu time  104.5721: real time  104.8056
       DOS:  cpu time    0.0000: real time    0.0002
    CHARGE:  cpu time    7.2369: real time    7.2537
    MIXING:  cpu time    1.5888: real time    1.5918
    --------------------------------------------
      LOOP:  cpu time  139.3338: real time  139.6481

 eigenvalue-minimisations  :   128
 total energy-change (2. order) :-0.3086602E-02  (-0.3039659E-04)
 number of electron      16.0000011 magnetization 
 augmentation part        0.4375129 magnetization 

 Broyden mixing:
  rms(total) = 0.15527E-02    rms(broyden)= 0.15526E-02
  rms(prec ) = 0.21416E-02
  weight for this iteration     100.00

 eigenvalues of (default mixing * dielectric matrix)
  average eigenvalue GAMMA=   1.9387
  5.9636  3.0098  2.3153  1.5792  1.4107  1.4107  0.7998  0.9072  0.9951  0.9951

 Free energy of the ion-electron system (eV)
  ---------------------------------------------------
  alpha Z        PSCENC =         0.04144063
  Ewald energy   TEWEN  =       678.61405715
  -Hartree energ DENC   =     -1159.04978615
  -exchange      EXHF   =         0.00000000
  -V(xc)+E(xc)   XCENC  =        54.99874774
  PAW double counting   =      1373.98607538    -1376.79101996
  entropy T*S    EENTRO =         0.00000000
  eigenvalues    EBANDS =      -204.43897778
  atomic energy  EATOM  =       596.16534815
  Solvation  Ediel_sol  =         0.00000000
  ---------------------------------------------------
  free energy    TOTEN  =       -36.47411484 eV

  energy without entropy =      -36.47411484  energy(sigma->0) =      -36.47411484


--------------------------------------------------------------------------------------------------------




----------------------------------------- Iteration    1(  16)  ---------------------------------------


    POTLOK:  cpu time   24.9642: real time   25.0187
    SETDIJ:  cpu time    0.0070: real time    0.0065
     EDDAV:  cpu time   80.8157: real time   80.9918
       DOS:  cpu time    0.0000: real time    0.0002
    CHARGE:  cpu time    7.4019: real time    7.4191
    MIXING:  cpu time    1.6787: real time    1.6815
    --------------------------------------------
      LOOP:  cpu time  114.8685: real time  115.1219

 eigenvalue-minimisations  :    96
 total energy-change (2. order) :-0.2017218E-02  (-0.1664979E-04)
 number of electron      16.0000011 magnetization 
 augmentation part        0.4374537 magnetization 

 Broyden mixing:
  rms(total) = 0.81779E-03    rms(broyden)= 0.81718E-03
  rms(prec ) = 0.11656E-02
  weight for this iteration     100.00

 eigenvalues of (default mixing * dielectric matrix)
  average eigenvalue GAMMA=   2.0928
  7.1102  3.5163  2.5072  2.2071  1.5161  1.2584  1.2584  0.7991  0.8992  0.9745
  0.9745

 Free energy of the ion-electron system (eV)
  ---------------------------------------------------
  alpha Z        PSCENC =         0.04144063
  Ewald energy   TEWEN  =       678.61405715
  -Hartree energ DENC   =     -1159.11398793
  -exchange      EXHF   =         0.00000000
  -V(xc)+E(xc)   XCENC  =        54.99647088
  PAW double counting   =      1374.23892311    -1377.04378501
  entropy T*S    EENTRO =         0.00000000
  eigenvalues    EBANDS =      -204.37459903
  atomic energy  EATOM  =       596.16534815
  Solvation  Ediel_sol  =         0.00000000
  ---------------------------------------------------
  free energy    TOTEN  =       -36.47613205 eV

  energy without entropy =      -36.47613205  energy(sigma->0) =      -36.47613205


--------------------------------------------------------------------------------------------------------




----------------------------------------- Iteration    1(  17)  ---------------------------------------


    POTLOK:  cpu time   25.4771: real time   25.5327
    SETDIJ:  cpu time    0.0060: real time    0.0064
     EDDAV:  cpu time   82.1855: real time   82.3658
       DOS:  cpu time    0.0000: real time    0.0002
    CHARGE:  cpu time    7.4729: real time    7.4898
    MIXING:  cpu time    1.8287: real time    1.8330
    --------------------------------------------
      LOOP:  cpu time  116.9722: real time  117.2320

 eigenvalue-minimisations  :    96
 total energy-change (2. order) :-0.1190969E-02  (-0.1276391E-04)
 number of electron      16.0000011 magnetization 
 augmentation part        0.4374386 magnetization 

 Broyden mixing:
  rms(total) = 0.54689E-03    rms(broyden)= 0.54666E-03
  rms(prec ) = 0.69739E-03
  weight for this iteration     100.00

 eigenvalues of (default mixing * dielectric matrix)
  average eigenvalue GAMMA=   2.1440
  7.7019  4.1672  2.4650  2.2268  1.6175  1.4070  1.4070  0.8000  0.9029  0.9553
  1.0389  1.0389

 Free energy of the ion-electron system (eV)
  ---------------------------------------------------
  alpha Z        PSCENC =         0.04144063
  Ewald energy   TEWEN  =       678.61405715
  -Hartree energ DENC   =     -1159.14031256
  -exchange      EXHF   =         0.00000000
  -V(xc)+E(xc)   XCENC  =        54.99473607
  PAW double counting   =      1374.67784921    -1377.48249248
  entropy T*S    EENTRO =         0.00000000
  eigenvalues    EBANDS =      -204.34794919
  atomic energy  EATOM  =       596.16534815
  Solvation  Ediel_sol  =         0.00000000
  ---------------------------------------------------
  free energy    TOTEN  =       -36.47732302 eV

  energy without entropy =      -36.47732302  energy(sigma->0) =      -36.47732302


--------------------------------------------------------------------------------------------------------




----------------------------------------- Iteration    1(  18)  ---------------------------------------


    POTLOK:  cpu time   25.1642: real time   25.2197
    SETDIJ:  cpu time    0.0070: real time    0.0066
     EDDAV:  cpu time   81.6556: real time   81.8338
       DOS:  cpu time    0.0000: real time    0.0002
    CHARGE:  cpu time    7.5169: real time    7.5332
    MIXING:  cpu time    2.0717: real time    2.0766
    --------------------------------------------
      LOOP:  cpu time  116.4163: real time  116.6744

 eigenvalue-minimisations  :    96
 total energy-change (2. order) :-0.4730570E-03  (-0.4649451E-05)
 number of electron      16.0000011 magnetization 
 augmentation part        0.4374392 magnetization 

 Broyden mixing:
  rms(total) = 0.28209E-03    rms(broyden)= 0.28202E-03
  rms(prec ) = 0.37649E-03
  weight for this iteration     100.00

 eigenvalues of (default mixing * dielectric matrix)
  average eigenvalue GAMMA=   2.1784
  8.1329  4.3225  2.5766  2.5766  1.9694  1.6020  1.2782  1.2782  0.7999  0.9699
  0.9699  0.9489  0.8949

 Free energy of the ion-electron system (eV)
  ---------------------------------------------------
  alpha Z        PSCENC =         0.04144063
  Ewald energy   TEWEN  =       678.61405715
  -Hartree energ DENC   =     -1159.12496871
  -exchange      EXHF   =         0.00000000
  -V(xc)+E(xc)   XCENC  =        54.99317715
  PAW double counting   =      1374.63468766    -1377.43938772
  entropy T*S    EENTRO =         0.00000000
  eigenvalues    EBANDS =      -204.36215039
  atomic energy  EATOM  =       596.16534815
  Solvation  Ediel_sol  =         0.00000000
  ---------------------------------------------------
  free energy    TOTEN  =       -36.47779608 eV

  energy without entropy =      -36.47779608  energy(sigma->0) =      -36.47779608


--------------------------------------------------------------------------------------------------------




----------------------------------------- Iteration    1(  19)  ---------------------------------------


    POTLOK:  cpu time   24.5933: real time   24.6464
    SETDIJ:  cpu time    0.0060: real time    0.0065
     EDDAV:  cpu time   67.3508: real time   67.4970
       DOS:  cpu time    0.0000: real time    0.0002
    CHARGE:  cpu time    7.7138: real time    7.7313
    MIXING:  cpu time    2.2827: real time    2.2876
    --------------------------------------------
      LOOP:  cpu time  101.9485: real time  102.1737

 eigenvalue-minimisations  :    76
 total energy-change (2. order) :-0.2556205E-03  (-0.1733894E-05)
 number of electron      16.0000011 magnetization 
 augmentation part        0.4374462 magnetization 

 Broyden mixing:
  rms(total) = 0.26538E-03    rms(broyden)= 0.26533E-03
  rms(prec ) = 0.30627E-03
  weight for this iteration     100.00

 eigenvalues of (default mixing * dielectric matrix)
  average eigenvalue GAMMA=   2.2312
  8.4778  5.0305  2.9140  2.5262  2.1550  1.5509  1.4434  1.4434  1.0633  1.0633
  0.7995  0.9333  0.9333  0.9021

 Free energy of the ion-electron system (eV)
  ---------------------------------------------------
  alpha Z        PSCENC =         0.04144063
  Ewald energy   TEWEN  =       678.61405715
  -Hartree energ DENC   =     -1159.11689686
  -exchange      EXHF   =         0.00000000
  -V(xc)+E(xc)   XCENC  =        54.99229143
  PAW double counting   =      1374.39539556    -1377.19999864
  entropy T*S    EENTRO =         0.00000000
  eigenvalues    EBANDS =      -204.36968912
  atomic energy  EATOM  =       596.16534815
  Solvation  Ediel_sol  =         0.00000000
  ---------------------------------------------------
  free energy    TOTEN  =       -36.47805170 eV

  energy without entropy =      -36.47805170  energy(sigma->0) =      -36.47805170


--------------------------------------------------------------------------------------------------------




----------------------------------------- Iteration    1(  20)  ---------------------------------------


    POTLOK:  cpu time   24.8642: real time   24.9193
    SETDIJ:  cpu time    0.0070: real time    0.0065
     EDDAV:  cpu time   75.5635: real time   75.7256
       DOS:  cpu time    0.0000: real time    0.0002
    CHARGE:  cpu time    6.2700: real time    6.2831
    MIXING:  cpu time    2.0367: real time    2.0407
    --------------------------------------------
      LOOP:  cpu time  108.7445: real time  108.9798

 eigenvalue-minimisations  :    96
 total energy-change (2. order) :-0.1102736E-03  (-0.7244432E-06)
 number of electron      16.0000011 magnetization 
 augmentation part        0.4374402 magnetization 

 Broyden mixing:
  rms(total) = 0.92942E-04    rms(broyden)= 0.92863E-04
  rms(prec ) = 0.12627E-03
  weight for this iteration     100.00

 eigenvalues of (default mixing * dielectric matrix)
  average eigenvalue GAMMA=   2.2617
  8.7175  5.3108  3.3403  2.4136  2.4136  1.7645  1.7645  1.3448  1.3448  0.9796
  0.9796  0.7993  0.9230  0.9149  0.9149

 Free energy of the ion-electron system (eV)
  ---------------------------------------------------
  alpha Z        PSCENC =         0.04144063
  Ewald energy   TEWEN  =       678.61405715
  -Hartree energ DENC   =     -1159.11734800
  -exchange      EXHF   =         0.00000000
  -V(xc)+E(xc)   XCENC  =        54.99219588
  PAW double counting   =      1374.41101278    -1377.21561711
  entropy T*S    EENTRO =         0.00000000
  eigenvalues    EBANDS =      -204.36925146
  atomic energy  EATOM  =       596.16534815
  Solvation  Ediel_sol  =         0.00000000
  ---------------------------------------------------
  free energy    TOTEN  =       -36.47816197 eV

  energy without entropy =      -36.47816197  energy(sigma->0) =      -36.47816197


--------------------------------------------------------------------------------------------------------




----------------------------------------- Iteration    1(  21)  ---------------------------------------


    POTLOK:  cpu time   21.4217: real time   21.4664
    SETDIJ:  cpu time    0.0060: real time    0.0064
     EDDAV:  cpu time   56.7604: real time   56.8746
       DOS:  cpu time    0.0000: real time    0.0002
    --------------------------------------------
      LOOP:  cpu time   78.1891: real time   78.3512

 eigenvalue-minimisations  :    80
 total energy-change (2. order) :-0.7689003E-04  (-0.2599319E-06)
 number of electron      16.0000011 magnetization 
 augmentation part        0.4374402 magnetization 

 Free energy of the ion-electron system (eV)
  ---------------------------------------------------
  alpha Z        PSCENC =         0.04144063
  Ewald energy   TEWEN  =       678.61405715
  -Hartree energ DENC   =     -1159.12000682
  -exchange      EXHF   =         0.00000000
  -V(xc)+E(xc)   XCENC  =        54.99214693
  PAW double counting   =      1374.42237142    -1377.22701470
  entropy T*S    EENTRO =         0.00000000
  eigenvalues    EBANDS =      -204.36658163
  atomic energy  EATOM  =       596.16534815
  Solvation  Ediel_sol  =         0.00000000
  ---------------------------------------------------
  free energy    TOTEN  =       -36.47823886 eV

  energy without entropy =      -36.47823886  energy(sigma->0) =      -36.47823886


--------------------------------------------------------------------------------------------------------




 average (electrostatic) potential at core
  the test charge radii are     0.5201  0.6991  0.7089
  (the norm of the test charge is              1.0000)
       1 -43.1324       2 -43.1319       3 -43.0995       4 -60.0368       5 -60.0542
       6 -73.2644
 
 
 
 E-fermi :  -6.9635     XC(G=0):  -0.0887     alpha+bet : -0.0137


 k-point     1 :       0.2500    0.2500    0.2500
  band No.  band energies     occupation 
      1     -22.6146      2.00000
      2     -19.2894      2.00000
      3     -12.6951      2.00000
      4     -11.4982      2.00000
      5     -11.4495      2.00000
      6      -8.6136      2.00000
      7      -8.1145      2.00000
      8      -7.9084      2.00000
      9      -1.3514      0.00000
     10      -0.4622      0.00000
     11      -0.4409      0.00000
     12      -0.0054      0.00000

 k-point     2 :      -0.2500    0.2500    0.2500
  band No.  band energies     occupation 
      1     -22.6146      2.00000
      2     -19.2894      2.00000
      3     -12.6951      2.00000
      4     -11.4982      2.00000
      5     -11.4495      2.00000
      6      -8.6136      2.00000
      7      -8.1145      2.00000
      8      -7.9084      2.00000
      9      -1.3514      0.00000
     10      -0.4622      0.00000
     11      -0.4409      0.00000
     12      -0.0085      0.00000

 k-point     3 :       0.2500   -0.2500    0.2500
  band No.  band energies     occupation 
      1     -22.6146      2.00000
      2     -19.2894      2.00000
      3     -12.6951      2.00000
      4     -11.4982      2.00000
      5     -11.4495      2.00000
      6      -8.6136      2.00000
      7      -8.1145      2.00000
      8      -7.9083      2.00000
      9      -1.3514      0.00000
     10      -0.4622      0.00000
     11      -0.4410      0.00000
     12      -0.0062      0.00000

 k-point     4 :      -0.2500   -0.2500    0.2500
  band No.  band energies     occupation 
      1     -22.6146      2.00000
      2     -19.2894      2.00000
      3     -12.6951      2.00000
      4     -11.4982      2.00000
      5     -11.4495      2.00000
      6      -8.6136      2.00000
      7      -8.1145      2.00000
      8      -7.9083      2.00000
      9      -1.3514      0.00000
     10      -0.4622      0.00000
     11      -0.4410      0.00000
     12      -0.0064      0.00000


--------------------------------------------------------------------------------------------------------


 soft charge-density along one line, spin component           1
         0         1         2         3         4         5         6         7         8         9
 total charge-density along one line
 
 pseudopotential strength for first ion, spin component:           1
 -2.364  -4.077  -0.002   0.000  -0.001
 -4.077  -6.946  -0.005   0.001  -0.002
 -0.002  -0.005  -0.330  -0.001   0.002
  0.000   0.001  -0.001  -0.334   0.000
 -0.001  -0.002   0.002   0.000  -0.333
 total augmentation occupancy for first ion, spin component:           1
  3.496  -0.630   0.394  -0.093   0.174
 -0.630   0.129  -0.073   0.017  -0.032
  0.394  -0.073   0.046  -0.009   0.017
 -0.093   0.017  -0.009   0.011  -0.004
  0.174  -0.032   0.017  -0.004   0.015


------------------------ aborting loop because EDIFF is reached ----------------------------------------


    CHARGE:  cpu time    5.2462: real time    5.2562
    FORLOC:  cpu time    2.3606: real time    2.3658
    FORNL :  cpu time   16.1705: real time   16.2020
    STRESS:  cpu time   48.2177: real time   48.3083
    FORCOR:  cpu time   18.1082: real time   18.1428
    FORHAR:  cpu time    6.9339: real time    6.9466
    MIXING:  cpu time    1.1058: real time    1.1082
    OFIELD:  cpu time    0.0000: real time    0.0000

  FORCE on cell =-STRESS in cart. coord.  units (eV):
  Direction    XX          YY          ZZ          XY          YZ          ZX
  --------------------------------------------------------------------------------------
  Alpha Z     0.04144     0.04144     0.04144
  Ewald     529.55636    58.96482    90.09261    84.57372    32.52288   144.35246
  Hartree   559.48128   292.89624   306.74141    38.58668    13.31394    69.96095
  E(xc)     -59.22197   -60.27480   -60.18113     0.25818     0.10113     0.40979
  Local   -1239.10145  -522.24203  -564.46275  -116.17758   -42.62686  -203.90081
  n-local   -27.26397   -25.03452   -25.45560    -1.21184    -0.51019    -1.69235
  augment     0.48409     0.37145     0.35354    -0.01327    -0.02867    -0.01765
  Kinetic   236.48704   254.15884   251.72013    -6.03991    -2.89000    -9.00112
  Fock        0.00000     0.00000     0.00000     0.00000     0.00000     0.00000
  -------------------------------------------------------------------------------------
  Total       0.46280    -1.11856    -1.15034    -0.02402    -0.11777     0.11126
  in kB       0.02746    -0.06637    -0.06826    -0.00143    -0.00699     0.00660
  external pressure =       -0.04 kB  Pullay stress =        0.00 kB


 VOLUME and BASIS-vectors are now :
 -----------------------------------------------------------------------------
  energy-cutoff  :      400.00
  volume of cell :    27000.00
      direct lattice vectors                 reciprocal lattice vectors
    30.000000000  0.000000000  0.000000000     0.033333333  0.000000000  0.000000000
     0.000000000 30.000000000  0.000000000     0.000000000  0.033333333  0.000000000
     0.000000000  0.000000000 30.000000000     0.000000000  0.000000000  0.033333333

  length of vectors
    30.000000000 30.000000000 30.000000000     0.033333333  0.033333333  0.033333333


 FORCES acting on ions
    electron-ion (+dipol)            ewald-force                    non-local-force                 convergence-correction
 -----------------------------------------------------------------------------------------------
   0.343E+02 0.543E+02 -.101E+02   -.366E+02 -.593E+02 0.112E+02   0.224E+01 0.503E+01 -.120E+01   -.107E-03 -.404E-03 0.119E-03
   0.292E+02 -.179E+02 0.553E+02   -.310E+02 0.196E+02 -.604E+02   0.178E+01 -.183E+01 0.504E+01   -.704E-04 0.162E-03 -.397E-03
   0.334E+02 -.388E+02 -.400E+02   -.353E+02 0.424E+02 0.437E+02   0.158E+01 -.364E+01 -.389E+01   -.260E-04 0.287E-03 0.316E-03
   0.984E+02 0.113E+02 0.218E+02   -.103E+03 -.114E+02 -.224E+02   0.473E+01 0.203E+00 0.635E+00   0.818E-03 0.665E-04 0.145E-03
   0.396E+02 0.555E+02 0.715E+02   -.412E+02 -.570E+02 -.735E+02   0.139E+01 0.205E+01 0.263E+01   0.203E-02 0.295E-03 0.532E-03
   -.213E+03 -.543E+02 -.843E+02   0.247E+03 0.658E+02 0.101E+03   -.340E+02 -.119E+02 -.175E+02   -.120E-02 -.512E-03 -.729E-03
 -----------------------------------------------------------------------------------------------
   0.222E+02 0.101E+02 0.142E+02   -.284E-13 0.000E+00 -.142E-13   -.222E+02 -.101E+02 -.142E+02   0.144E-02 -.105E-03 -.129E-04
 
 
 POSITION                                       TOTAL-FORCE (eV/Angst)
 -----------------------------------------------------------------------------------
     14.09400     13.93054     15.09137         0.003108     -0.030499     -0.108730
     14.18476     15.26565     13.87914         0.013377     -0.098781     -0.057772
     14.19998     15.63502     15.63148        -0.361521     -0.092588     -0.133372
     14.52206     14.91445     14.86173        -0.062285      0.041847      0.041987
     15.96674     14.94191     15.01409        -0.287090      0.547438      0.649707
     16.98121     15.26252     15.49180         0.694411     -0.367417     -0.391821
 -----------------------------------------------------------------------------------
    total drift:                               -0.001353     -0.005723     -0.007441


--------------------------------------------------------------------------------------------------------



  FREE ENERGIE OF THE ION-ELECTRON SYSTEM (eV)
  ---------------------------------------------------
  free  energy   TOTEN  =       -36.47823886 eV

  energy  without entropy=      -36.47823886  energy(sigma->0) =      -36.47823886
 


--------------------------------------------------------------------------------------------------------


    POTLOK:  cpu time   16.7295: real time   16.7590


--------------------------------------------------------------------------------------------------------


 NEB: the previous image is higher in energy: T
 NEB: the next image is higher in energy    : F
 NEB: only prev energy greater

 NEB: Tangent
 ----------------------------------------------
     -0.07749      0.01236     -0.12886
     -0.03605     -0.05442     -0.01700
     -0.33066     -0.02360     -0.03629
     -0.03500      0.04395      0.03188
     -0.11762      0.34359      0.41918
      0.60899     -0.33120     -0.26293

 NEB: forces: par spring, perp REAL, dneb     0.227503    0.305915    0.000000
 NEB: distance to prev, next image, angle between     0.268154    0.313654  148.347832
 NEB: projections on to tangent (spring, REAL)     0.227503    1.293004

 stress matrix after NEB project (eV)
      0.46280     -0.02402      0.11126
     -0.02402     -1.11856     -0.11777
      0.11126     -0.11777     -1.15034
  FORCES: max atom, RMS     0.316684    0.155639
  FORCE total and by dimension    0.381237    0.203071
  Stress total and by dimension    1.685910    1.150341
 
 OPT: Flag T
 OPT: FIRE Step
 OPT: FIRE, TIMESTEP      0.10000
 OPT: FIRE, alpha         0.10000


--------------------------------------------------------------------------------------------------------


    WAVPRE:  cpu time    7.5089: real time    7.5266
 FEWALD executed in parallel
    FEWALD:  cpu time    0.0000: real time    0.0003
    ORTHCH:  cpu time    5.9711: real time    5.9837
     LOOP+:  cpu time 2807.3592: real time 2813.7984


----------------------------------------- Iteration    2(   1)  ---------------------------------------


    POTLOK:  cpu time   22.1156: real time   22.1667
    SETDIJ:  cpu time    0.0060: real time    0.0066
     EDDAV:  cpu time   70.1263: real time   70.2937
       DOS:  cpu time    0.0000: real time    0.0002
    CHARGE:  cpu time    5.8451: real time    5.8589
    MIXING:  cpu time    0.5819: real time    0.5837
    --------------------------------------------
      LOOP:  cpu time   98.6780: real time   98.9123

 eigenvalue-minimisations  :    96
 total energy-change (2. order) :-0.3879952E-02  (-0.2592775E-02)
 number of electron      16.0000011 magnetization 
 augmentation part        0.4376362 magnetization 

 Broyden mixing:
  rms(total) = 0.34422E-02    rms(broyden)= 0.34228E-02
  rms(prec ) = 0.34906E-02
  weight for this iteration     100.00

 Free energy of the ion-electron system (eV)
  ---------------------------------------------------
  alpha Z        PSCENC =         0.04144063
  Ewald energy   TEWEN  =       678.85276568
  -Hartree energ DENC   =     -1159.28874255
  -exchange      EXHF   =         0.00000000
  -V(xc)+E(xc)   XCENC  =        54.99736234
  PAW double counting   =      1374.41863916    -1377.22329049
  entropy T*S    EENTRO =         0.00000000
  eigenvalues    EBANDS =      -204.44556483
  atomic energy  EATOM  =       596.16534815
  Solvation  Ediel_sol  =         0.00000000
  ---------------------------------------------------
  free energy    TOTEN  =       -36.48204193 eV

  energy without entropy =      -36.48204193  energy(sigma->0) =      -36.48204193


--------------------------------------------------------------------------------------------------------




----------------------------------------- Iteration    2(   2)  ---------------------------------------


    POTLOK:  cpu time   19.3341: real time   19.3809
    SETDIJ:  cpu time    0.0070: real time    0.0064
     EDDAV:  cpu time   89.0615: real time   89.2739
       DOS:  cpu time    0.0010: real time    0.0002
    CHARGE:  cpu time    6.0281: real time    6.0424
    MIXING:  cpu time    0.6369: real time    0.6386
    --------------------------------------------
      LOOP:  cpu time  115.0695: real time  115.3470

 eigenvalue-minimisations  :   128
 total energy-change (2. order) :-0.1277503E-04  (-0.2492332E-04)
 number of electron      16.0000011 magnetization 
 augmentation part        0.4376255 magnetization 

 Broyden mixing:
  rms(total) = 0.22219E-02    rms(broyden)= 0.22189E-02
  rms(prec ) = 0.22549E-02
  weight for this iteration     100.00

 eigenvalues of (default mixing * dielectric matrix)
  average eigenvalue GAMMA=   1.6185
  1.6185

 Free energy of the ion-electron system (eV)
  ---------------------------------------------------
  alpha Z        PSCENC =         0.04144063
  Ewald energy   TEWEN  =       678.85276568
  -Hartree energ DENC   =     -1159.31882101
  -exchange      EXHF   =         0.00000000
  -V(xc)+E(xc)   XCENC  =        54.99877266
  PAW double counting   =      1374.81890193    -1377.62382358
  entropy T*S    EENTRO =         0.00000000
  eigenvalues    EBANDS =      -204.41663915
  atomic energy  EATOM  =       596.16534815
  Solvation  Ediel_sol  =         0.00000000
  ---------------------------------------------------
  free energy    TOTEN  =       -36.48205470 eV

  energy without entropy =      -36.48205470  energy(sigma->0) =      -36.48205470


--------------------------------------------------------------------------------------------------------




----------------------------------------- Iteration    2(   3)  ---------------------------------------


    POTLOK:  cpu time   19.4990: real time   19.5455
[...]
  Solvation  Ediel_sol  =         0.00000000
  ---------------------------------------------------
  free energy    TOTEN  =       -36.57131647 eV

  energy without entropy =      -36.57131647  energy(sigma->0) =      -36.57131647


--------------------------------------------------------------------------------------------------------




----------------------------------------- Iteration   28(   2)  ---------------------------------------


    POTLOK:  cpu time   23.5384: real time   23.6002
    SETDIJ:  cpu time    0.0070: real time    0.0065
     EDDAV:  cpu time   96.9543: real time  101.4880
       DOS:  cpu time    0.0010: real time    0.0002
    CHARGE:  cpu time    7.4109: real time    8.7981
    MIXING:  cpu time    0.6569: real time    0.8498
    --------------------------------------------
      LOOP:  cpu time  128.5705: real time  134.7575

 eigenvalue-minimisations  :   128
 total energy-change (2. order) :-0.1994722E-04  (-0.4323552E-04)
 number of electron      16.0000011 magnetization 
 augmentation part        0.4384546 magnetization 

 Broyden mixing:
  rms(total) = 0.31365E-02    rms(broyden)= 0.31324E-02
  rms(prec ) = 0.31796E-02
  weight for this iteration     100.00

 eigenvalues of (default mixing * dielectric matrix)
  average eigenvalue GAMMA=   1.8120
  1.8120

 Free energy of the ion-electron system (eV)
  ---------------------------------------------------
  alpha Z        PSCENC =         0.04144063
  Ewald energy   TEWEN  =       677.92867598
  -Hartree energ DENC   =     -1158.32297997
  -exchange      EXHF   =         0.00000000
  -V(xc)+E(xc)   XCENC  =        55.02007443
  PAW double counting   =      1381.06275801    -1383.86929875
  entropy T*S    EENTRO =         0.00000000
  eigenvalues    EBANDS =      -204.59735490
  atomic energy  EATOM  =       596.16534815
  Solvation  Ediel_sol  =         0.00000000
  ---------------------------------------------------
  free energy    TOTEN  =       -36.57133641 eV

  energy without entropy =      -36.57133641  energy(sigma->0) =      -36.57133641


--------------------------------------------------------------------------------------------------------




----------------------------------------- Iteration   28(   3)  ---------------------------------------


    POTLOK:  cpu time   24.2583: real time   28.8439
    SETDIJ:  cpu time    0.0070: real time    0.0068
     EDDAV:  cpu time   67.0358: real time   74.2602
       DOS:  cpu time    0.0000: real time    0.0002
    CHARGE:  cpu time    6.3950: real time    7.8129
    MIXING:  cpu time    1.0328: real time    1.0745
    --------------------------------------------
      LOOP:  cpu time   98.7310: real time  112.0133

 eigenvalue-minimisations  :    80
 total energy-change (2. order) :-0.4625856E-05  (-0.1494045E-05)
 number of electron      16.0000011 magnetization 
 augmentation part        0.4384685 magnetization 

 Broyden mixing:
  rms(total) = 0.81858E-03    rms(broyden)= 0.81795E-03
  rms(prec ) = 0.83025E-03
  weight for this iteration     100.00

 eigenvalues of (default mixing * dielectric matrix)
  average eigenvalue GAMMA=   1.6851
  0.9708  2.3994

 Free energy of the ion-electron system (eV)
  ---------------------------------------------------
  alpha Z        PSCENC =         0.04144063
  Ewald energy   TEWEN  =       677.92867598
  -Hartree energ DENC   =     -1158.32294597
  -exchange      EXHF   =         0.00000000
  -V(xc)+E(xc)   XCENC  =        55.02009391
  PAW double counting   =      1381.27898684    -1384.08554613
  entropy T*S    EENTRO =         0.00000000
  eigenvalues    EBANDS =      -204.59739446
  atomic energy  EATOM  =       596.16534815
  Solvation  Ediel_sol  =         0.00000000
  ---------------------------------------------------
  free energy    TOTEN  =       -36.57134104 eV

  energy without entropy =      -36.57134104  energy(sigma->0) =      -36.57134104


--------------------------------------------------------------------------------------------------------




----------------------------------------- Iteration   28(   4)  ---------------------------------------


    POTLOK:  cpu time   25.1192: real time   28.1771
    SETDIJ:  cpu time    0.0060: real time    0.0064
     EDDAV:  cpu time   47.6608: real time   50.5019
       DOS:  cpu time    0.0000: real time    0.0002
    CHARGE:  cpu time    6.5690: real time    6.6048
    MIXING:  cpu time    0.9669: real time    0.9697
    --------------------------------------------
      LOOP:  cpu time   80.3248: real time   86.2744

 eigenvalue-minimisations  :    48
 total energy-change (2. order) :-0.1897702E-05  (-0.4328581E-06)
 number of electron      16.0000011 magnetization 
 augmentation part        0.4384758 magnetization 

 Broyden mixing:
  rms(total) = 0.23451E-03    rms(broyden)= 0.23433E-03
  rms(prec ) = 0.24146E-03
  weight for this iteration     100.00

 eigenvalues of (default mixing * dielectric matrix)
  average eigenvalue GAMMA=   1.7264
  1.0820  2.4059  1.6913

 Free energy of the ion-electron system (eV)
  ---------------------------------------------------
  alpha Z        PSCENC =         0.04144063
  Ewald energy   TEWEN  =       677.92867598
  -Hartree energ DENC   =     -1158.32259871
  -exchange      EXHF   =         0.00000000
  -V(xc)+E(xc)   XCENC  =        55.02007820
  PAW double counting   =      1381.33799943    -1384.14460068
  entropy T*S    EENTRO =         0.00000000
  eigenvalues    EBANDS =      -204.59768593
  atomic energy  EATOM  =       596.16534815
  Solvation  Ediel_sol  =         0.00000000
  ---------------------------------------------------
  free energy    TOTEN  =       -36.57134294 eV

  energy without entropy =      -36.57134294  energy(sigma->0) =      -36.57134294


--------------------------------------------------------------------------------------------------------




----------------------------------------- Iteration   28(   5)  ---------------------------------------


    POTLOK:  cpu time   28.3617: real time   30.6033
    SETDIJ:  cpu time    0.0070: real time    0.0070
     EDDAV:  cpu time   44.5752: real time   48.9678
       DOS:  cpu time    0.0000: real time    0.0002
    CHARGE:  cpu time    6.5770: real time    8.0104
    MIXING:  cpu time    1.0798: real time    1.2888
    --------------------------------------------
      LOOP:  cpu time   80.6027: real time   88.8864

 eigenvalue-minimisations  :    48
 total energy-change (2. order) :-0.7010854E-06  (-0.8160338E-07)
 number of electron      16.0000011 magnetization 
 augmentation part        0.4384724 magnetization 

 Broyden mixing:
  rms(total) = 0.77510E-04    rms(broyden)= 0.77469E-04
  rms(prec ) = 0.82363E-04
  weight for this iteration     100.00

 eigenvalues of (default mixing * dielectric matrix)
  average eigenvalue GAMMA=   1.6253
  2.4688  2.0950  0.8577  1.0795

 Free energy of the ion-electron system (eV)
  ---------------------------------------------------
  alpha Z        PSCENC =         0.04144063
  Ewald energy   TEWEN  =       677.92867598
  -Hartree energ DENC   =     -1158.32329085
  -exchange      EXHF   =         0.00000000
  -V(xc)+E(xc)   XCENC  =        55.02012444
  PAW double counting   =      1381.31479909    -1384.12144370
  entropy T*S    EENTRO =         0.00000000
  eigenvalues    EBANDS =      -204.59699738
  atomic energy  EATOM  =       596.16534815
  Solvation  Ediel_sol  =         0.00000000
  ---------------------------------------------------
  free energy    TOTEN  =       -36.57134364 eV

  energy without entropy =      -36.57134364  energy(sigma->0) =      -36.57134364


--------------------------------------------------------------------------------------------------------




----------------------------------------- Iteration   28(   6)  ---------------------------------------


    POTLOK:  cpu time   24.9892: real time   26.6628
    SETDIJ:  cpu time    0.0070: real time    0.0066
     EDDAV:  cpu time   42.2226: real time   42.3152
       DOS:  cpu time    0.0000: real time    0.0002
    --------------------------------------------
      LOOP:  cpu time   67.2188: real time   68.9945

 eigenvalue-minimisations  :    48
 total energy-change (2. order) :-0.5532899E-06  (-0.2457572E-07)
 number of electron      16.0000011 magnetization 
 augmentation part        0.4384724 magnetization 

 Free energy of the ion-electron system (eV)
  ---------------------------------------------------
  alpha Z        PSCENC =         0.04144063
  Ewald energy   TEWEN  =       677.92867598
  -Hartree energ DENC   =     -1158.32328057
  -exchange      EXHF   =         0.00000000
  -V(xc)+E(xc)   XCENC  =        55.02012073
  PAW double counting   =      1381.30742050    -1384.11407470
  entropy T*S    EENTRO =         0.00000000
  eigenvalues    EBANDS =      -204.59699490
  atomic energy  EATOM  =       596.16534815
  Solvation  Ediel_sol  =         0.00000000
  ---------------------------------------------------
  free energy    TOTEN  =       -36.57134419 eV

  energy without entropy =      -36.57134419  energy(sigma->0) =      -36.57134419


--------------------------------------------------------------------------------------------------------




 average (electrostatic) potential at core
  the test charge radii are     0.5201  0.6991  0.7089
  (the norm of the test charge is              1.0000)
       1 -43.1657       2 -43.1642       3 -43.1606       4 -60.0498       5 -60.0533
       6 -73.2305
 
 
 
 E-fermi :  -7.0203     XC(G=0):  -0.0593     alpha+bet : -0.0137


 k-point     1 :       0.2500    0.2500    0.2500
  band No.  band energies     occupation 
      1     -22.5805      2.00000
      2     -19.3640      2.00000
      3     -12.7451      2.00000
      4     -11.5175      2.00000
      5     -11.4887      2.00000
      6      -8.5510      2.00000
      7      -8.0992      2.00000
      8      -7.9525      2.00000
      9      -1.1176      0.00000
     10      -0.4597      0.00000
     11      -0.4340      0.00000
     12       0.0253      0.00000

 k-point     2 :      -0.2500    0.2500    0.2500
  band No.  band energies     occupation 
      1     -22.5805      2.00000
      2     -19.3639      2.00000
      3     -12.7451      2.00000
      4     -11.5175      2.00000
      5     -11.4887      2.00000
      6      -8.5510      2.00000
      7      -8.0992      2.00000
      8      -7.9525      2.00000
      9      -1.1176      0.00000
     10      -0.4597      0.00000
     11      -0.4340      0.00000
     12       0.0216      0.00000

 k-point     3 :       0.2500   -0.2500    0.2500
  band No.  band energies     occupation 
      1     -22.5805      2.00000
      2     -19.3640      2.00000
      3     -12.7451      2.00000
      4     -11.5175      2.00000
      5     -11.4887      2.00000
      6      -8.5510      2.00000
      7      -8.0992      2.00000
      8      -7.9525      2.00000
      9      -1.1176      0.00000
     10      -0.4597      0.00000
     11      -0.4340      0.00000
     12       0.0243      0.00000

 k-point     4 :      -0.2500   -0.2500    0.2500
  band No.  band energies     occupation 
      1     -22.5805      2.00000
      2     -19.3640      2.00000
      3     -12.7451      2.00000
      4     -11.5175      2.00000
      5     -11.4887      2.00000
      6      -8.5510      2.00000
      7      -8.0992      2.00000
      8      -7.9525      2.00000
      9      -1.1176      0.00000
     10      -0.4597      0.00000
     11      -0.4340      0.00000
     12       0.0238      0.00000


--------------------------------------------------------------------------------------------------------


 soft charge-density along one line, spin component           1
         0         1         2         3         4         5         6         7         8         9
 total charge-density along one line
 
 pseudopotential strength for first ion, spin component:           1
 -2.364  -4.078  -0.002   0.000  -0.001
 -4.078  -6.948  -0.005   0.001  -0.002
 -0.002  -0.005  -0.330  -0.001   0.002
  0.000   0.001  -0.001  -0.334   0.000
 -0.001  -0.002   0.002   0.000  -0.333
 total augmentation occupancy for first ion, spin component:           1
  3.494  -0.629   0.399  -0.090   0.164
 -0.629   0.128  -0.074   0.016  -0.030
  0.399  -0.074   0.047  -0.009   0.016
 -0.090   0.016  -0.009   0.011  -0.004
  0.164  -0.030   0.016  -0.004   0.014


------------------------ aborting loop because EDIFF is reached ----------------------------------------


    CHARGE:  cpu time    6.5010: real time    8.1393
    FORLOC:  cpu time    2.3916: real time    2.7164
    FORNL :  cpu time   18.7671: real time   21.4596
    STRESS:  cpu time   52.9929: real time   59.3661
    FORCOR:  cpu time   19.3821: real time   20.3268
    FORHAR:  cpu time    6.5450: real time    6.5575
    MIXING:  cpu time    0.6949: real time    0.6963
    OFIELD:  cpu time    0.0000: real time    0.0000

  FORCE on cell =-STRESS in cart. coord.  units (eV):
  Direction    XX          YY          ZZ          XY          YZ          ZX
  --------------------------------------------------------------------------------------
  Alpha Z     0.04144     0.04144     0.04144
  Ewald     542.88650    55.66471    79.37713    84.90069    26.89184   136.02455
  Hartree   563.54469   291.89856   302.87983    39.87177    11.52757    66.83865
  E(xc)     -59.20198   -60.31685   -60.24758     0.25018     0.08139     0.37840
  Local   -1254.56465  -518.46219  -551.21239  -118.07181   -35.95782  -193.24577
  n-local   -27.57512   -25.05552   -25.34290    -1.02885    -0.40640    -1.39926
  augment     0.45400     0.37485     0.36597    -0.01775    -0.01663    -0.02258
  Kinetic   234.74848   254.85268   253.10969    -5.98495    -2.15828    -8.56925
  Fock        0.00000     0.00000     0.00000     0.00000     0.00000     0.00000
  -------------------------------------------------------------------------------------
  Total       0.33336    -1.00234    -1.02880    -0.08071    -0.03833     0.00474
  in kB       0.01978    -0.05948    -0.06105    -0.00479    -0.00227     0.00028
  external pressure =       -0.03 kB  Pullay stress =        0.00 kB


 VOLUME and BASIS-vectors are now :
 -----------------------------------------------------------------------------
  energy-cutoff  :      400.00
  volume of cell :    27000.00
      direct lattice vectors                 reciprocal lattice vectors
    30.000000000  0.000000000  0.000000000     0.033333333  0.000000000  0.000000000
     0.000000000 30.000000000  0.000000000     0.000000000  0.033333333  0.000000000
     0.000000000  0.000000000 30.000000000     0.000000000  0.000000000  0.033333333

  length of vectors
    30.000000000 30.000000000 30.000000000     0.033333333  0.033333333  0.033333333


 FORCES acting on ions
    electron-ion (+dipol)            ewald-force                    non-local-force                 convergence-correction
 -----------------------------------------------------------------------------------------------
   0.330E+02 0.552E+02 -.978E+01   -.351E+02 -.603E+02 0.109E+02   0.210E+01 0.510E+01 -.116E+01   -.439E-04 -.179E-04 0.838E-04
   0.282E+02 -.163E+02 0.563E+02   -.299E+02 0.179E+02 -.614E+02   0.167E+01 -.169E+01 0.511E+01   -.989E-04 -.148E-04 0.467E-04
   0.357E+02 -.383E+02 -.388E+02   -.379E+02 0.419E+02 0.425E+02   0.188E+01 -.364E+01 -.381E+01   -.756E-04 0.373E-05 0.124E-03
   0.978E+02 0.126E+02 0.219E+02   -.102E+03 -.130E+02 -.226E+02   0.466E+01 0.389E+00 0.797E+00   -.312E-03 -.185E-03 0.418E-03
   0.467E+02 0.451E+02 0.562E+02   -.484E+02 -.463E+02 -.578E+02   0.161E+01 0.161E+01 0.201E+01   -.381E-03 -.230E-03 0.770E-03
   -.217E+03 -.495E+02 -.737E+02   0.254E+03 0.598E+02 0.884E+02   -.359E+02 -.106E+02 -.150E+02   -.963E-03 -.643E-03 0.140E-02
 -----------------------------------------------------------------------------------------------
   0.239E+02 0.880E+01 0.120E+02   0.000E+00 0.000E+00 0.000E+00   -.239E+02 -.881E+01 -.120E+02   -.187E-02 -.109E-02 0.285E-02
 
 
 POSITION                                       TOTAL-FORCE (eV/Angst)
 -----------------------------------------------------------------------------------
     14.11738     13.91895     15.09201         0.003393     -0.045738     -0.079288
     14.20216     15.24064     13.87000         0.021600     -0.071895     -0.054680
     14.14221     15.62851     15.61443        -0.376545     -0.021114     -0.054091
     14.51879     14.91492     14.86828        -0.045357      0.041601      0.045472
     15.95384     14.98519     15.05452        -0.133693      0.369378      0.420082
     17.00643     15.27049     15.46516         0.530602     -0.272233     -0.277494
 -----------------------------------------------------------------------------------
    total drift:                               -0.006371     -0.007786      0.000849


--------------------------------------------------------------------------------------------------------



  FREE ENERGIE OF THE ION-ELECTRON SYSTEM (eV)
  ---------------------------------------------------
  free  energy   TOTEN  =       -36.57134419 eV

  energy  without entropy=      -36.57134419  energy(sigma->0) =      -36.57134419
 
 d Force = 0.4916048E-02[ 0.486E-02, 0.497E-02]  d Energy = 0.4917082E-02-0.103E-05
 d Force = 0.2663325E-01[ 0.296E-01, 0.236E-01]  d Ewald  = 0.2663264E-01 0.617E-06


--------------------------------------------------------------------------------------------------------


    POTLOK:  cpu time   17.1804: real time   17.2267


--------------------------------------------------------------------------------------------------------


 NEB: the previous image is higher in energy: T
 NEB: the next image is higher in energy    : F
 NEB: only prev energy greater

 NEB: Tangent
 ----------------------------------------------
     -0.00785     -0.03164     -0.09492
      0.01134     -0.09041     -0.04297
     -0.39145     -0.02408     -0.06191
     -0.04515      0.04075      0.04655
     -0.11756      0.38527      0.43884
      0.54938     -0.27815     -0.28678

 NEB: forces: par spring, perp REAL, dneb     0.000893    0.038934    0.000000
 NEB: distance to prev, next image, angle between     0.308096    0.307918  143.714552
 NEB: projections on to tangent (spring, REAL)    -0.000893    0.964338

 stress matrix after NEB project (eV)
      0.33336     -0.08071      0.00474
     -0.08071     -1.00234     -0.03833
      0.00474     -0.03833     -1.02880
  FORCES: max atom, RMS     0.022900    0.015899
  FORCE total and by dimension    0.038944    0.020219
  Stress total and by dimension    1.479949    1.028800
 OPT: skip step - force has converged


--------------------------------------------------------------------------------------------------------


  
 reached required accuracy - stopping structural energy minimisation
     LOOP+:  cpu time  686.2577: real time  741.2322
    4ORBIT:  cpu time    0.0000: real time    0.0000

 total amount of memory used by VASP on root node  3203888. kBytes
========================================================================

   base      :      30000. kBytes
   nonlr-proj:        692. kBytes
   fftplans  :     924480. kBytes
   grid      :    1872000. kBytes
   one-center:         18. kBytes
   wavefun   :     376698. kBytes
 
  
  
 General timing and accounting informations for this job:
 ========================================================
  
                  Total CPU time used (sec):    22479.270
                            User time (sec):    22179.769
                          System time (sec):      299.500
                         Elapsed time (sec):    22605.921
  
                   Maximum memory used (kb):     4782636.
                   Average memory used (kb):           0.
  
                          Minor page faults:      2446191
                          Major page faults:           10
                 Voluntary context switches:         3816
