 vasp.5.4.1 24Jun15 (build Jan 13 2020 12:58:22) complex                        
  
 POSCAR found type information on POSCAR  H  C  N 
 13/POSCAR found :  3 types and       6 ions
 scaLAPACK will be used

 ----------------------------------------------------------------------------- 
|                                                                             |
|  ADVICE TO THIS USER RUNNING 'VASP/VAMP'   (HEAR YOUR MASTER'S VOICE ...):  |
|                                                                             |
|      You have a (more or less) 'small supercell' and for smaller cells      |
|      it is recommended  to use the reciprocal-space projection scheme!      |
|      The real space optimization is not  efficient for small cells and it   |
|      is also less accurate ...                                              |
|      Therefore set LREAL=.FALSE. in the  INCAR file                         |
|                                                                             |
 ----------------------------------------------------------------------------- 

 LDA part: xc-table for Pade appr. of Perdew
 POSCAR found type information on POSCAR  H  C  N 
 00/POSCAR found :  3 types and       6 ions
 POSCAR found type information on POSCAR  H  C  N 
 16/POSCAR found :  3 types and       6 ions
 Jacobian:    40.4401846379183     
 POSCAR, INCAR and KPOINTS ok, starting setup
 WARNING: small aliasing (wrap around) errors must be expected
 FFT: planning ...
 WAVECAR not read
 entering main loop
       N       E                     dE             d eps       ncg     rms          rms(c)
DAV:   1     0.115504440877E+03    0.11550E+03   -0.21253E+03   160   0.366E+02
DAV:   2    -0.113880469750E+01   -0.11664E+03   -0.11421E+03   192   0.107E+02
DAV:   3    -0.372416163513E+02   -0.36103E+02   -0.35966E+02   128   0.964E+01
DAV:   4    -0.405464208886E+02   -0.33048E+01   -0.32551E+01   128   0.298E+01
DAV:   5    -0.406182993224E+02   -0.71878E-01   -0.70830E-01   112   0.497E+00    0.110E+01
DAV:   6    -0.373183531693E+02    0.32999E+01   -0.63273E+00   128   0.177E+01    0.597E+00
DAV:   7    -0.366606300585E+02    0.65772E+00   -0.14846E+00   116   0.876E+00    0.305E+00
DAV:   8    -0.364855291364E+02    0.17510E+00   -0.41392E-01   128   0.490E+00    0.113E+00
DAV:   9    -0.364591515729E+02    0.26378E-01   -0.37949E-02   128   0.160E+00    0.336E-01
DAV:  10    -0.364550871396E+02    0.40644E-02   -0.48582E-03   128   0.601E-01    0.145E-01
DAV:  11    -0.364562012531E+02   -0.11141E-02   -0.17565E-03   120   0.317E-01    0.959E-02
DAV:  12    -0.364627474868E+02   -0.65462E-02   -0.46900E-03    96   0.527E-01    0.483E-02
DAV:  13    -0.364667617256E+02   -0.40142E-02   -0.12092E-03   148   0.234E-01    0.358E-02
DAV:  14    -0.364710282342E+02   -0.42665E-02   -0.58661E-04   116   0.153E-01    0.251E-02
DAV:  15    -0.364741148362E+02   -0.30866E-02   -0.30397E-04   128   0.929E-02    0.155E-02
DAV:  16    -0.364761320540E+02   -0.20172E-02   -0.16650E-04    96   0.893E-02    0.818E-03
DAV:  17    -0.364773230226E+02   -0.11910E-02   -0.12764E-04    96   0.588E-02    0.547E-03
DAV:  18    -0.364777960796E+02   -0.47306E-03   -0.46495E-05    96   0.388E-02    0.282E-03
DAV:  19    -0.364780517001E+02   -0.25562E-03   -0.17339E-05    76   0.262E-02    0.265E-03
DAV:  20    -0.364781619737E+02   -0.11027E-03   -0.72444E-06    96   0.158E-02    0.929E-04
DAV:  21    -0.364782388637E+02   -0.76890E-04   -0.25993E-06    80   0.105E-02
   1 F= -.36478239E+02 E0= -.36478239E+02  d E =-.364782E+02
damped:  g(F)=  0.000E+00 g(S)=  0.000E+00 dE (1.order)= 0.000E+00
 bond charge predicted
       N       E                     dE             d eps       ncg     rms          rms(c)
DAV:   1    -0.364820419259E+02   -0.38800E-02   -0.25928E-02    96   0.152E+00    0.344E-02
DAV:   2    -0.364820547009E+02   -0.12775E-04   -0.24923E-04   128   0.130E-01    0.222E-02
DAV:   3    -0.364820660145E+02   -0.11314E-04   -0.14816E-05    76   0.356E-02    0.737E-03
DAV:   4    -0.364820734890E+02   -0.74744E-05   -0.34289E-06    96   0.185E-02    0.237E-03
DAV:   5    -0.364820766184E+02   -0.31294E-05   -0.68648E-07    64   0.742E-03    0.129E-03
DAV:   6    -0.364820810247E+02   -0.44063E-05   -0.40688E-07    64   0.489E-03
   2 F= -.36482081E+02 E0= -.36482081E+02  d E =-.384216E-02
damped:  g(F)=  0.000E+00 g(S)=  0.000E+00 dE (1.order)= 0.000E+00
 bond charge predicted
       N       E                     dE             d eps       ncg     rms          rms(c)
DAV:   1    -0.364887822519E+02   -0.67056E-02   -0.88175E-02    96   0.281E+00    0.619E-02
DAV:   2    -0.364887963008E+02   -0.14049E-04   -0.80804E-04   128   0.236E-01    0.399E-02
DAV:   3    -0.364888027606E+02   -0.64598E-05   -0.41814E-05    96   0.602E-02    0.155E-02
DAV:   4    -0.364888097096E+02   -0.69490E-05   -0.11985E-05    96   0.339E-02    0.412E-03
DAV:   5    -0.364888103290E+02   -0.61941E-06   -0.24035E-06    88   0.139E-02    0.232E-03
DAV:   6    -0.364888116226E+02   -0.12936E-05   -0.12537E-06    64   0.859E-03
   3 F= -.36488812E+02 E0= -.36488812E+02  d E =-.673060E-02
damped:  g(F)=  0.000E+00 g(S)=  0.000E+00 dE (1.order)= 0.000E+00
 bond charge predicted
       N       E                     dE             d eps       ncg     rms          rms(c)
DAV:   1    -0.364973741865E+02   -0.85639E-02   -0.15302E-01    96   0.369E+00    0.797E-02
DAV:   2    -0.364973934130E+02   -0.19226E-04   -0.13185E-03   124   0.304E-01    0.514E-02
DAV:   3    -0.364974050044E+02   -0.11591E-04   -0.61429E-05    68   0.737E-02    0.200E-02
DAV:   4    -0.364974161562E+02   -0.11152E-04   -0.19911E-05    92   0.426E-02    0.483E-03
DAV:   5    -0.364974171429E+02   -0.98668E-06   -0.40015E-06    80   0.178E-02    0.279E-03
DAV:   6    -0.364974194143E+02   -0.22715E-05   -0.18581E-06    80   0.105E-02
   4 F= -.36497419E+02 E0= -.36497419E+02  d E =-.860779E-02
damped:  g(F)=  0.000E+00 g(S)=  0.000E+00 dE (1.order)= 0.000E+00
 bond charge predicted
       N       E                     dE             d eps       ncg     rms          rms(c)
DAV:   1    -0.365069015816E+02   -0.94844E-02   -0.18227E-01    96   0.402E+00    0.861E-02
DAV:   2    -0.365069370370E+02   -0.35455E-04   -0.15348E-03   128   0.330E-01    0.561E-02
DAV:   3    -0.365069587776E+02   -0.21741E-04   -0.68500E-05    80   0.800E-02    0.163E-02
DAV:   4    -0.365069668181E+02   -0.80404E-05   -0.18465E-05    64   0.397E-02    0.477E-03
DAV:   5    -0.365069686992E+02   -0.18811E-05   -0.38025E-06    48   0.172E-02    0.256E-03
DAV:   6    -0.365069721561E+02   -0.34569E-05   -0.19557E-06    64   0.108E-02
   5 F= -.36506972E+02 E0= -.36506972E+02  d E =-.955274E-02
damped:  g(F)=  0.000E+00 g(S)=  0.000E+00 dE (1.order)= 0.000E+00
 bond charge predicted
       N       E                     dE             d eps       ncg     rms          rms(c)
DAV:   1    -0.365165419887E+02   -0.95733E-02   -0.16699E-01    96   0.382E+00    0.858E-02
DAV:   2    -0.365165792517E+02   -0.37263E-04   -0.14781E-03   128   0.329E-01    0.547E-02
DAV:   3    -0.365165947215E+02   -0.15470E-04   -0.52191E-05    96   0.710E-02    0.211E-02
DAV:   4    -0.365166070873E+02   -0.12366E-04   -0.19336E-05    64   0.400E-02    0.403E-03
DAV:   5    -0.365166093099E+02   -0.22226E-05   -0.39436E-06    48   0.174E-02    0.208E-03
DAV:   6    -0.365166121555E+02   -0.28456E-05   -0.10175E-06    64   0.796E-03
   6 F= -.36516612E+02 E0= -.36516612E+02  d E =-.964000E-02
damped:  g(F)=  0.000E+00 g(S)=  0.000E+00 dE (1.order)= 0.000E+00
 bond charge predicted
       N       E                     dE             d eps       ncg     rms          rms(c)
DAV:   1    -0.365254611916E+02   -0.88519E-02   -0.13134E-01    96   0.340E+00    0.807E-02
DAV:   2    -0.365255219194E+02   -0.60728E-04   -0.13690E-03   116   0.312E-01    0.524E-02
DAV:   3    -0.365255327202E+02   -0.10801E-04   -0.58573E-05    96   0.749E-02    0.167E-02
DAV:   4    -0.365255405460E+02   -0.78258E-05   -0.16953E-05    64   0.367E-02    0.501E-03
DAV:   5    -0.365255421403E+02   -0.15943E-05   -0.28826E-06    48   0.154E-02    0.308E-03
DAV:   6    -0.365255447014E+02   -0.25611E-05   -0.10909E-06    64   0.888E-03
   7 F= -.36525545E+02 E0= -.36525545E+02  d E =-.893255E-02
damped:  g(F)=  0.000E+00 g(S)=  0.000E+00 dE (1.order)= 0.000E+00
 bond charge predicted
       N       E                     dE             d eps       ncg     rms          rms(c)
DAV:   1    -0.365334753968E+02   -0.79333E-02   -0.12626E-01    96   0.336E+00    0.882E-02
DAV:   2    -0.365335242964E+02   -0.48900E-04   -0.15009E-03   120   0.337E-01    0.556E-02
DAV:   3    -0.365335263619E+02   -0.20656E-05   -0.74688E-05    96   0.814E-02    0.234E-02
DAV:   4    -0.365335382568E+02   -0.11895E-04   -0.24691E-05    64   0.471E-02    0.572E-03
DAV:   5    -0.365335400071E+02   -0.17503E-05   -0.47178E-06    64   0.204E-02    0.261E-03
DAV:   6    -0.365335414533E+02   -0.14462E-05   -0.13088E-06    48   0.951E-03
   8 F= -.36533541E+02 E0= -.36533541E+02  d E =-.799675E-02
damped:  g(F)=  0.000E+00 g(S)=  0.000E+00 dE (1.order)= 0.000E+00
 bond charge predicted
       N       E                     dE             d eps       ncg     rms          rms(c)
DAV:   1    -0.365333651457E+02    0.17486E-03   -0.10500E-03    96   0.297E-01    0.131E-02
DAV:   2    -0.365333635699E+02    0.15759E-05   -0.17484E-05    64   0.397E-02    0.666E-03
DAV:   3    -0.365333637761E+02   -0.20629E-06   -0.37310E-06    48   0.178E-02    0.322E-03
DAV:   4    -0.365333650103E+02   -0.12342E-05   -0.18163E-06    72   0.116E-02    0.112E-03
DAV:   5    -0.365333658455E+02   -0.83519E-06   -0.30764E-07    48   0.503E-03    0.477E-04
DAV:   6    -0.365333667622E+02   -0.91663E-06   -0.11158E-07    52   0.250E-03
   9 F= -.36533367E+02 E0= -.36533367E+02  d E =0.174691E-03
damped:  g(F)=  0.000E+00 g(S)=  0.000E+00 dE (1.order)= 0.000E+00
 bond charge predicted
       N       E                     dE             d eps       ncg     rms          rms(c)
DAV:   1    -0.365331056732E+02    0.26017E-03   -0.19742E-03    96   0.407E-01    0.164E-02
DAV:   2    -0.365331026036E+02    0.30696E-05   -0.31948E-05    84   0.524E-02    0.864E-03
DAV:   3    -0.365331019915E+02    0.61202E-06   -0.66187E-06    56   0.235E-02    0.425E-03
DAV:   4    -0.365331026237E+02   -0.63214E-06   -0.30526E-06    56   0.151E-02    0.155E-03
DAV:   5    -0.365331029430E+02   -0.31932E-06   -0.50461E-07    48   0.663E-03    0.644E-04
DAV:   6    -0.365331032355E+02   -0.29252E-06   -0.14651E-07    60   0.308E-03
  10 F= -.36533103E+02 E0= -.36533103E+02  d E =0.263527E-03
damped:  g(F)=  0.000E+00 g(S)=  0.000E+00 dE (1.order)= 0.000E+00
 bond charge predicted
       N       E                     dE             d eps       ncg     rms          rms(c)
DAV:   1    -0.365331483516E+02   -0.45409E-04   -0.17265E-05    48   0.400E-02    0.183E-03
DAV:   2    -0.365331484925E+02   -0.14091E-06   -0.83343E-07    48   0.949E-03    0.101E-03
DAV:   3    -0.365331486112E+02   -0.11870E-06   -0.10136E-07    48   0.290E-03    0.552E-04
DAV:   4    -0.365331488040E+02   -0.19281E-06   -0.53793E-08    60   0.188E-03    0.139E-04
DAV:   5    -0.365331488679E+02   -0.63933E-07   -0.21939E-08    48   0.845E-04    0.918E-05
DAV:   6    -0.365331489443E+02   -0.76374E-07   -0.15377E-08    48   0.398E-04
  11 F= -.36533149E+02 E0= -.36533149E+02  d E =-.457088E-04
damped:  g(F)=  0.000E+00 g(S)=  0.000E+00 dE (1.order)= 0.000E+00
 bond charge predicted
       N       E                     dE             d eps       ncg     rms          rms(c)
DAV:   1    -0.365332519479E+02   -0.10308E-03   -0.59928E-05    56   0.749E-02    0.322E-03
DAV:   2    -0.365332520809E+02   -0.13296E-06   -0.28118E-06    48   0.175E-02    0.178E-03
DAV:   3    -0.365332521210E+02   -0.40146E-07   -0.33141E-07    48   0.536E-03    0.102E-03
DAV:   4    -0.365332522033E+02   -0.82219E-07   -0.13893E-07    76   0.332E-03    0.245E-04
DAV:   5    -0.365332522295E+02   -0.26273E-07   -0.42267E-08    48   0.148E-03    0.168E-04
DAV:   6    -0.365332522585E+02   -0.28964E-07   -0.20703E-08    48   0.682E-04
  12 F= -.36533252E+02 E0= -.36533252E+02  d E =-.103314E-03
damped:  g(F)=  0.000E+00 g(S)=  0.000E+00 dE (1.order)= 0.000E+00
 bond charge predicted
       N       E                     dE             d eps       ncg     rms          rms(c)
DAV:   1    -0.365334316589E+02   -0.17943E-03   -0.11412E-04    48   0.104E-01    0.397E-03
DAV:   2    -0.365334318927E+02   -0.23380E-06   -0.53565E-06    48   0.239E-02    0.225E-03
DAV:   3    -0.365334319202E+02   -0.27483E-07   -0.63655E-07    48   0.741E-03    0.138E-03
DAV:   4    -0.365334319616E+02   -0.41485E-07   -0.21696E-07    64   0.419E-03    0.310E-04
DAV:   5    -0.365334319701E+02   -0.84319E-08   -0.64064E-08    48   0.191E-03    0.214E-04
DAV:   6    -0.365334319771E+02   -0.70570E-08   -0.27307E-08    48   0.911E-04
  13 F= -.36533432E+02 E0= -.36533432E+02  d E =-.179719E-03
damped:  g(F)=  0.000E+00 g(S)=  0.000E+00 dE (1.order)= 0.000E+00
 bond charge predicted
       N       E                     dE             d eps       ncg     rms          rms(c)
DAV:   1    -0.365337143133E+02   -0.28234E-03   -0.19599E-04    80   0.133E-01    0.476E-03
DAV:   2    -0.365337140701E+02    0.24324E-06   -0.25287E-06    64   0.157E-02    0.251E-03
DAV:   3    -0.365337141021E+02   -0.31995E-07   -0.42513E-07    48   0.599E-03    0.125E-03
DAV:   4    -0.365337141502E+02   -0.48115E-07   -0.15009E-07    48   0.347E-03    0.259E-04
DAV:   5    -0.365337141535E+02   -0.32901E-08   -0.45113E-08    48   0.154E-03    0.131E-04
DAV:   6    -0.365337141580E+02   -0.44636E-08   -0.22968E-08    48   0.739E-04
  14 F= -.36533714E+02 E0= -.36533714E+02  d E =-.282181E-03
damped:  g(F)=  0.000E+00 g(S)=  0.000E+00 dE (1.order)= 0.000E+00
 bond charge predicted
       N       E                     dE             d eps       ncg     rms          rms(c)
DAV:   1    -0.365341306092E+02   -0.41646E-03   -0.34348E-04    96   0.175E-01    0.511E-03
DAV:   2    -0.365341304605E+02    0.14868E-06   -0.35219E-06    64   0.182E-02    0.281E-03
DAV:   3    -0.365341305461E+02   -0.85529E-07   -0.52873E-07    48   0.656E-03    0.130E-03
DAV:   4    -0.365341306073E+02   -0.61198E-07   -0.15749E-07    48   0.348E-03    0.227E-04
DAV:   5    -0.365341306118E+02   -0.45213E-08   -0.52288E-08    48   0.166E-03    0.145E-04
DAV:   6    -0.365341306158E+02   -0.39868E-08   -0.26536E-08    48   0.844E-04
  15 F= -.36534131E+02 E0= -.36534131E+02  d E =-.416458E-03
damped:  g(F)=  0.000E+00 g(S)=  0.000E+00 dE (1.order)= 0.000E+00
 bond charge predicted
       N       E                     dE             d eps       ncg     rms          rms(c)
DAV:   1    -0.365347143340E+02   -0.58372E-03   -0.62922E-04    96   0.235E-01    0.623E-03
DAV:   2    -0.365347142750E+02    0.58935E-07   -0.60062E-06    64   0.227E-02    0.356E-03
DAV:   3    -0.365347144223E+02   -0.14727E-06   -0.92111E-07    48   0.861E-03    0.139E-03
DAV:   4    -0.365347144896E+02   -0.67310E-07   -0.26269E-07    48   0.428E-03    0.367E-04
DAV:   5    -0.365347144941E+02   -0.45172E-08   -0.78360E-08    48   0.216E-03    0.230E-04
DAV:   6    -0.365347145006E+02   -0.64206E-08   -0.38196E-08    48   0.125E-03
  16 F= -.36534715E+02 E0= -.36534715E+02  d E =-.583885E-03
damped:  g(F)=  0.000E+00 g(S)=  0.000E+00 dE (1.order)= 0.000E+00
 bond charge predicted
       N       E                     dE             d eps       ncg     rms          rms(c)
DAV:   1    -0.365355485336E+02   -0.83404E-03   -0.12914E-03    96   0.333E-01    0.879E-03
DAV:   2    -0.365355485490E+02   -0.15429E-07   -0.12509E-05    64   0.316E-02    0.511E-03
DAV:   3    -0.365355487741E+02   -0.22512E-06   -0.20409E-06    48   0.129E-02    0.182E-03
DAV:   4    -0.365355488746E+02   -0.10049E-06   -0.55737E-07    48   0.625E-03    0.638E-04
DAV:   5    -0.365355488829E+02   -0.82607E-08   -0.14247E-07    48   0.309E-03    0.392E-04
DAV:   6    -0.365355489024E+02   -0.19536E-07   -0.71328E-08    48   0.208E-03
  17 F= -.36535549E+02 E0= -.36535549E+02  d E =-.834402E-03
damped:  g(F)=  0.000E+00 g(S)=  0.000E+00 dE (1.order)= 0.000E+00
 bond charge predicted
       N       E                     dE             d eps       ncg     rms          rms(c)
DAV:   1    -0.365366811877E+02   -0.11323E-02   -0.23978E-03    96   0.453E-01    0.119E-02
DAV:   2    -0.365366813279E+02   -0.14022E-06   -0.23291E-05    64   0.425E-02    0.700E-03
DAV:   3    -0.365366816885E+02   -0.36057E-06   -0.38988E-06    48   0.179E-02    0.246E-03
DAV:   4    -0.365366818669E+02   -0.17845E-06   -0.10468E-06    48   0.861E-03    0.927E-04
DAV:   5    -0.365366818946E+02   -0.27723E-07   -0.24916E-07    48   0.421E-03    0.555E-04
DAV:   6    -0.365366819504E+02   -0.55757E-07   -0.12366E-07    48   0.292E-03
  18 F= -.36536682E+02 E0= -.36536682E+02  d E =-.113305E-02
damped:  g(F)=  0.000E+00 g(S)=  0.000E+00 dE (1.order)= 0.000E+00
 bond charge predicted
       N       E                     dE             d eps       ncg     rms          rms(c)
DAV:   1    -0.365381646107E+02   -0.14827E-02   -0.40274E-03    96   0.589E-01    0.151E-02
DAV:   2    -0.365381650332E+02   -0.42253E-06   -0.37447E-05    64   0.543E-02    0.890E-03
DAV:   3    -0.365381657317E+02   -0.69846E-06   -0.61790E-06    48   0.224E-02    0.306E-03
DAV:   4    -0.365381660304E+02   -0.29876E-06   -0.16419E-06    48   0.107E-02    0.112E-03
DAV:   5    -0.365381660899E+02   -0.59468E-07   -0.40651E-07    48   0.536E-03    0.688E-04
DAV:   6    -0.365381661956E+02   -0.10572E-06   -0.19226E-07    48   0.365E-03
  19 F= -.36538166E+02 E0= -.36538166E+02  d E =-.148425E-02
damped:  g(F)=  0.000E+00 g(S)=  0.000E+00 dE (1.order)= 0.000E+00
 bond charge predicted
       N       E                     dE             d eps       ncg     rms          rms(c)
DAV:   1    -0.365400560645E+02   -0.18900E-02   -0.62848E-03    96   0.739E-01    0.184E-02
DAV:   2    -0.365400567421E+02   -0.67756E-06   -0.54042E-05    64   0.668E-02    0.108E-02
DAV:   3    -0.365400580567E+02   -0.13147E-05   -0.85502E-06    64   0.259E-02    0.375E-03
DAV:   4    -0.365400585439E+02   -0.48719E-06   -0.22575E-06    48   0.124E-02    0.114E-03
DAV:   5    -0.365400586445E+02   -0.10057E-06   -0.62051E-07    48   0.644E-03    0.717E-04
DAV:   6    -0.365400587871E+02   -0.14260E-06   -0.25181E-07    48   0.389E-03
  20 F= -.36540059E+02 E0= -.36540059E+02  d E =-.189259E-02
damped:  g(F)=  0.000E+00 g(S)=  0.000E+00 dE (1.order)= 0.000E+00
 bond charge predicted
       N       E                     dE             d eps       ncg     rms          rms(c)
DAV:   1    -0.365424068913E+02   -0.23482E-02   -0.95158E-03    96   0.913E-01    0.228E-02
DAV:   2    -0.365424072411E+02   -0.34974E-06   -0.77733E-05    64   0.824E-02    0.133E-02
DAV:   3    -0.365424092468E+02   -0.20057E-05   -0.12171E-05    64   0.305E-02    0.502E-03
DAV:   4    -0.365424100815E+02   -0.83471E-06   -0.31857E-06    48   0.149E-02    0.113E-03
DAV:   5    -0.365424102317E+02   -0.15024E-06   -0.92264E-07    48   0.763E-03    0.703E-04
DAV:   6    -0.365424103871E+02   -0.15532E-06   -0.33317E-07    48   0.418E-03
  21 F= -.36542410E+02 E0= -.36542410E+02  d E =-.235160E-02
damped:  g(F)=  0.000E+00 g(S)=  0.000E+00 dE (1.order)= 0.000E+00
 bond charge predicted
       N       E                     dE             d eps       ncg     rms          rms(c)
DAV:   1    -0.365452546269E+02   -0.28444E-02   -0.14058E-02    96   0.111E+00    0.279E-02
DAV:   2    -0.365452547666E+02   -0.13969E-06   -0.11354E-04    64   0.100E-01    0.163E-02
DAV:   3    -0.365452575798E+02   -0.28132E-05   -0.18077E-05    64   0.370E-02    0.632E-03
DAV:   4    -0.365452588349E+02   -0.12551E-05   -0.47150E-06    64   0.182E-02    0.127E-03
DAV:   5    -0.365452590346E+02   -0.19964E-06   -0.13620E-06    48   0.915E-03    0.786E-04
DAV:   6    -0.365452592137E+02   -0.17912E-06   -0.48280E-07    48   0.497E-03
  22 F= -.36545259E+02 E0= -.36545259E+02  d E =-.284883E-02
damped:  g(F)=  0.000E+00 g(S)=  0.000E+00 dE (1.order)= 0.000E+00
 bond charge predicted
       N       E                     dE             d eps       ncg     rms          rms(c)
DAV:   1    -0.365486193138E+02   -0.33603E-02   -0.19680E-02    96   0.131E+00    0.318E-02
DAV:   2    -0.365486221927E+02   -0.28790E-05   -0.15875E-04    80   0.116E-01    0.190E-02
DAV:   3    -0.365486264000E+02   -0.42073E-05   -0.25426E-05    64   0.441E-02    0.636E-03
DAV:   4    -0.365486277899E+02   -0.13899E-05   -0.65388E-06    56   0.209E-02    0.156E-03
DAV:   5    -0.365486280672E+02   -0.27732E-06   -0.19333E-06    48   0.109E-02    0.935E-04
DAV:   6    -0.365486283407E+02   -0.27348E-06   -0.71935E-07    48   0.608E-03
  23 F= -.36548628E+02 E0= -.36548628E+02  d E =-.336913E-02
damped:  g(F)=  0.000E+00 g(S)=  0.000E+00 dE (1.order)= 0.000E+00
 bond charge predicted
       N       E                     dE             d eps       ncg     rms          rms(c)
DAV:   1    -0.365524924813E+02   -0.38644E-02   -0.26376E-02    96   0.152E+00    0.363E-02
DAV:   2    -0.365525027494E+02   -0.10268E-04   -0.25928E-04   128   0.134E-01    0.229E-02
DAV:   3    -0.365525049054E+02   -0.21560E-05   -0.10805E-05    64   0.324E-02    0.765E-03
DAV:   4    -0.365525060338E+02   -0.11284E-05   -0.29357E-06    64   0.155E-02    0.218E-03
DAV:   5    -0.365525062367E+02   -0.20290E-06   -0.55447E-07    48   0.685E-03    0.133E-03
DAV:   6    -0.365525067084E+02   -0.47171E-06   -0.26547E-07    48   0.460E-03
  24 F= -.36552507E+02 E0= -.36552507E+02  d E =-.387837E-02
damped:  g(F)=  0.000E+00 g(S)=  0.000E+00 dE (1.order)= 0.000E+00
 bond charge predicted
       N       E                     dE             d eps       ncg     rms          rms(c)
DAV:   1    -0.365568286057E+02   -0.43224E-02   -0.32704E-02    96   0.170E+00    0.402E-02
DAV:   2    -0.365568415184E+02   -0.12913E-04   -0.31285E-04   112   0.149E-01    0.255E-02
DAV:   3    -0.365568445681E+02   -0.30498E-05   -0.12153E-05    64   0.350E-02    0.783E-03
DAV:   4    -0.365568459435E+02   -0.13754E-05   -0.33169E-06    56   0.163E-02    0.221E-03
DAV:   5    -0.365568462574E+02   -0.31387E-06   -0.63144E-07    48   0.722E-03    0.135E-03
DAV:   6    -0.365568468901E+02   -0.63277E-06   -0.29659E-07    48   0.468E-03
  25 F= -.36556847E+02 E0= -.36556847E+02  d E =-.434018E-02
damped:  g(F)=  0.000E+00 g(S)=  0.000E+00 dE (1.order)= 0.000E+00
 bond charge predicted
       N       E                     dE             d eps       ncg     rms          rms(c)
DAV:   1    -0.365615196023E+02   -0.46733E-02   -0.38462E-02    96   0.184E+00    0.447E-02
DAV:   2    -0.365615320293E+02   -0.12427E-04   -0.36578E-04   128   0.164E-01    0.284E-02
DAV:   3    -0.365615349467E+02   -0.29175E-05   -0.12532E-05    68   0.357E-02    0.979E-03
DAV:   4    -0.365615371377E+02   -0.21910E-05   -0.41509E-06    64   0.184E-02    0.207E-03
DAV:   5    -0.365615376579E+02   -0.52014E-06   -0.82132E-07    48   0.801E-03    0.829E-04
DAV:   6    -0.365615381561E+02   -0.49818E-06   -0.22505E-07    48   0.366E-03
  26 F= -.36561538E+02 E0= -.36561538E+02  d E =-.469127E-02
damped:  g(F)=  0.000E+00 g(S)=  0.000E+00 dE (1.order)= 0.000E+00
 bond charge predicted
       N       E                     dE             d eps       ncg     rms          rms(c)
DAV:   1    -0.365664019627E+02   -0.48643E-02   -0.42400E-02    96   0.194E+00    0.464E-02
DAV:   2    -0.365664205892E+02   -0.18627E-04   -0.40930E-04   124   0.171E-01    0.302E-02
DAV:   3    -0.365664245556E+02   -0.39664E-05   -0.18732E-05    80   0.439E-02    0.775E-03
DAV:   4    -0.365664260411E+02   -0.14855E-05   -0.49750E-06    48   0.201E-02    0.275E-03
DAV:   5    -0.365664263828E+02   -0.34167E-06   -0.82774E-07    48   0.846E-03    0.164E-03
DAV:   6    -0.365664271103E+02   -0.72749E-06   -0.54162E-07    48   0.626E-03
  27 F= -.36566427E+02 E0= -.36566427E+02  d E =-.488895E-02
damped:  g(F)=  0.000E+00 g(S)=  0.000E+00 dE (1.order)= 0.000E+00
 bond charge predicted
       N       E                     dE             d eps       ncg     rms          rms(c)
DAV:   1    -0.365713164668E+02   -0.48901E-02   -0.45462E-02    96   0.201E+00    0.479E-02
DAV:   2    -0.365713364140E+02   -0.19947E-04   -0.43236E-04   128   0.176E-01    0.314E-02
DAV:   3    -0.365713410399E+02   -0.46259E-05   -0.14940E-05    80   0.400E-02    0.819E-03
DAV:   4    -0.365713429376E+02   -0.18977E-05   -0.43286E-06    48   0.182E-02    0.235E-03
DAV:   5    -0.365713436386E+02   -0.70109E-06   -0.81603E-07    48   0.811E-03    0.775E-04
DAV:   6    -0.365713441919E+02   -0.55329E-06   -0.24576E-07    48   0.373E-03
  28 F= -.36571344E+02 E0= -.36571344E+02  d E =-.491708E-02
damped:  g(F)=  0.000E+00 g(S)=  0.000E+00 dE (1.order)= 0.000E+00
 reached required accuracy - stopping structural energy minimisation
