unknown system                          
           1
    30.000000    0.000000    0.000000
     0.000000   30.000000    0.000000
     0.000000    0.000000   30.000000
   H    C    N 
   3   2   1
Direct configuration=     1
   0.46982851  0.46433670  0.50305507
   0.47284249  0.50884142  0.46262493
   0.47332969  0.52114476  0.52101773
   0.48406024  0.49714662  0.49539366
   0.53217071  0.49812422  0.50053737
   0.56605567  0.50874597  0.51635606
Direct configuration=     2
   0.46988441  0.46431113  0.50307283
   0.47287720  0.50881295  0.46260240
   0.47331218  0.52110818  0.52096377
   0.48404190  0.49713859  0.49539295
   0.53208075  0.49823813  0.50066478
   0.56608228  0.50873735  0.51628382
Direct configuration=     3
   0.46996462  0.46427840  0.50309687
   0.47292899  0.50876724  0.46257495
   0.47325881  0.52107067  0.52090192
   0.48401568  0.49711986  0.49538293
   0.53197439  0.49839021  0.50083217
   0.56612324  0.50873032  0.51618510
Direct configuration=     4
   0.47006226  0.46423850  0.50312505
   0.47299480  0.50870275  0.46254194
   0.47314411  0.52104356  0.52084442
   0.48398970  0.49709590  0.49537041
   0.53186689  0.49855371  0.50100462
   0.56618996  0.50873742  0.51607787
Direct configuration=     5
   0.47016246  0.46418342  0.50315475
   0.47306519  0.50862519  0.46249542
   0.47296359  0.52103079  0.52079605
   0.48396462  0.49708259  0.49537504
   0.53180913  0.49871109  0.50116159
   0.56626094  0.50875773  0.51596944
Direct configuration=     6
   0.47025624  0.46411594  0.50318362
   0.47313382  0.50853975  0.46243831
   0.47273421  0.52102885  0.52075493
   0.48394856  0.49708909  0.49540898
   0.53177540  0.49883327  0.50126474
   0.56635337  0.50880577  0.51588791
Direct configuration=     7
   0.47034894  0.46404351  0.50320926
   0.47320442  0.50843610  0.46238055
   0.47244614  0.52103495  0.52071564
   0.48393396  0.49711088  0.49546829
   0.53181477  0.49893821  0.50133414
   0.56642454  0.50887583  0.51581375
Direct configuration=     8
   0.47034919  0.46404655  0.50320833
   0.47320469  0.50843334  0.46238449
   0.47244342  0.52103552  0.52071575
   0.48393671  0.49711020  0.49546809
   0.53180911  0.49893152  0.50132346
   0.56642902  0.50888312  0.51582103
Direct configuration=     9
   0.47034944  0.46405177  0.50320596
   0.47320495  0.50842701  0.46239131
   0.47243561  0.52103631  0.52071523
   0.48394069  0.49710896  0.49546786
   0.53180452  0.49892321  0.50130849
   0.56643546  0.50889486  0.51583117
Direct configuration=    10
   0.47034937  0.46405198  0.50320553
   0.47320487  0.50842609  0.46239161
   0.47243397  0.52103625  0.52071490
   0.48394060  0.49710891  0.49546796
   0.53180646  0.49892417  0.50130925
   0.56643517  0.50889500  0.51583060
Direct configuration=    11
   0.47034922  0.46405227  0.50320466
   0.47320470  0.50842416  0.46239207
   0.47243060  0.52103610  0.52071414
   0.48394038  0.49710876  0.49546810
   0.53180993  0.49892633  0.50131097
   0.56643506  0.50889546  0.51582950
Direct configuration=    12
   0.47034903  0.46405246  0.50320334
   0.47320443  0.50842110  0.46239249
   0.47242532  0.52103582  0.52071284
   0.48394005  0.49710845  0.49546828
   0.53181424  0.49892989  0.50131381
   0.56643594  0.50889649  0.51582799
Direct configuration=    13
   0.47034880  0.46405239  0.50320154
   0.47320408  0.50841680  0.46239271
   0.47241792  0.52103537  0.52071090
   0.48393967  0.49710797  0.49546851
   0.53181848  0.49893506  0.50131793
   0.56643874  0.50889829  0.51582615
Direct configuration=    14
   0.47034858  0.46405195  0.50319919
   0.47320370  0.50841119  0.46239260
   0.47240809  0.52103467  0.52070822
   0.48393932  0.49710736  0.49546886
   0.53182191  0.49894208  0.50132354
   0.56644432  0.50890087  0.51582397
Direct configuration=    15
   0.47034840  0.46405107  0.50319620
   0.47320336  0.50840417  0.46239212
   0.47239541  0.52103369  0.52070471
   0.48393911  0.49710669  0.49546947
   0.53182403  0.49895123  0.50133092
   0.56645337  0.50890410  0.51582127
Direct configuration=    16
   0.47034831  0.46404957  0.50319217
   0.47320309  0.50839480  0.46239111
   0.47237806  0.52103225  0.52069986
   0.48393916  0.49710595  0.49547050
   0.53182488  0.49896379  0.50134112
   0.56646723  0.50890839  0.51581765
Direct configuration=    17
   0.47034840  0.46404726  0.50318687
   0.47320295  0.50838253  0.46238943
   0.47235485  0.52103020  0.52069332
   0.48393958  0.49710524  0.49547220
   0.53182468  0.49898070  0.50135503
   0.56648633  0.50891381  0.51581258
Direct configuration=    18
   0.47034887  0.46404395  0.50318006
   0.47320313  0.50836675  0.46238691
   0.47232429  0.52102736  0.52068468
   0.48394050  0.49710472  0.49547489
   0.53182452  0.49900328  0.50137399
   0.56651040  0.50892011  0.51580507
Direct configuration=    19
   0.47035006  0.46403946  0.50317148
   0.47320390  0.50834683  0.46238338
   0.47228469  0.52102353  0.52067350
   0.48394198  0.49710463  0.49547896
   0.53182633  0.49903307  0.50139966
   0.56653832  0.50892683  0.51579374
Direct configuration=    20
   0.47035258  0.46403367  0.50316095
   0.47320582  0.50832212  0.46237876
   0.47223412  0.52101850  0.52065936
   0.48394426  0.49710530  0.49548488
   0.53183138  0.49907131  0.50143336
   0.56656911  0.50893363  0.51577734
Direct configuration=    21
   0.47035757  0.46402655  0.50314833
   0.47320986  0.50829190  0.46237310
   0.47217024  0.52101206  0.52064178
   0.48394796  0.49710712  0.49549324
   0.53183818  0.49911842  0.50147525
   0.56660356  0.50894105  0.51575549
Direct configuration=    22
   0.47036689  0.46401834  0.50313373
   0.47321763  0.50825560  0.46236673
   0.47209050  0.52100410  0.52062049
   0.48395437  0.49711052  0.49550465
   0.53184077  0.49917297  0.50152314
   0.56664515  0.50895088  0.51572937
Direct configuration=    23
   0.47038314  0.46400964  0.50311759
   0.47323146  0.50821323  0.46236044
   0.47199266  0.52099473  0.52059569
   0.48396336  0.49711592  0.49551931
   0.53183480  0.49923285  0.50157461
   0.56669555  0.50896422  0.51569971
Direct configuration=    24
   0.47040985  0.46400123  0.50310056
   0.47325460  0.50816541  0.46235505
   0.47187369  0.52098420  0.52056787
   0.48397151  0.49712352  0.49553714
   0.53182817  0.49929884  0.50163216
   0.56674663  0.50897831  0.51566225
Direct configuration=    25
   0.47044999  0.46399313  0.50308414
   0.47328995  0.50811461  0.46235072
   0.47173370  0.52097294  0.52053844
   0.48397418  0.49713365  0.49555783
   0.53182770  0.49937009  0.50169651
   0.56679085  0.50898992  0.51561401
Direct configuration=    26
   0.47050650  0.46398301  0.50307168
   0.47334016  0.50806471  0.46234539
   0.47157663  0.52096142  0.52050887
   0.48397121  0.49714694  0.49558174
   0.53181056  0.49943750  0.50175562
   0.56684201  0.50900511  0.51556421
Direct configuration=    27
   0.47057931  0.46396501  0.50306691
   0.47340548  0.50802143  0.46233341
   0.47140714  0.52095021  0.52048093
   0.48395959  0.49716410  0.49560929
   0.53179478  0.49950630  0.50181725
   0.56688101  0.50901646  0.51550537
Direct configuration=    28
   0.47057931  0.46396501  0.50306691
   0.47340548  0.50802143  0.46233341
   0.47140714  0.52095021  0.52048093
   0.48395959  0.49716410  0.49560929
   0.53179478  0.49950630  0.50181725
   0.56688101  0.50901646  0.51550537
