Created on Fri Jan 10 14:01:27 2020 

           6 atoms
           5 bonds
           7 angles
           3 dihedrals

           4 atom types
           3 bond types
           3 angle types
           1 dihedral types
           0.000000  30.000000 xlo xhi
           0.000000  30.000000 ylo yhi
           0.000000  30.000000 zlo zhi
           0.000000   0.000000   0.000000 xy xz yz

Masses

    1     1.007940000 # H_
    2    12.010700000 # C_3
    3    12.010700000 # C_1
    4    14.006700000 # N_2

Bond Coeffs

    1      331.069389        1.109401  # H_ C_3
    2      545.306443        1.436130  # C_3 N_2
    3      607.496018        1.385350  # C_1 N_2

Angle Coeffs

    1                      fourier       61.342703        0.343737        0.374972        0.281246 # H_ C_3 H_
    2                      fourier      108.720859        0.343737        0.374972        0.281246 # H_ C_3 N_2
    3              cosine/periodic      127.513266              -1               3 # C_1 N_2 C_3

Dihedral Coeffs

    1        0.125000               1               3 # H_ C_3 N_2 C_1

Pair Coeffs

    1        0.044000        2.571134 # H_ H_
    2        0.105000        3.430851 # C_3 C_3
    3        0.105000        3.430851 # C_1 C_1
    4        0.069000        3.260689 # N_2 N_2

Atoms

       1        1        1     0.00000   12.76530   15.07350   15.21930
       2        1        1     0.00000   12.76740   16.33890   13.95420
       3        1        1     0.00000   12.76770   16.80210   15.68250
       4        1        2     0.00000   13.14270   16.07100   14.95200
       5        1        3     0.00000   15.74040   16.06200   14.95200
       6        1        4     0.00000   14.55990   16.06710   14.95290

Bonds

       1        1        1        4
       2        1        2        4
       3        1        3        4
       4        2        4        6
       5        3        5        6

Angles

       1        1        1        4        2
       2        1        1        4        3
       3        2        1        4        6
       4        1        2        4        3
       5        2        2        4        6
       6        2        3        4        6
       7        3        5        6        4

Dihedrals

       1        1        1        4        6        5
       2        1        2        4        6        5
       3        1        3        4        6        5
