  22  22   0   0
  0.1227273E+04  0.3000000E-08  0.3000000E-08  0.3000000E-08  0.0000000E+00
  1.000000000000000E-004
  CAR 
 unknown system                          
      2.19899834    -28.21368334  301     -4.49099964      1.00000000
    -28.214  0.0000E+00  0.0000E+00
    -28.112  0.0000E+00  0.0000E+00
    -28.011  0.0000E+00  0.0000E+00
    -27.910  0.0000E+00  0.0000E+00
    -27.808  0.0000E+00  0.0000E+00
    -27.707  0.0000E+00  0.0000E+00
    -27.605  0.0000E+00  0.0000E+00
    -27.504  0.0000E+00  0.0000E+00
    -27.403  0.0000E+00  0.0000E+00
    -27.301  0.4819E-15  0.4885E-16
    -27.200  0.1009E-12  0.1028E-13
    -27.099  0.1281E-10  0.1308E-11
    -26.997  0.9809E-09  0.1007E-09
    -26.896  0.4543E-07  0.4707E-08
    -26.794  0.1275E-05  0.1339E-06
    -26.693  0.2169E-04  0.2333E-05
    -26.592  0.2243E-03  0.2507E-04
    -26.490  0.1412E-02  0.1682E-03
    -26.389  0.5420E-02  0.7177E-03
    -26.288  0.1270E-01  0.2005E-02
    -26.186  0.1818E-01  0.3847E-02
    -26.085  0.1590E-01  0.5460E-02
    -25.983  0.8532E-02  0.6325E-02
    -25.882  0.3059E-02  0.6635E-02
    -25.781  0.2233E-02  0.6861E-02
    -25.679  0.6170E-02  0.7487E-02
    -25.578  0.1354E-01  0.8860E-02
    -25.477  0.1835E-01  0.1072E-01
    -25.375  0.1520E-01  0.1226E-01
    -25.274  0.7696E-02  0.1304E-01
    -25.172  0.2379E-02  0.1328E-01
    -25.071  0.4487E-03  0.1333E-01
    -24.970  0.5153E-04  0.1333E-01
    -24.868  0.3599E-05  0.1333E-01
    -24.767  0.1526E-06  0.1333E-01
    -24.666  0.3919E-08  0.1333E-01
    -24.564  0.6091E-10  0.1333E-01
    -24.463  0.5896E-12  0.1333E-01
    -24.361  0.2659E-11  0.1333E-01
    -24.260  0.2410E-09  0.1333E-01
    -24.159  0.1322E-07  0.1333E-01
    -24.057  0.4390E-06  0.1333E-01
    -23.956  0.8837E-05  0.1333E-01
    -23.855  0.1080E-03  0.1335E-01
    -23.753  0.8036E-03  0.1343E-01
    -23.652  0.3642E-02  0.1380E-01
    -23.550  0.1007E-01  0.1482E-01
    -23.449  0.1702E-01  0.1654E-01
    -23.348  0.1757E-01  0.1832E-01
    -23.246  0.1109E-01  0.1945E-01
    -23.145  0.4298E-02  0.1988E-01
    -23.044  0.1233E-02  0.2001E-01
    -22.942  0.1567E-02  0.2017E-01
    -22.841  0.5459E-02  0.2072E-01
    -22.739  0.1273E-01  0.2201E-01
    -22.638  0.1819E-01  0.2386E-01
    -22.537  0.1588E-01  0.2547E-01
    -22.435  0.8470E-02  0.2632E-01
    -22.334  0.2760E-02  0.2660E-01
    -22.233  0.5486E-03  0.2666E-01
    -22.131  0.6643E-04  0.2667E-01
    -22.030  0.4892E-05  0.2667E-01
    -21.928  0.2187E-06  0.2667E-01
    -21.827  0.5926E-08  0.2667E-01
    -21.726  0.9716E-10  0.2667E-01
    -21.624  0.9626E-12  0.2667E-01
    -21.523  0.5753E-14  0.2667E-01
    -21.422  0.2190E-16  0.2667E-01
    -21.320  0.0000E+00  0.2667E-01
    -21.219  0.0000E+00  0.2667E-01
    -21.117  0.0000E+00  0.2667E-01
    -21.016  0.0000E+00  0.2667E-01
    -20.915  0.0000E+00  0.2667E-01
    -20.813  0.0000E+00  0.2667E-01
    -20.712  0.6571E-16  0.2667E-01
    -20.611  0.1619E-13  0.2667E-01
    -20.509  0.2455E-11  0.2667E-01
    -20.408  0.2247E-09  0.2667E-01
    -20.306  0.1243E-07  0.2667E-01
    -20.205  0.4161E-06  0.2667E-01
    -20.104  0.8445E-05  0.2667E-01
    -20.002  0.1041E-03  0.2668E-01
    -19.901  0.7807E-03  0.2676E-01
    -19.800  0.3567E-02  0.2712E-01
    -19.698  0.9947E-02  0.2813E-01
    -19.597  0.1694E-01  0.2984E-01
    -19.495  0.1763E-01  0.3163E-01
    -19.394  0.1122E-01  0.3277E-01
    -19.293  0.4361E-02  0.3321E-01
    -19.191  0.1035E-02  0.3332E-01
    -19.090  0.1496E-03  0.3333E-01
    -18.989  0.1317E-04  0.3333E-01
    -18.887  0.1062E-05  0.3333E-01
    -18.786  0.7464E-05  0.3333E-01
    -18.684  0.9384E-04  0.3334E-01
    -18.583  0.7198E-03  0.3342E-01
    -18.482  0.3364E-02  0.3376E-01
    -18.380  0.9594E-02  0.3473E-01
    -18.279  0.1671E-01  0.3642E-01
    -18.177  0.1779E-01  0.3823E-01
    -18.076  0.1158E-01  0.3940E-01
    -17.975  0.4603E-02  0.3987E-01
    -17.873  0.1125E-02  0.3998E-01
    -17.772  0.2688E-03  0.4001E-01
    -17.671  0.7930E-03  0.4009E-01
    -17.569  0.3560E-02  0.4045E-01
    -17.468  0.9933E-02  0.4146E-01
    -17.366  0.1693E-01  0.4317E-01
    -17.265  0.1764E-01  0.4496E-01
    -17.164  0.1123E-01  0.4610E-01
    -17.062  0.4370E-02  0.4654E-01
    -16.961  0.1038E-02  0.4665E-01
    -16.860  0.1502E-03  0.4667E-01
    -16.758  0.1391E-04  0.4667E-01
    -16.657  0.1360E-04  0.4667E-01
    -16.555  0.1471E-03  0.4668E-01
    -16.454  0.1021E-02  0.4679E-01
    -16.353  0.4321E-02  0.4722E-01
    -16.251  0.1116E-01  0.4836E-01
    -16.150  0.1761E-01  0.5014E-01
    -16.049  0.1698E-01  0.5186E-01
    -15.947  0.1001E-01  0.5288E-01
    -15.846  0.3602E-02  0.5324E-01
    -15.744  0.7913E-03  0.5332E-01
    -15.643  0.1059E-03  0.5333E-01
    -15.542  0.8626E-05  0.5333E-01
    -15.440  0.4341E-06  0.5333E-01
    -15.339  0.2806E-06  0.5333E-01
    -15.238  0.5811E-05  0.5333E-01
    -15.136  0.7657E-04  0.5334E-01
    -15.035  0.6136E-03  0.5340E-01
    -14.933  0.2996E-02  0.5371E-01
    -14.832  0.8923E-02  0.5461E-01
    -14.731  0.1623E-01  0.5626E-01
    -14.629  0.1805E-01  0.5809E-01
    -14.528  0.1227E-01  0.5933E-01
    -14.427  0.5124E-02  0.5985E-01
    -14.325  0.1594E-02  0.6001E-01
    -14.224  0.1974E-02  0.6021E-01
    -14.122  0.6352E-02  0.6086E-01
    -14.021  0.1380E-01  0.6226E-01
    -13.920  0.1838E-01  0.6412E-01
    -13.818  0.1496E-01  0.6564E-01
    -13.717  0.7484E-02  0.6639E-01
    -13.616  0.2642E-02  0.6666E-01
    -13.514  0.2527E-02  0.6692E-01
    -13.413  0.7155E-02  0.6764E-01
    -13.311  0.1464E-01  0.6913E-01
    -13.210  0.1841E-01  0.7099E-01
    -13.109  0.1416E-01  0.7243E-01
    -13.007  0.6690E-02  0.7311E-01
    -12.906  0.2280E-02  0.7334E-01
    -12.805  0.2404E-02  0.7358E-01
    -12.703  0.7059E-02  0.7430E-01
    -12.602  0.1455E-01  0.7577E-01
    -12.500  0.1841E-01  0.7764E-01
    -12.399  0.1424E-01  0.7908E-01
    -12.298  0.6732E-02  0.7976E-01
    -12.196  0.1943E-02  0.7996E-01
    -12.095  0.3494E-03  0.8000E-01
    -11.994  0.1301E-03  0.8001E-01
    -11.892  0.7216E-03  0.8008E-01
    -11.791  0.3393E-02  0.8043E-01
    -11.689  0.9942E-02  0.8143E-01
    -11.588  0.1875E-01  0.8334E-01
    -11.487  0.2477E-01  0.8585E-01
    -11.385  0.2610E-01  0.8849E-01
    -11.284  0.2317E-01  0.9084E-01
    -11.183  0.1648E-01  0.9251E-01
    -11.081  0.1199E-01  0.9373E-01
    -10.980  0.1703E-01  0.9546E-01
    -10.878  0.2897E-01  0.9839E-01
    -10.777  0.3501E-01  0.1019E+00
    -10.676  0.2787E-01  0.1048E+00
    -10.574  0.1624E-01  0.1064E+00
    -10.473  0.1259E-01  0.1077E+00
    -10.372  0.1866E-01  0.1096E+00
    -10.270  0.2746E-01  0.1124E+00
    -10.169  0.3467E-01  0.1159E+00
    -10.067  0.4131E-01  0.1201E+00
     -9.966  0.4561E-01  0.1247E+00
     -9.865  0.4133E-01  0.1289E+00
     -9.763  0.2755E-01  0.1317E+00
     -9.662  0.1360E-01  0.1331E+00
     -9.561  0.8882E-02  0.1340E+00
     -9.459  0.1408E-01  0.1354E+00
     -9.358  0.2290E-01  0.1377E+00
     -9.256  0.2959E-01  0.1407E+00
     -9.155  0.3387E-01  0.1441E+00
     -9.054  0.3519E-01  0.1477E+00
     -8.952  0.3111E-01  0.1509E+00
     -8.851  0.2498E-01  0.1534E+00
     -8.750  0.2382E-01  0.1558E+00
     -8.648  0.2724E-01  0.1586E+00
     -8.547  0.2895E-01  0.1615E+00
     -8.445  0.2513E-01  0.1640E+00
     -8.344  0.1627E-01  0.1657E+00
     -8.243  0.7170E-02  0.1664E+00
     -8.141  0.2023E-02  0.1666E+00
     -8.040  0.3547E-03  0.1667E+00
     -7.939  0.3814E-04  0.1667E+00
     -7.837  0.2500E-05  0.1667E+00
     -7.736  0.9954E-07  0.1667E+00
     -7.634  0.2536E-08  0.1667E+00
     -7.533  0.7895E-08  0.1667E+00
     -7.432  0.2796E-06  0.1667E+00
     -7.330  0.6028E-05  0.1667E+00
     -7.229  0.7891E-04  0.1667E+00
     -7.128  0.6283E-03  0.1667E+00
     -7.026  0.3048E-02  0.1670E+00
     -6.925  0.9021E-02  0.1680E+00
     -6.823  0.1631E-01  0.1696E+00
     -6.722  0.1802E-01  0.1714E+00
     -6.621  0.1229E-01  0.1727E+00
     -6.519  0.5902E-02  0.1733E+00
     -6.418  0.5164E-02  0.1738E+00
     -6.317  0.1071E-01  0.1749E+00
     -6.215  0.1749E-01  0.1767E+00
     -6.114  0.1867E-01  0.1786E+00
     -6.012  0.1582E-01  0.1802E+00
     -5.911  0.1637E-01  0.1818E+00
     -5.810  0.1916E-01  0.1838E+00
     -5.708  0.1745E-01  0.1855E+00
     -5.607  0.1356E-01  0.1869E+00
     -5.506  0.1469E-01  0.1884E+00
     -5.404  0.1846E-01  0.1903E+00
     -5.303  0.1668E-01  0.1920E+00
     -5.201  0.9446E-02  0.1929E+00
     -5.100  0.3278E-02  0.1933E+00
     -4.999  0.6943E-03  0.1933E+00
     -4.897  0.8961E-04  0.1933E+00
     -4.796  0.7036E-05  0.1933E+00
     -4.695  0.3354E-06  0.1933E+00
     -4.593  0.9694E-08  0.1933E+00
     -4.492  0.1696E-09  0.1933E+00
     -4.390  0.1793E-11  0.1933E+00
     -4.289  0.1144E-13  0.1933E+00
     -4.188  0.4381E-16  0.1933E+00
     -4.086  0.0000E+00  0.1933E+00
     -3.985  0.0000E+00  0.1933E+00
     -3.884  0.0000E+00  0.1933E+00
     -3.782  0.0000E+00  0.1933E+00
     -3.681  0.0000E+00  0.1933E+00
     -3.579  0.0000E+00  0.1933E+00
     -3.478  0.0000E+00  0.1933E+00
     -3.377  0.0000E+00  0.1933E+00
     -3.275  0.0000E+00  0.1933E+00
     -3.174  0.0000E+00  0.1933E+00
     -3.073  0.0000E+00  0.1933E+00
     -2.971  0.0000E+00  0.1933E+00
     -2.870  0.0000E+00  0.1933E+00
     -2.768  0.0000E+00  0.1933E+00
     -2.667  0.0000E+00  0.1933E+00
     -2.566  0.0000E+00  0.1933E+00
     -2.464  0.0000E+00  0.1933E+00
     -2.363  0.3651E-17  0.1933E+00
     -2.262  0.6352E-15  0.1933E+00
     -2.160  0.1306E-12  0.1933E+00
     -2.059  0.1614E-10  0.1933E+00
     -1.957  0.1206E-08  0.1933E+00
     -1.856  0.5445E-07  0.1933E+00
     -1.755  0.1490E-05  0.1933E+00
     -1.653  0.2477E-04  0.1933E+00
     -1.552  0.2508E-03  0.1934E+00
     -1.451  0.1557E-02  0.1935E+00
     -1.349  0.5995E-02  0.1941E+00
     -1.248  0.1471E-01  0.1956E+00
     -1.146  0.2423E-01  0.1981E+00
     -1.045  0.2897E-01  0.2010E+00
     -0.944  0.2647E-01  0.2037E+00
     -0.842  0.1808E-01  0.2055E+00
     -0.741  0.9386E-02  0.2065E+00
     -0.640  0.7234E-02  0.2072E+00
     -0.538  0.1454E-01  0.2087E+00
     -0.437  0.2879E-01  0.2116E+00
     -0.335  0.4330E-01  0.2160E+00
     -0.234  0.5266E-01  0.2213E+00
     -0.133  0.5953E-01  0.2274E+00
     -0.031  0.7469E-01  0.2349E+00
      0.070  0.1004E+00  0.2451E+00
      0.171  0.1141E+00  0.2567E+00
      0.273  0.9259E-01  0.2661E+00
      0.374  0.4994E-01  0.2711E+00
      0.476  0.1735E-01  0.2729E+00
      0.577  0.3817E-02  0.2733E+00
      0.678  0.5271E-03  0.2733E+00
      0.780  0.4532E-04  0.2733E+00
      0.881  0.2412E-05  0.2733E+00
      0.982  0.7903E-07  0.2733E+00
      1.084  0.1588E-08  0.2733E+00
      1.185  0.1947E-10  0.2733E+00
      1.287  0.1454E-12  0.2733E+00
      1.388  0.6589E-15  0.2733E+00
      1.489  0.0000E+00  0.2733E+00
      1.591  0.0000E+00  0.2733E+00
      1.692  0.0000E+00  0.2733E+00
      1.793  0.0000E+00  0.2733E+00
      1.895  0.0000E+00  0.2733E+00
      1.996  0.0000E+00  0.2733E+00
      2.098  0.0000E+00  0.2733E+00
      2.199  0.0000E+00  0.2733E+00
