   22   22  300    1
  0.1227273E+04  0.3000000E-08  0.3000000E-08  0.3000000E-08  0.0000000E+00
  1.000000000000000E-004
  CAR 
 unknown system                          
     58      4     41
 
  0.2500000E+00  0.2500000E+00  0.2500000E+00  0.2500000E+00
    1      -26.213683   1.000000
    2      -25.515299   1.000000
    3      -23.442429   1.000000
    4      -22.665996   1.000000
    5      -19.588490   1.000000
    6      -18.265981   1.000000
    7      -17.358044   1.000000
    8      -16.157476   1.000000
    9      -14.708899   1.000000
   10      -13.962103   1.000000
   11      -13.264208   1.000000
   12      -12.553333   1.000000
   13      -11.574927   1.000000
   14      -11.336082   1.000000
   15      -10.879511   1.000000
   16      -10.785850   1.000000
   17      -10.332921   1.000000
   18      -10.129899   1.000000
   19       -9.978039   1.000000
   20       -9.891137   1.000000
   21       -9.380713   1.000000
   22       -9.162845   1.000000
   23       -9.010233   1.000000
   24       -8.701772   1.000000
   25       -8.496783   1.000000
   26       -6.802913   1.000000
   27       -6.214100   1.000000
   28       -5.832603   1.000000
   29       -5.419122   1.000000
   30       -1.179028   0.000000
   31       -0.980191   0.000000
   32       -0.441049   0.000000
   33       -0.300274   0.000000
   34       -0.213389   0.000000
   35       -0.058668   0.000000
   36        0.048758   0.000000
   37        0.115122   0.000000
   38        0.128855   0.000000
   39        0.138826   0.000000
   40        0.187489   0.000000
   41        0.198998   0.000000
 
 -0.2500000E+00  0.2500000E+00  0.2500000E+00  0.2500000E+00
    1      -26.213681   1.000000
    2      -25.515299   1.000000
    3      -23.442430   1.000000
    4      -22.665996   1.000000
    5      -19.588490   1.000000
    6      -18.265982   1.000000
    7      -17.358045   1.000000
    8      -16.157472   1.000000
    9      -14.708899   1.000000
   10      -13.962114   1.000000
   11      -13.264207   1.000000
   12      -12.553332   1.000000
   13      -11.574932   1.000000
   14      -11.336081   1.000000
   15      -10.879514   1.000000
   16      -10.785847   1.000000
   17      -10.332927   1.000000
   18      -10.129895   1.000000
   19       -9.978040   1.000000
   20       -9.891142   1.000000
   21       -9.380721   1.000000
   22       -9.162844   1.000000
   23       -9.010234   1.000000
   24       -8.701767   1.000000
   25       -8.496781   1.000000
   26       -6.802917   1.000000
   27       -6.214106   1.000000
   28       -5.832592   1.000000
   29       -5.419091   1.000000
   30       -1.179033   0.000000
   31       -0.980191   0.000000
   32       -0.441071   0.000000
   33       -0.300275   0.000000
   34       -0.213384   0.000000
   35       -0.058590   0.000000
   36        0.048109   0.000000
   37        0.111538   0.000000
   38        0.132077   0.000000
   39        0.145507   0.000000
   40        0.180037   0.000000
   41        0.197365   0.000000
 
  0.2500000E+00 -0.2500000E+00  0.2500000E+00  0.2500000E+00
    1      -26.213683   1.000000
    2      -25.515298   1.000000
    3      -23.442432   1.000000
    4      -22.665995   1.000000
    5      -19.588491   1.000000
    6      -18.265980   1.000000
    7      -17.358044   1.000000
    8      -16.157473   1.000000
    9      -14.708902   1.000000
   10      -13.962114   1.000000
   11      -13.264211   1.000000
   12      -12.553333   1.000000
   13      -11.574933   1.000000
   14      -11.336083   1.000000
   15      -10.879521   1.000000
   16      -10.785852   1.000000
   17      -10.332921   1.000000
   18      -10.129901   1.000000
   19       -9.978034   1.000000
   20       -9.891148   1.000000
   21       -9.380713   1.000000
   22       -9.162854   1.000000
   23       -9.010233   1.000000
   24       -8.701754   1.000000
   25       -8.496781   1.000000
   26       -6.802910   1.000000
   27       -6.214097   1.000000
   28       -5.832595   1.000000
   29       -5.419104   1.000000
   30       -1.179037   0.000000
   31       -0.980191   0.000000
   32       -0.441047   0.000000
   33       -0.300268   0.000000
   34       -0.213390   0.000000
   35       -0.058715   0.000000
   36        0.047392   0.000000
   37        0.115954   0.000000
   38        0.126460   0.000000
   39        0.148754   0.000000
   40        0.181636   0.000000
   41        0.197074   0.000000
 
 -0.2500000E+00 -0.2500000E+00  0.2500000E+00  0.2500000E+00
    1      -26.213682   1.000000
    2      -25.515300   1.000000
    3      -23.442431   1.000000
    4      -22.666000   1.000000
    5      -19.588488   1.000000
    6      -18.265982   1.000000
    7      -17.358046   1.000000
    8      -16.157473   1.000000
    9      -14.708900   1.000000
   10      -13.962109   1.000000
   11      -13.264210   1.000000
   12      -12.553334   1.000000
   13      -11.574936   1.000000
   14      -11.336091   1.000000
   15      -10.879511   1.000000
   16      -10.785859   1.000000
   17      -10.332920   1.000000
   18      -10.129896   1.000000
   19       -9.978034   1.000000
   20       -9.891136   1.000000
   21       -9.380724   1.000000
   22       -9.162847   1.000000
   23       -9.010227   1.000000
   24       -8.701765   1.000000
   25       -8.496793   1.000000
   26       -6.802925   1.000000
   27       -6.214103   1.000000
   28       -5.832616   1.000000
   29       -5.419098   1.000000
   30       -1.179048   0.000000
   31       -0.980189   0.000000
   32       -0.441053   0.000000
   33       -0.300267   0.000000
   34       -0.213394   0.000000
   35       -0.058706   0.000000
   36        0.047577   0.000000
   37        0.118774   0.000000
   38        0.131839   0.000000
   39        0.138309   0.000000
   40        0.178646   0.000000
   41        0.195321   0.000000
