 vasp.5.4.1 24Jun15 (build Jan 13 2020 12:58:22) complex                        
  
 executed on           IFC91_ompi date 2020.02.03  09:56:59
 running on   15 total cores
 each image running on    1 cores
 distrk:  each k-point on    1 cores,    1 groups
 distr:  one band on NCORES_PER_BAND=   1 cores,    1 groups


--------------------------------------------------------------------------------------------------------


 INCAR:
 POTCAR:    PAW_PBE H 15Jun2001                   
 POTCAR:    PAW_PBE C 08Apr2002                   
 POTCAR:    PAW_PBE N 08Apr2002                   
 POTCAR:    PAW_PBE O 08Apr2002                   
 POTCAR:    PAW_PBE H 15Jun2001                   
   VRHFIN =H: ultrasoft test                                                    
   LEXCH  = PE                                                                  
   EATOM  =    12.4884 eV,    0.9179 Ry                                         
                                                                                
   TITEL  = PAW_PBE H 15Jun2001                                                 
   LULTRA =        F    use ultrasoft PP ?                                      
   IUNSCR =        0    unscreen: 0-lin 1-nonlin 2-no                           
   RPACOR =    0.000    partial core radius                                     
   POMASS =    1.000; ZVAL   =    1.000    mass and valenz                      
   RCORE  =    1.100    outmost cutoff radius                                   
   RWIGS  =    0.700; RWIGS  =    0.370    wigner-seitz radius (au A)           
   ENMAX  =  250.000; ENMIN  =  200.000 eV                                      
   RCLOC  =    0.701    cutoff for local pot                                    
   LCOR   =        T    correct aug charges                                     
   LPAW   =        T    paw PP                                                  
   EAUG   =  400.000                                                            
   RMAX   =    1.123    core radius for proj-oper                               
   RAUG   =    1.200    factor for augmentation sphere                          
   RDEP   =    1.112    radius for radial grids                                 
   RDEPT  =    0.926    core radius for aug-charge                              
                                                                                
   Atomic configuration                                                         
    2 entries                                                                   
     n  l   j            E        occ.                                          
     1  0  0.50        -6.4927   1.0000                                         
     2  1  0.50        -3.4015   0.0000                                         
   Description                                                                  
     l       E           TYP  RCUT    TYP  RCUT                                 
     0     -6.4927494     23  1.100                                             
     0      6.8029130     23  1.100                                             
     1     -4.0817478     23  1.100                                             
  local pseudopotential read in
  atomic valenz-charges read in
  non local Contribution for L=           0  read in
    real space projection operators read in
  non local Contribution for L=           0  read in
    real space projection operators read in
  non local Contribution for L=           1  read in
    real space projection operators read in
    PAW grid and wavefunctions read in
 
   number of l-projection  operators is LMAX  =           3
   number of lm-projection operators is LMMAX =           5
 
 POTCAR:    PAW_PBE C 08Apr2002                   
   VRHFIN =C: s2p2                                                              
   LEXCH  = PE                                                                  
   EATOM  =   147.1560 eV,   10.8157 Ry                                         
                                                                                
   TITEL  = PAW_PBE C 08Apr2002                                                 
   LULTRA =        F    use ultrasoft PP ?                                      
   IUNSCR =        1    unscreen: 0-lin 1-nonlin 2-no                           
   RPACOR =    1.200    partial core radius                                     
   POMASS =   12.011; ZVAL   =    4.000    mass and valenz                      
   RCORE  =    1.500    outmost cutoff radius                                   
   RWIGS  =    1.630; RWIGS  =    0.863    wigner-seitz radius (au A)           
   ENMAX  =  400.000; ENMIN  =  300.000 eV                                      
   ICORE  =        2    local potential                                         
   LCOR   =        T    correct aug charges                                     
   LPAW   =        T    paw PP                                                  
   EAUG   =  644.873                                                            
   DEXC   =    0.000                                                            
   RMAX   =    1.529    core radius for proj-oper                               
   RAUG   =    1.300    factor for augmentation sphere                          
   RDEP   =    1.501    radius for radial grids                                 
   RDEPT  =    1.300    core radius for aug-charge                              
                                                                                
   Atomic configuration                                                         
    4 entries                                                                   
     n  l   j            E        occ.                                          
     1  0  0.50      -273.3789   2.0000                                         
     2  0  0.50       -13.7508   2.0000                                         
     2  1  0.50        -5.2854   2.0000                                         
     3  2  1.50        -5.4423   0.0000                                         
   Description                                                                  
     l       E           TYP  RCUT    TYP  RCUT                                 
     0    -13.7508458     23  1.200                                             
     0     -8.2022199     23  1.200                                             
     1     -5.2854383     23  1.500                                             
     1     34.0145650     23  1.500                                             
     2     -5.4423304      7  1.500                                             
  local pseudopotential read in
  partial core-charges read in
  partial kinetic energy density read in
  atomic valenz-charges read in
  non local Contribution for L=           0  read in
    real space projection operators read in
  non local Contribution for L=           0  read in
    real space projection operators read in
  non local Contribution for L=           1  read in
    real space projection operators read in
  non local Contribution for L=           1  read in
    real space projection operators read in
    PAW grid and wavefunctions read in
 
   number of l-projection  operators is LMAX  =           4
   number of lm-projection operators is LMMAX =           8
 
 POTCAR:    PAW_PBE N 08Apr2002                   
   VRHFIN =N: s2p3                                                              
   LEXCH  = PE                                                                  
   EATOM  =   264.5486 eV,   19.4438 Ry                                         
                                                                                
   TITEL  = PAW_PBE N 08Apr2002                                                 
   LULTRA =        F    use ultrasoft PP ?                                      
   IUNSCR =        1    unscreen: 0-lin 1-nonlin 2-no                           
   RPACOR =    1.200    partial core radius                                     
   POMASS =   14.001; ZVAL   =    5.000    mass and valenz                      
   RCORE  =    1.500    outmost cutoff radius                                   
   RWIGS  =    1.400; RWIGS  =    0.741    wigner-seitz radius (au A)           
   ENMAX  =  400.000; ENMIN  =  300.000 eV                                      
   ICORE  =        2    local potential                                         
   LCOR   =        T    correct aug charges                                     
   LPAW   =        T    paw PP                                                  
   EAUG   =  627.112                                                            
   DEXC   =    0.000                                                            
   RMAX   =    1.529    core radius for proj-oper                               
   RAUG   =    1.300    factor for augmentation sphere                          
   RDEP   =    1.514    radius for radial grids                                 
   RDEPT  =    1.338    core radius for aug-charge                              
                                                                                
   Atomic configuration                                                         
    4 entries                                                                   
     n  l   j            E        occ.                                          
     1  0  0.50      -384.7179   2.0000                                         
     2  0  0.50       -18.5828   2.0000                                         
     2  1  0.50        -7.0898   3.0000                                         
     3  2  1.50        -6.8029   0.0000                                         
   Description                                                                  
     l       E           TYP  RCUT    TYP  RCUT                                 
     0    -18.5828119     23  1.200                                             
     0    -13.5018863     23  1.200                                             
     1     -7.0897853     23  1.500                                             
     1      9.5240782     23  1.500                                             
     2     -6.8029130      7  1.500                                             
  local pseudopotential read in
  partial core-charges read in
  partial kinetic energy density read in
  atomic valenz-charges read in
  non local Contribution for L=           0  read in
    real space projection operators read in
  non local Contribution for L=           0  read in
    real space projection operators read in
  non local Contribution for L=           1  read in
    real space projection operators read in
  non local Contribution for L=           1  read in
    real space projection operators read in
    PAW grid and wavefunctions read in
 
   number of l-projection  operators is LMAX  =           4
   number of lm-projection operators is LMMAX =           8
 
 POTCAR:    PAW_PBE O 08Apr2002                   
   VRHFIN =O: s2p4                                                              
   LEXCH  = PE                                                                  
   EATOM  =   432.3788 eV,   31.7789 Ry                                         
                                                                                
   TITEL  = PAW_PBE O 08Apr2002                                                 
   LULTRA =        F    use ultrasoft PP ?                                      
   IUNSCR =        1    unscreen: 0-lin 1-nonlin 2-no                           
   RPACOR =    1.200    partial core radius                                     
   POMASS =   16.000; ZVAL   =    6.000    mass and valenz                      
   RCORE  =    1.520    outmost cutoff radius                                   
   RWIGS  =    1.550; RWIGS  =    0.820    wigner-seitz radius (au A)           
   ENMAX  =  400.000; ENMIN  =  300.000 eV                                      
   ICORE  =        2    local potential                                         
   LCOR   =        T    correct aug charges                                     
   LPAW   =        T    paw PP                                                  
   EAUG   =  605.392                                                            
   DEXC   =    0.000                                                            
   RMAX   =    1.553    core radius for proj-oper                               
   RAUG   =    1.300    factor for augmentation sphere                          
   RDEP   =    1.550    radius for radial grids                                 
   RDEPT  =    1.329    core radius for aug-charge                              
                                                                                
   Atomic configuration                                                         
    4 entries                                                                   
     n  l   j            E        occ.                                          
     1  0  0.50      -514.6923   2.0000                                         
     2  0  0.50       -23.9615   2.0000                                         
     2  1  0.50        -9.0305   4.0000                                         
     3  2  1.50        -9.5241   0.0000                                         
   Description                                                                  
     l       E           TYP  RCUT    TYP  RCUT                                 
     0    -23.9615318     23  1.200                                             
     0     -9.5240782     23  1.200                                             
     1     -9.0304911     23  1.520                                             
     1      8.1634956     23  1.520                                             
     2     -9.5240782      7  1.500                                             
  local pseudopotential read in
  partial core-charges read in
  partial kinetic energy density read in
  kinetic energy density of atom read in
  atomic valenz-charges read in
  non local Contribution for L=           0  read in
    real space projection operators read in
  non local Contribution for L=           0  read in
    real space projection operators read in
  non local Contribution for L=           1  read in
    real space projection operators read in
  non local Contribution for L=           1  read in
    real space projection operators read in
    PAW grid and wavefunctions read in
 
   number of l-projection  operators is LMAX  =           4
   number of lm-projection operators is LMMAX =           8
 
 Optimization of the real space projectors (new method)

 maximal supplied QI-value         = 34.20
 optimisation between [QCUT,QGAM] = [  9.92, 20.18] = [ 27.55,114.04] Ry 
 Optimized for a Real-space Cutoff    1.26 Angstroem

   l    n(q)    QCUT    max X(q) W(low)/X(q) W(high)/X(q)  e(spline) 
   0      8     9.919    19.460    0.50E-03    0.23E-03    0.29E-06
   0      8     9.919    12.209    0.48E-03    0.23E-03    0.28E-06
   1      7     9.919     4.655    0.17E-03    0.75E-03    0.30E-06
 Optimization of the real space projectors (new method)

 maximal supplied QI-value         = 25.13
 optimisation between [QCUT,QGAM] = [ 10.05, 20.36] = [ 28.30,116.06] Ry 
 Optimized for a Real-space Cutoff    1.30 Angstroem

   l    n(q)    QCUT    max X(q) W(low)/X(q) W(high)/X(q)  e(spline) 
   0      8    10.053   115.676    0.49E-03    0.72E-03    0.18E-06
   0      8    10.053    87.132    0.49E-03    0.71E-03    0.18E-06
   1      7    10.053     4.429    0.32E-03    0.31E-03    0.18E-06
   1      7    10.053     2.733    0.23E-03    0.19E-03    0.20E-06
 Optimization of the real space projectors (new method)

 maximal supplied QI-value         = 25.13
 optimisation between [QCUT,QGAM] = [ 10.05, 20.36] = [ 28.30,116.06] Ry 
 Optimized for a Real-space Cutoff    1.65 Angstroem

   l    n(q)    QCUT    max X(q) W(low)/X(q) W(high)/X(q)  e(spline) 
   0     10    10.053    79.467    0.76E-04    0.72E-04    0.56E-06
   0     10    10.053    66.151    0.76E-04    0.72E-04    0.55E-06
   1     10    10.053     8.350    0.25E-03    0.92E-03    0.41E-05
   1     10    10.053     5.531    0.27E-03    0.10E-02    0.45E-05
 Optimization of the real space projectors (new method)

 maximal supplied QI-value         = 24.76
 optimisation between [QCUT,QGAM] = [ 10.15, 20.30] = [ 28.85,115.39] Ry 
 Optimized for a Real-space Cutoff    1.38 Angstroem

   l    n(q)    QCUT    max X(q) W(low)/X(q) W(high)/X(q)  e(spline) 
   0      8    10.150    20.381    0.22E-03    0.32E-03    0.29E-06
   0      8    10.150    15.268    0.23E-03    0.35E-03    0.30E-06
   1      8    10.150     5.964    0.46E-03    0.53E-03    0.21E-06
   1      8    10.150     5.382    0.38E-03    0.45E-03    0.19E-06
  PAW_PBE H 15Jun2001                   :
 energy of atom  1       EATOM=  -12.4884
 kinetic energy error for atom=    0.0098 (will be added to EATOM!!)
  PAW_PBE C 08Apr2002                   :
 energy of atom  2       EATOM= -147.1560
 kinetic energy error for atom=    0.0288 (will be added to EATOM!!)
  PAW_PBE N 08Apr2002                   :
 energy of atom  3       EATOM= -264.5486
 kinetic energy error for atom=    0.0736 (will be added to EATOM!!)
  PAW_PBE O 08Apr2002                   :
 energy of atom  4       EATOM= -432.3788
 kinetic energy error for atom=    0.1156 (will be added to EATOM!!)
 
 
 POSCAR: H12 C6 N2 O2                            
  positions in direct lattice
  velocities in cartesian coordinates
 exchange correlation table for  LEXCH =        8
   RHO(1)=    0.500       N(1)  =     2000
   RHO(2)=  100.500       N(2)  =     4000

 VTST: version 3.2, (02/03/18)

 CHAIN: initializing optimizer
 
 OPT: Using FIRE optimizer
 OPT: FIRE, Init
 OPT: FIRE, MAXMOVE       0.20000
 OPT: FIRE, TIMESTEP      0.10000
 OPT: FIRE, FTIMEMAX      1.00000
 OPT: FIRE, FTIMEINC      1.10000
 OPT: FIRE, FTIMEDEC      0.50000
 OPT: FIRE, FALPHADEC     0.99000
 OPT: FIRE, FALPHA        0.10000
 OPT: FIRE, FNMIN         5
 
 CHAIN: Read ICHAIN            0
 CHAIN: Running the NEB
 NEB:          SPRING     -5.000000
 NEB:          LCLIMB      T
 NEB:     LTANGENTOLD      F
 NEB:           LDNEB      F
 NEB:        LDNEBORG      F
 NEB:        LNEBCELL      F
 NEB:          EFIRST      0.000000
 NEB:           ELAST      0.000000
 
 POSCAR: H12 C6 N2 O2                            
  positions in direct lattice
  No initial velocities read in
 
 POSCAR: H12 C6 N2 O2                            
  positions in direct lattice
  No initial velocities read in
 


--------------------------------------------------------------------------------------------------------


 ion  position               nearest neighbor table
   1  0.378  0.533  0.493-  13 1.09
   2  0.380  0.481  0.465-  13 1.10
   3  0.386  0.482  0.524-  13 1.10
   4  0.451  0.440  0.501-  19 1.02
   5  0.523  0.426  0.492-  15 1.10
   6  0.568  0.467  0.436-  16 1.10
   7  0.526  0.509  0.431-  16 1.10
   8  0.515  0.453  0.414-  16 1.10
   9  0.515  0.544  0.509-  20 1.03
  10  0.555  0.546  0.594-  18 1.10
  11  0.601  0.546  0.557-  18 1.10
  12  0.561  0.590  0.554-  18 1.10
  13  0.394  0.500  0.493-   1 1.09   2 1.10   3 1.10  14 1.52
  14  0.444  0.505  0.487-  21 1.24  19 1.36  13 1.52
  15  0.517  0.462  0.486-   5 1.10  19 1.47  16 1.53  17 1.55
  16  0.532  0.474  0.439-   7 1.10   6 1.10   8 1.10  15 1.53
  17  0.546  0.485  0.523-  22 1.24  20 1.35  15 1.55
  18  0.566  0.554  0.560-  12 1.10  11 1.10  10 1.10  20 1.45
  19  0.468  0.468  0.492-   4 1.02  14 1.36  15 1.47
  20  0.540  0.529  0.527-   9 1.03  17 1.35  18 1.45
  21  0.461  0.542  0.479-  14 1.24
  22  0.573  0.462  0.544-  17 1.24
 
  LATTYP: Found a simple cubic cell.
 ALAT       =    30.0000000000
  
  Lattice vectors:
  
 A1 = (  30.0000000000,   0.0000000000,   0.0000000000)
 A2 = (   0.0000000000,  30.0000000000,   0.0000000000)
 A3 = (   0.0000000000,   0.0000000000,  30.0000000000)


Analysis of symmetry for initial positions (statically):
=====================================================================
 Subroutine PRICEL returns:
 Original cell was already a primitive cell.
 

 Routine SETGRP: Setting up the symmetry group for a 
 simple cubic supercell.


 Subroutine GETGRP returns: Found  1 space group operations
 (whereof  1 operations were pure point group operations)
 out of a pool of 48 trial point group operations.


The static configuration has the point symmetry C_1 .


Analysis of symmetry for dynamics (positions and initial velocities):
=====================================================================
 Subroutine PRICEL returns:
 Original cell was already a primitive cell.
 

 Routine SETGRP: Setting up the symmetry group for a 
 simple cubic supercell.


 Subroutine GETGRP returns: Found  1 space group operations
 (whereof  1 operations were pure point group operations)
 out of a pool of 48 trial point group operations.


The dynamic configuration has the point symmetry C_1 .
 
 
 KPOINTS: Mo2C                                    

Automatic generation of k-mesh.
Space group operators:
 irot       det(A)        alpha          n_x          n_y          n_z        tau_x        tau_y        tau_z
    1     1.000000     0.000000     1.000000     0.000000     0.000000     0.000000     0.000000     0.000000
 
 Subroutine IBZKPT returns following result:
 ===========================================
 
 Found      4 irreducible k-points:
 
 Following reciprocal coordinates:
            Coordinates               Weight
  0.250000  0.250000  0.250000      2.000000
 -0.250000  0.250000  0.250000      2.000000
  0.250000 -0.250000  0.250000      2.000000
 -0.250000 -0.250000  0.250000      2.000000
 
 Following cartesian coordinates:
            Coordinates               Weight
  0.008333  0.008333  0.008333      2.000000
 -0.008333  0.008333  0.008333      2.000000
  0.008333 -0.008333  0.008333      2.000000
 -0.008333 -0.008333  0.008333      2.000000
 


--------------------------------------------------------------------------------------------------------




 Dimension of arrays:
   k-points           NKPTS =      4   k-points in BZ     NKDIM =      4   number of bands    NBANDS=     41
   number of dos      NEDOS =    301   number of ions     NIONS =     22
   non local maximal  LDIM  =      4   non local SUM 2l+1 LMDIM =      8
   total plane-waves  NPLWV = ******
   max r-space proj   IRMAX =   2395   max aug-charges    IRDMAX=   1821
   dimension x,y,z NGX =   150 NGY =  150 NGZ =  150
   dimension x,y,z NGXF=   300 NGYF=  300 NGZF=  300
   support grid    NGXF=   300 NGYF=  300 NGZF=  300
   ions per type =              12   6   2   2
 NGX,Y,Z   is equivalent  to a cutoff of   8.31,  8.31,  8.31 a.u.
 NGXF,Y,Z  is equivalent  to a cutoff of  16.62, 16.62, 16.62 a.u.


 I would recommend the setting:
   dimension x,y,z NGX =   147 NGY =  147 NGZ =  147
 SYSTEM =  unknown system                          
 POSCAR =  H12 C6 N2 O2                            

 Startparameter for this run:
   NWRITE =      2    write-flag & timer
   PREC   = normal    normal or accurate (medium, high low for compatibility)
   ISTART =      0    job   : 0-new  1-cont  2-samecut
   ICHARG =      2    charge: 1-file 2-atom 10-const
   ISPIN  =      1    spin polarized calculation?
   LNONCOLLINEAR =      F non collinear calculations
   LSORBIT =      F    spin-orbit coupling
   INIWAV =      1    electr: 0-lowe 1-rand  2-diag
   LASPH  =      F    aspherical Exc in radial PAW
   METAGGA=      F    non-selfconsistent MetaGGA calc.

 Electronic Relaxation 1
   ENCUT  =  400.0 eV  29.40 Ry    5.42 a.u.  48.92 48.92 48.92*2*pi/ulx,y,z
   ENINI  =  400.0     initial cutoff
   ENAUG  =  644.9 eV  augmentation charge cutoff
   NELM   =    500;   NELMIN=  6; NELMDL= -5     # of ELM steps 
   EDIFF  = 0.1E-03   stopping-criterion for ELM
   LREAL  =      T    real-space projection
   NLSPLINE    = F    spline interpolate recip. space projectors
   LCOMPAT=      F    compatible to vasp.4.4
   GGA_COMPAT  = T    GGA compatible to vasp.4.4-vasp.4.6
   LMAXPAW     = -100 max onsite density
   LMAXMIX     =    2 max onsite mixed and CHGCAR
   VOSKOWN=      0    Vosko Wilk Nusair interpolation
   ROPT   =   -0.00050  -0.00050  -0.00050  -0.00050
 Ionic relaxation
   EDIFFG = -.1E+00   stopping-criterion for IOM
   NSW    =    300    number of steps for IOM
   NBLOCK =      1;   KBLOCK =    300    inner block; outer block 
   IBRION =      3    ionic relax: 0-MD 1-quasi-New 2-CG
   NFREE  =      0    steps in history (QN), initial steepest desc. (CG)
   ISIF   =      2    stress and relaxation
   IWAVPR =     11    prediction:  0-non 1-charg 2-wave 3-comb
   ISYM   =      2    0-nonsym 1-usesym 2-fastsym
   LCORR  =      T    Harris-Foulkes like correction to forces

   POTIM  = 0.0000    time-step for ionic-motion
   TEIN   =    0.0    initial temperature
   TEBEG  =    0.0;   TEEND  =   0.0 temperature during run
   SMASS  =   2.00    Nose mass-parameter (am)
   estimated Nose-frequenzy (Omega)   =  0.24E+10 period in steps =  0.00 mass=   0.137E-25a.u.
   SCALEE = 1.0000    scale energy and forces
   NPACO  =    256;   APACO  = 16.0  distance and # of slots for P.C.
   PSTRESS=    0.0 pullay stress

  Mass of Ions in am
   POMASS =   1.00 12.01 14.00 16.00
  Ionic Valenz
   ZVAL   =   1.00  4.00  5.00  6.00
  Atomic Wigner-Seitz radii
   RWIGS  =  -1.00 -1.00 -1.00 -1.00
  virtual crystal weights 
   VCA    =   1.00  1.00  1.00  1.00
   NELECT =      58.0000    total number of electrons
   NUPDOWN=      -1.0000    fix difference up-down

 DOS related values:
   EMIN   =  10.00;   EMAX   =-10.00  energy-range for DOS
   EFERMI =   0.00
   ISMEAR =     0;   SIGMA  =   0.20  broadening in eV -4-tet -1-fermi 0-gaus

 Electronic relaxation 2 (details)
   IALGO  =     38    algorithm
   LDIAG  =      T    sub-space diagonalisation (order eigenvalues)
   LSUBROT=      F    optimize rotation matrix (better conditioning)
   TURBO    =      0    0=normal 1=particle mesh
   IRESTART =      0    0=no restart 2=restart with 2 vectors
   NREBOOT  =      0    no. of reboots
   NMIN     =      0    reboot dimension
   EREF     =   0.00    reference energy to select bands
   IMIX   =      4    mixing-type and parameters
     AMIX     =   0.40;   BMIX     =  1.00
     AMIX_MAG =   1.60;   BMIX_MAG =  1.00
     AMIN     =   0.10
     WC   =   100.;   INIMIX=   1;  MIXPRE=   1;  MAXMIX= -45

 Intra band minimization:
   WEIMIN = 0.0010     energy-eigenvalue tresh-hold
   EBREAK =  0.61E-06  absolut break condition
   DEPER  =   0.30     relativ break condition  

   TIME   =   0.40     timestep for ELM

  volume/ion in A,a.u.               =    1227.27      8282.05
  Fermi-wavevector in a.u.,A,eV,Ry     =   0.211234  0.399174  0.607087  0.044620
  Thomas-Fermi vector in A             =   0.980021
 
 Write flags
   LWAVE  =      F    write WAVECAR
   LCHARG =      F    write CHGCAR
   LVTOT  =      F    write LOCPOT, total local potential
   LVHAR  =      F    write LOCPOT, Hartree potential only
   LELF   =      F    write electronic localiz. function (ELF)
   LORBIT =      0    0 simple, 1 ext, 2 COOP (PROOUT)


 Dipole corrections
   LMONO  =      F    monopole corrections only (constant potential shift)
   LDIPOL =      F    correct potential (dipole corrections)
   IDIPOL =      0    1-x, 2-y, 3-z, 4-all directions 
   EPSILON=  1.0000000 bulk dielectric constant

 Exchange correlation treatment:
   GGA     =    PE    GGA type
   LEXCH   =     8    internal setting for exchange type
   VOSKOWN=      0    Vosko Wilk Nusair interpolation
   LHFCALC =     F    Hartree Fock is set to
   LHFONE  =     F    Hartree Fock one center treatment
   AEXX    =    0.0000 exact exchange contribution

 Linear response parameters
   LEPSILON=     F    determine dielectric tensor
   LRPA    =     F    only Hartree local field effects (RPA)
   LNABLA  =     F    use nabla operator in PAW spheres
   LVEL    =     F    velocity operator in full k-point grid
   LINTERFAST=   F  fast interpolation
   KINTER  =     0    interpolate to denser k-point grid
   CSHIFT  =0.1000    complex shift for real part using Kramers Kronig
   OMEGAMAX=  -1.0    maximum frequency
   DEG_THRESHOLD= 0.2000000E-02 threshold for treating states as degnerate
   RTIME   =    0.100 relaxation time in fs

 Orbital magnetization related:
   ORBITALMAG=     F  switch on orbital magnetization
   LCHIMAG   =     F  perturbation theory with respect to B field
   DQ        =  0.001000  dq finite difference perturbation B field



--------------------------------------------------------------------------------------------------------


 quickmin algorithm: (dynamic with friction)
 charge density and potential will be updated during run
 non-spin polarized calculation
 Variant of blocked Davidson
 Davidson routine will perform the subspace rotation
 perform sub-space diagonalisation
    after iterative eigenvector-optimisation
 modified Broyden-mixing scheme, WC =      100.0
 initial mixing is a Kerker type mixing with AMIX =  0.4000 and BMIX =      1.0000
 Hartree-type preconditioning will be used
 using additional bands           12
 real space projection scheme for non local part
 use partial core corrections
 calculate Harris-corrections to forces 
   (improved forces if not selfconsistent)
 use gradient corrections 
 use of overlap-Matrix (Vanderbilt PP)
 Gauss-broadening in eV      SIGMA  =   0.20


--------------------------------------------------------------------------------------------------------


  energy-cutoff  :      400.00
  volume of cell :    27000.00
      direct lattice vectors                 reciprocal lattice vectors
    30.000000000  0.000000000  0.000000000     0.033333333  0.000000000  0.000000000
     0.000000000 30.000000000  0.000000000     0.000000000  0.033333333  0.000000000
     0.000000000  0.000000000 30.000000000     0.000000000  0.000000000  0.033333333

  length of vectors
    30.000000000 30.000000000 30.000000000     0.033333333  0.033333333  0.033333333


 
 k-points in units of 2pi/SCALE and weight: Mo2C                                    
   0.00833333  0.00833333  0.00833333       0.250
  -0.00833333  0.00833333  0.00833333       0.250
   0.00833333 -0.00833333  0.00833333       0.250
  -0.00833333 -0.00833333  0.00833333       0.250
 
 k-points in reciprocal lattice and weights: Mo2C                                    
   0.25000000  0.25000000  0.25000000       0.250
  -0.25000000  0.25000000  0.25000000       0.250
   0.25000000 -0.25000000  0.25000000       0.250
  -0.25000000 -0.25000000  0.25000000       0.250
 
 position of ions in fractional coordinates (direct lattice) 
   0.37831704  0.53273155  0.49315086
   0.38002734  0.48056286  0.46454429
   0.38566655  0.48193757  0.52354216
   0.45122588  0.43952543  0.50087582
   0.52300806  0.42642246  0.49176092
   0.56827459  0.46737392  0.43610692
   0.52627433  0.50919571  0.43120044
   0.51485469  0.45336393  0.41416482
   0.51536790  0.54427750  0.50904089
   0.55526320  0.54626757  0.59433982
   0.60127184  0.54647680  0.55709413
   0.56050902  0.59004152  0.55413620
   0.39393131  0.49974972  0.49254827
   0.44389310  0.50546309  0.48714793
   0.51670208  0.46205593  0.48615249
   0.53233126  0.47397862  0.43895799
   0.54552500  0.48475975  0.52259245
   0.56558980  0.55431374  0.56001101
   0.46825278  0.46750608  0.49226896
   0.54018548  0.52927604  0.52734542
   0.46092361  0.54233111  0.47864722
   0.57260700  0.46239116  0.54437327
 
 position of ions in cartesian coordinates  (Angst):
  11.34951130 15.98194643 14.79452570
  11.40082019 14.41688568 13.93632869
  11.56999644 14.45812716 15.70626483
  13.53677647 13.18576285 15.02627472
  15.69024168 12.79267381 14.75282753
  17.04823757 14.02121753 13.08320765
  15.78822993 15.27587136 12.93601332
  15.44564082 13.60091786 12.42494472
  15.46103704 16.32832505 15.27122670
  16.65789601 16.38802718 17.83019457
  18.03815514 16.39430404 16.71282386
  16.81527073 17.70124565 16.62408601
  11.81793935 14.99249156 14.77644825
  13.31679286 15.16389279 14.61443781
  15.50106244 13.86167797 14.58457465
  15.96993789 14.21935875 13.16873957
  16.36574986 14.54279240 15.67777335
  16.96769415 16.62941220 16.80033019
  14.04758340 14.02518253 14.76806890
  16.20556440 15.87828131 15.82036251
  13.82770844 16.26993316 14.35941663
  17.17820990 13.87173470 16.33119804
 


--------------------------------------------------------------------------------------------------------


 k-point  1 :   0.2500 0.2500 0.2500  plane waves:  490454
 k-point  2 :  -0.2500 0.2500 0.2500  plane waves:  490454
 k-point  3 :   0.2500-0.2500 0.2500  plane waves:  490454
 k-point  4 :  -0.2500-0.2500 0.2500  plane waves:  490454

 maximum and minimum number of plane-waves per node :    490454   490454

 maximum number of plane-waves:    490454
 maximum index in each direction: 
   IXMAX=   49   IYMAX=   49   IZMAX=   48
   IXMIN=  -49   IYMIN=  -49   IZMIN=  -49

 WARNING: aliasing errors must be expected set NGX to 198 to avoid them
 WARNING: aliasing errors must be expected set NGY to 198 to avoid them
 WARNING: aliasing errors must be expected set NGZ to 196 to avoid them
 aliasing errors are usually negligible using standard VASP settings
 and one can safely disregard these warnings

 serial   3D FFT for wavefunctions
 parallel 3D FFT for charge:
    minimum data exchange during FFTs selected (reduces bandwidth)


 total amount of memory used by VASP on root node  4333711. kBytes
========================================================================

   base      :      30000. kBytes
   nonlr-proj:       2406. kBytes
   fftplans  :     924480. kBytes
   grid      :    2089440. kBytes
   one-center:         67. kBytes
   wavefun   :    1287318. kBytes
 
     INWAV:  cpu time    0.0000: real time    0.0003
 Broyden mixing: mesh for mixing (old mesh)
   NGX = 97   NGY = 97   NGZ = 97
  (NGX  =300   NGY  =300   NGZ  =300)
  gives a total of 912673 points

 initial charge density was supplied:
 charge density of overlapping atoms calculated
 number of electron      58.0000000 magnetization 
 keeping initial charge density in first step


--------------------------------------------------------------------------------------------------------


 Maximum index for non-local projection operator         2282
 Maximum index for augmentation-charges         1572 (set IRDMAX)


--------------------------------------------------------------------------------------------------------


 First call to EWALD:  gamma=   0.059
 Maximum number of real-space cells 3x 3x 3
 Maximum number of reciprocal cells 3x 3x 3

 FEWALD executed in parallel
    FEWALD:  cpu time    0.0040: real time    0.0048


----------------------------------------- Iteration    1(   1)  ---------------------------------------


    POTLOK:  cpu time   21.2878: real time   21.2720
    SETDIJ:  cpu time    0.0290: real time    0.0290
     EDDAV:  cpu time  284.7567: real time  284.5391
       DOS:  cpu time    0.0000: real time    0.0009
    --------------------------------------------
      LOOP:  cpu time  306.0775: real time  305.8461

 eigenvalue-minimisations  :   408
 total energy-change (2. order) : 0.5808924E+03  (-0.8261383E+03)
 number of electron      58.0000000 magnetization 
 augmentation part       58.0000000 magnetization 

 Free energy of the ion-electron system (eV)
  ---------------------------------------------------
  alpha Z        PSCENC =         0.51957394
  Ewald energy   TEWEN  =      6120.59731831
  -Hartree energ DENC   =     -7863.68044288
  -exchange      EXHF   =         0.00000000
  -V(xc)+E(xc)   XCENC  =       202.00024853
  PAW double counting   =      1779.70502452    -1789.20730229
  entropy T*S    EENTRO =        -0.78591573
  eigenvalues    EBANDS =      -294.23946608
  atomic energy  EATOM  =      2425.98333211
  Solvation  Ediel_sol  =         0.00000000
  ---------------------------------------------------
  free energy    TOTEN  =       580.89237042 eV

  energy without entropy =      581.67828615  energy(sigma->0) =      581.28532829


--------------------------------------------------------------------------------------------------------




----------------------------------------- Iteration    1(   2)  ---------------------------------------


     EDDAV:  cpu time  377.1527: real time  376.8649
       DOS:  cpu time    0.0000: real time    0.0008
    --------------------------------------------
      LOOP:  cpu time  377.1547: real time  376.8689

 eigenvalue-minimisations  :   573
 total energy-change (2. order) :-0.3295455E+03  (-0.3193945E+03)
 number of electron      58.0000000 magnetization 
 augmentation part       58.0000000 magnetization 

 Free energy of the ion-electron system (eV)
  ---------------------------------------------------
  alpha Z        PSCENC =         0.51957394
  Ewald energy   TEWEN  =      6120.59731831
  -Hartree energ DENC   =     -7863.68044288
  -exchange      EXHF   =         0.00000000
  -V(xc)+E(xc)   XCENC  =       202.00024853
  PAW double counting   =      1779.70502452    -1789.20730229
  entropy T*S    EENTRO =        -0.45590088
  eigenvalues    EBANDS =      -624.11500255
  atomic energy  EATOM  =      2425.98333211
  Solvation  Ediel_sol  =         0.00000000
  ---------------------------------------------------
  free energy    TOTEN  =       251.34684880 eV

  energy without entropy =      251.80274968  energy(sigma->0) =      251.57479924


--------------------------------------------------------------------------------------------------------




----------------------------------------- Iteration    1(   3)  ---------------------------------------


     EDDAV:  cpu time  332.4585: real time  332.2047
       DOS:  cpu time    0.0000: real time    0.0005
    --------------------------------------------
      LOOP:  cpu time  332.4595: real time  332.2086

 eigenvalue-minimisations  :   496
 total energy-change (2. order) :-0.3021544E+03  (-0.2926719E+03)
 number of electron      58.0000000 magnetization 
 augmentation part       58.0000000 magnetization 

 Free energy of the ion-electron system (eV)
  ---------------------------------------------------
  alpha Z        PSCENC =         0.51957394
  Ewald energy   TEWEN  =      6120.59731831
  -Hartree energ DENC   =     -7863.68044288
  -exchange      EXHF   =         0.00000000
  -V(xc)+E(xc)   XCENC  =       202.00024853
  PAW double counting   =      1779.70502452    -1789.20730229
  entropy T*S    EENTRO =         0.00000000
  eigenvalues    EBANDS =      -926.72535105
  atomic energy  EATOM  =      2425.98333211
  Solvation  Ediel_sol  =         0.00000000
  ---------------------------------------------------
  free energy    TOTEN  =       -50.80759882 eV

  energy without entropy =      -50.80759882  energy(sigma->0) =      -50.80759882


--------------------------------------------------------------------------------------------------------




----------------------------------------- Iteration    1(   4)  ---------------------------------------


     EDDAV:  cpu time  277.9747: real time  277.7624
       DOS:  cpu time    0.0000: real time    0.0005
    --------------------------------------------
      LOOP:  cpu time  277.9767: real time  277.7663

 eigenvalue-minimisations  :   397
 total energy-change (2. order) :-0.8636503E+02  (-0.8623084E+02)
 number of electron      58.0000000 magnetization 
 augmentation part       58.0000000 magnetization 

 Free energy of the ion-electron system (eV)
  ---------------------------------------------------
  alpha Z        PSCENC =         0.51957394
  Ewald energy   TEWEN  =      6120.59731831
  -Hartree energ DENC   =     -7863.68044288
  -exchange      EXHF   =         0.00000000
  -V(xc)+E(xc)   XCENC  =       202.00024853
  PAW double counting   =      1779.70502452    -1789.20730229
  entropy T*S    EENTRO =         0.00000000
  eigenvalues    EBANDS =     -1013.09037868
  atomic energy  EATOM  =      2425.98333211
  Solvation  Ediel_sol  =         0.00000000
  ---------------------------------------------------
  free energy    TOTEN  =      -137.17262645 eV

  energy without entropy =     -137.17262645  energy(sigma->0) =     -137.17262645


--------------------------------------------------------------------------------------------------------




----------------------------------------- Iteration    1(   5)  ---------------------------------------


     EDDAV:  cpu time  317.9447: real time  317.6849
       DOS:  cpu time    0.0000: real time    0.0005
    CHARGE:  cpu time   18.0233: real time   18.0077
    MIXING:  cpu time    0.6099: real time    0.6103
    --------------------------------------------
      LOOP:  cpu time  336.5788: real time  336.3066

 eigenvalue-minimisations  :   464
 total energy-change (2. order) :-0.4699051E+01  (-0.4688932E+01)
 number of electron      57.9999961 magnetization 
 augmentation part        2.9704370 magnetization 

 Broyden mixing:
  rms(total) = 0.19552E+01    rms(broyden)= 0.19531E+01
  rms(prec ) = 0.20306E+01
  weight for this iteration     100.00

 Free energy of the ion-electron system (eV)
  ---------------------------------------------------
  alpha Z        PSCENC =         0.51957394
  Ewald energy   TEWEN  =      6120.59731831
  -Hartree energ DENC   =     -7863.68044288
  -exchange      EXHF   =         0.00000000
  -V(xc)+E(xc)   XCENC  =       202.00024853
  PAW double counting   =      1779.70502452    -1789.20730229
  entropy T*S    EENTRO =         0.00000000
  eigenvalues    EBANDS =     -1017.78942950
  atomic energy  EATOM  =      2425.98333211
  Solvation  Ediel_sol  =         0.00000000
  ---------------------------------------------------
  free energy    TOTEN  =      -141.87167727 eV

  energy without entropy =     -141.87167727  energy(sigma->0) =     -141.87167727


--------------------------------------------------------------------------------------------------------




----------------------------------------- Iteration    1(   6)  ---------------------------------------


    POTLOK:  cpu time   20.2619: real time   20.2465
    SETDIJ:  cpu time    0.0300: real time    0.0294
     EDDAV:  cpu time  286.0655: real time  285.8312
       DOS:  cpu time    0.0010: real time    0.0005
    CHARGE:  cpu time   16.3085: real time   16.2947
    MIXING:  cpu time    0.6199: real time    0.6203
    --------------------------------------------
      LOOP:  cpu time  323.2889: real time  323.0268

 eigenvalue-minimisations  :   424
 total energy-change (2. order) : 0.1015404E+02  (-0.2389216E+01)
 number of electron      57.9999971 magnetization 
 augmentation part        2.6287408 magnetization 

 Broyden mixing:
  rms(total) = 0.99796E+00    rms(broyden)= 0.99752E+00
  rms(prec ) = 0.10262E+01
  weight for this iteration     100.00

 eigenvalues of (default mixing * dielectric matrix)
  average eigenvalue GAMMA=   1.2757
  1.2757

 Free energy of the ion-electron system (eV)
  ---------------------------------------------------
  alpha Z        PSCENC =         0.51957394
  Ewald energy   TEWEN  =      6120.59731831
  -Hartree energ DENC   =     -7978.63550318
  -exchange      EXHF   =         0.00000000
  -V(xc)+E(xc)   XCENC  =       208.09071705
  PAW double counting   =      2774.63883093    -2785.49638070
  entropy T*S    EENTRO =         0.00000000
  eigenvalues    EBANDS =      -897.41553018
  atomic energy  EATOM  =      2425.98333211
  Solvation  Ediel_sol  =         0.00000000
  ---------------------------------------------------
  free energy    TOTEN  =      -131.71764172 eV

  energy without entropy =     -131.71764172  energy(sigma->0) =     -131.71764172


--------------------------------------------------------------------------------------------------------




----------------------------------------- Iteration    1(   7)  ---------------------------------------


    POTLOK:  cpu time   18.1552: real time   18.1414
    SETDIJ:  cpu time    0.0290: real time    0.0286
     EDDAV:  cpu time  280.6433: real time  280.4114
       DOS:  cpu time    0.0000: real time    0.0005
    CHARGE:  cpu time   18.8151: real time   18.7993
    MIXING:  cpu time    0.7219: real time    0.7211
    --------------------------------------------
      LOOP:  cpu time  318.3676: real time  318.1059

 eigenvalue-minimisations  :   432
 total energy-change (2. order) : 0.1746732E+01  (-0.4592828E+00)
 number of electron      57.9999968 magnetization 
 augmentation part        2.6181250 magnetization 

 Broyden mixing:
  rms(total) = 0.51633E+00    rms(broyden)= 0.51622E+00
  rms(prec ) = 0.52900E+00
  weight for this iteration     100.00

 eigenvalues of (default mixing * dielectric matrix)
  average eigenvalue GAMMA=   1.5634
  1.0996  2.0272

 Free energy of the ion-electron system (eV)
  ---------------------------------------------------
  alpha Z        PSCENC =         0.51957394
  Ewald energy   TEWEN  =      6120.59731831
  -Hartree energ DENC   =     -8040.46065826
  -exchange      EXHF   =         0.00000000
  -V(xc)+E(xc)   XCENC  =       211.11215063
  PAW double counting   =      3740.14280407    -3751.26919681
  entropy T*S    EENTRO =         0.00000000
  eigenvalues    EBANDS =      -836.59623415
  atomic energy  EATOM  =      2425.98333211
  Solvation  Ediel_sol  =         0.00000000
  ---------------------------------------------------
  free energy    TOTEN  =      -129.97091015 eV

  energy without entropy =     -129.97091015  energy(sigma->0) =     -129.97091015


--------------------------------------------------------------------------------------------------------




----------------------------------------- Iteration    1(   8)  ---------------------------------------


    POTLOK:  cpu time   21.0288: real time   21.0116
    SETDIJ:  cpu time    0.0290: real time    0.0290
     EDDAV:  cpu time  299.9334: real time  299.6882
       DOS:  cpu time    0.0000: real time    0.0005
    CHARGE:  cpu time   18.0133: real time   17.9997
    MIXING:  cpu time    0.7529: real time    0.7511
    --------------------------------------------
      LOOP:  cpu time  339.7583: real time  339.4838

 eigenvalue-minimisations  :   432
 total energy-change (2. order) : 0.4913496E+00  (-0.8449262E-01)
 number of electron      57.9999969 magnetization 
 augmentation part        2.5892481 magnetization 

 Broyden mixing:
  rms(total) = 0.15464E+00    rms(broyden)= 0.15458E+00
  rms(prec ) = 0.16232E+00
  weight for this iteration     100.00

 eigenvalues of (default mixing * dielectric matrix)
  average eigenvalue GAMMA=   1.5404
  2.3882  0.9398  1.2933

 Free energy of the ion-electron system (eV)
  ---------------------------------------------------
  alpha Z        PSCENC =         0.51957394
  Ewald energy   TEWEN  =      6120.59731831
  -Hartree energ DENC   =     -8080.83016075
  -exchange      EXHF   =         0.00000000
  -V(xc)+E(xc)   XCENC  =       213.23578464
  PAW double counting   =      4558.12083148    -4569.43190796
  entropy T*S    EENTRO =         0.00000000
  eigenvalues    EBANDS =      -797.67433228
  atomic energy  EATOM  =      2425.98333211
  Solvation  Ediel_sol  =         0.00000000
  ---------------------------------------------------
  free energy    TOTEN  =      -129.47956052 eV

  energy without entropy =     -129.47956052  energy(sigma->0) =     -129.47956052


--------------------------------------------------------------------------------------------------------




----------------------------------------- Iteration    1(   9)  ---------------------------------------


    POTLOK:  cpu time   21.2048: real time   21.1888
    SETDIJ:  cpu time    0.0290: real time    0.0290
     EDDAV:  cpu time  301.5242: real time  301.2744
       DOS:  cpu time    0.0000: real time    0.0005
    CHARGE:  cpu time   17.5133: real time   17.4990
    MIXING:  cpu time    0.9978: real time    0.9976
    --------------------------------------------
      LOOP:  cpu time  341.2701: real time  340.9926

 eigenvalue-minimisations  :   456
 total energy-change (2. order) : 0.6854457E-01  (-0.1037059E-01)
 number of electron      57.9999969 magnetization 
 augmentation part        2.5816253 magnetization 

 Broyden mixing:
  rms(total) = 0.57067E-01    rms(broyden)= 0.57037E-01
  rms(prec ) = 0.65665E-01
  weight for this iteration     100.00

 eigenvalues of (default mixing * dielectric matrix)
  average eigenvalue GAMMA=   1.5140
  2.1959  1.0446  1.0446  1.7707

 Free energy of the ion-electron system (eV)
  ---------------------------------------------------
  alpha Z        PSCENC =         0.51957394
  Ewald energy   TEWEN  =      6120.59731831
  -Hartree energ DENC   =     -8094.61011712
  -exchange      EXHF   =         0.00000000
  -V(xc)+E(xc)   XCENC  =       213.79835822
  PAW double counting   =      4795.74801730    -4807.03046339
  entropy T*S    EENTRO =         0.00000000
  eigenvalues    EBANDS =      -784.41703532
  atomic energy  EATOM  =      2425.98333211
  Solvation  Ediel_sol  =         0.00000000
  ---------------------------------------------------
  free energy    TOTEN  =      -129.41101594 eV

  energy without entropy =     -129.41101594  energy(sigma->0) =     -129.41101594


--------------------------------------------------------------------------------------------------------




----------------------------------------- Iteration    1(  10)  ---------------------------------------


    POTLOK:  cpu time   20.2559: real time   20.2394
    SETDIJ:  cpu time    0.0290: real time    0.0296
     EDDAV:  cpu time  310.2968: real time  310.0423
       DOS:  cpu time    0.0010: real time    0.0005
    CHARGE:  cpu time   18.1992: real time   18.1856
    MIXING:  cpu time    0.8539: real time    0.8523
    --------------------------------------------
      LOOP:  cpu time  349.6378: real time  349.3534

 eigenvalue-minimisations  :   440
 total energy-change (2. order) : 0.1074941E-01  (-0.2523625E-02)
 number of electron      57.9999969 magnetization 
 augmentation part        2.5878847 magnetization 

 Broyden mixing:
  rms(total) = 0.25963E-01    rms(broyden)= 0.25942E-01
  rms(prec ) = 0.36017E-01
  weight for this iteration     100.00

 eigenvalues of (default mixing * dielectric matrix)
  average eigenvalue GAMMA=   1.4837
  2.1655  2.1655  0.9631  0.9631  1.1613

 Free energy of the ion-electron system (eV)
  ---------------------------------------------------
  alpha Z        PSCENC =         0.51957394
  Ewald energy   TEWEN  =      6120.59731831
  -Hartree energ DENC   =     -8099.55768867
  -exchange      EXHF   =         0.00000000
  -V(xc)+E(xc)   XCENC  =       213.80662032
  PAW double counting   =      4787.45215041    -4798.68612719
  entropy T*S    EENTRO =         0.00000000
  eigenvalues    EBANDS =      -779.51544576
  atomic energy  EATOM  =      2425.98333211
  Solvation  Ediel_sol  =         0.00000000
  ---------------------------------------------------
  free energy    TOTEN  =      -129.40026653 eV

  energy without entropy =     -129.40026653  energy(sigma->0) =     -129.40026653


--------------------------------------------------------------------------------------------------------




----------------------------------------- Iteration    1(  11)  ---------------------------------------


    POTLOK:  cpu time   20.2849: real time   20.2686
    SETDIJ:  cpu time    0.0290: real time    0.0291
     EDDAV:  cpu time  292.9505: real time  292.7104
       DOS:  cpu time    0.0000: real time    0.0005
    CHARGE:  cpu time   16.3225: real time   16.3089
    MIXING:  cpu time    0.7909: real time    0.7911
    --------------------------------------------
      LOOP:  cpu time  330.3798: real time  330.1125

 eigenvalue-minimisations  :   424
 total energy-change (2. order) : 0.4975591E-02  (-0.8056368E-03)
 number of electron      57.9999969 magnetization 
 augmentation part        2.5837008 magnetization 

 Broyden mixing:
  rms(total) = 0.16339E-01    rms(broyden)= 0.16333E-01
  rms(prec ) = 0.25145E-01
  weight for this iteration     100.00

 eigenvalues of (default mixing * dielectric matrix)
  average eigenvalue GAMMA=   1.5479
  2.4774  2.4774  0.9483  0.9483  1.2179  1.2179

 Free energy of the ion-electron system (eV)
  ---------------------------------------------------
  alpha Z        PSCENC =         0.51957394
  Ewald energy   TEWEN  =      6120.59731831
  -Hartree energ DENC   =     -8105.38330665
  -exchange      EXHF   =         0.00000000
  -V(xc)+E(xc)   XCENC  =       213.91205093
  PAW double counting   =      4791.23881343    -4802.47185614
  entropy T*S    EENTRO =         0.00000000
  eigenvalues    EBANDS =      -773.79121687
  atomic energy  EATOM  =      2425.98333211
  Solvation  Ediel_sol  =         0.00000000
  ---------------------------------------------------
  free energy    TOTEN  =      -129.39529094 eV

  energy without entropy =     -129.39529094  energy(sigma->0) =     -129.39529094


--------------------------------------------------------------------------------------------------------




----------------------------------------- Iteration    1(  12)  ---------------------------------------


    POTLOK:  cpu time   18.1832: real time   18.1682
    SETDIJ:  cpu time    0.0280: real time    0.0287
     EDDAV:  cpu time  282.3081: real time  282.0780
       DOS:  cpu time    0.0000: real time    0.0005
    CHARGE:  cpu time   18.4112: real time   18.3955
    MIXING:  cpu time    0.9639: real time    0.9633
    --------------------------------------------
      LOOP:  cpu time  319.8974: real time  319.6379

 eigenvalue-minimisations  :   384
 total energy-change (2. order) :-0.1166341E-02  (-0.5869693E-03)
 number of electron      57.9999969 magnetization 
 augmentation part        2.5832899 magnetization 

 Broyden mixing:
  rms(total) = 0.98496E-02    rms(broyden)= 0.98448E-02
  rms(prec ) = 0.16011E-01
  weight for this iteration     100.00

 eigenvalues of (default mixing * dielectric matrix)
  average eigenvalue GAMMA=   1.6071
  2.7212  2.7212  1.4465  1.2118  1.2118  0.9686  0.9686

 Free energy of the ion-electron system (eV)
  ---------------------------------------------------
  alpha Z        PSCENC =         0.51957394
  Ewald energy   TEWEN  =      6120.59731831
  -Hartree energ DENC   =     -8112.14330758
  -exchange      EXHF   =         0.00000000
  -V(xc)+E(xc)   XCENC  =       213.99702804
  PAW double counting   =      4786.36634920    -4797.58887725
  entropy T*S    EENTRO =         0.00000000
  eigenvalues    EBANDS =      -767.12787406
  atomic energy  EATOM  =      2425.98333211
  Solvation  Ediel_sol  =         0.00000000
  ---------------------------------------------------
  free energy    TOTEN  =      -129.39645728 eV

  energy without entropy =     -129.39645728  energy(sigma->0) =     -129.39645728


--------------------------------------------------------------------------------------------------------




----------------------------------------- Iteration    1(  13)  ---------------------------------------


    POTLOK:  cpu time   20.7508: real time   20.7338
    SETDIJ:  cpu time    0.0290: real time    0.0294
     EDDAV:  cpu time  280.6403: real time  280.4103
       DOS:  cpu time    0.0010: real time    0.0006
    CHARGE:  cpu time   17.3404: real time   17.3269
    MIXING:  cpu time    0.9909: real time    0.9899
    --------------------------------------------
      LOOP:  cpu time  319.7534: real time  319.4985

 eigenvalue-minimisations  :   392
 total energy-change (2. order) :-0.6679608E-02  (-0.4728866E-03)
 number of electron      57.9999969 magnetization 
 augmentation part        2.5817475 magnetization 

 Broyden mixing:
  rms(total) = 0.58663E-02    rms(broyden)= 0.58610E-02
  rms(prec ) = 0.95141E-02
  weight for this iteration     100.00

 eigenvalues of (default mixing * dielectric matrix)
  average eigenvalue GAMMA=   1.7031
  4.0761  2.4949  1.6597  1.3934  1.0010  1.0010  0.9652  1.0332

 Free energy of the ion-electron system (eV)
  ---------------------------------------------------
  alpha Z        PSCENC =         0.51957394
  Ewald energy   TEWEN  =      6120.59731831
  -Hartree energ DENC   =     -8117.91940975
  -exchange      EXHF   =         0.00000000
  -V(xc)+E(xc)   XCENC  =       214.06691504
  PAW double counting   =      4781.26668556    -4792.48979202
  entropy T*S    EENTRO =         0.00000000
  eigenvalues    EBANDS =      -761.42776007
  atomic energy  EATOM  =      2425.98333211
  Solvation  Ediel_sol  =         0.00000000
  ---------------------------------------------------
  free energy    TOTEN  =      -129.40313689 eV

  energy without entropy =     -129.40313689  energy(sigma->0) =     -129.40313689


--------------------------------------------------------------------------------------------------------




----------------------------------------- Iteration    1(  14)  ---------------------------------------


    POTLOK:  cpu time   19.4440: real time   19.4281
    SETDIJ:  cpu time    0.0290: real time    0.0291
     EDDAV:  cpu time  279.6505: real time  279.4203
       DOS:  cpu time    0.0000: real time    0.0005
    CHARGE:  cpu time   19.5960: real time   19.5807
    MIXING:  cpu time    1.2518: real time    1.2497
    --------------------------------------------
      LOOP:  cpu time  319.9724: real time  319.7126

 eigenvalue-minimisations  :   400
 total energy-change (2. order) :-0.6426909E-02  (-0.1785590E-03)
 number of electron      57.9999969 magnetization 
 augmentation part        2.5812054 magnetization 

 Broyden mixing:
  rms(total) = 0.39120E-02    rms(broyden)= 0.39082E-02
  rms(prec ) = 0.59579E-02
  weight for this iteration     100.00

 eigenvalues of (default mixing * dielectric matrix)
  average eigenvalue GAMMA=   1.8010
  4.9621  2.4133  2.1181  1.2549  1.2549  1.1384  1.1384  0.9642  0.9642

 Free energy of the ion-electron system (eV)
  ---------------------------------------------------
  alpha Z        PSCENC =         0.51957394
  Ewald energy   TEWEN  =      6120.59731831
  -Hartree energ DENC   =     -8121.29431908
  -exchange      EXHF   =         0.00000000
  -V(xc)+E(xc)   XCENC  =       214.08821948
  PAW double counting   =      4775.42079285    -4786.64091651
  entropy T*S    EENTRO =         0.00000000
  eigenvalues    EBANDS =      -758.08356489
  atomic energy  EATOM  =      2425.98333211
  Solvation  Ediel_sol  =         0.00000000
  ---------------------------------------------------
  free energy    TOTEN  =      -129.40956380 eV

  energy without entropy =     -129.40956380  energy(sigma->0) =     -129.40956380


--------------------------------------------------------------------------------------------------------




----------------------------------------- Iteration    1(  15)  ---------------------------------------


    POTLOK:  cpu time   22.3136: real time   22.2961
    SETDIJ:  cpu time    0.0300: real time    0.0297
     EDDAV:  cpu time  288.5681: real time  288.3322
       DOS:  cpu time    0.0000: real time    0.0006
    CHARGE:  cpu time   17.9973: real time   17.9826
    MIXING:  cpu time    1.2118: real time    1.2114
    --------------------------------------------
      LOOP:  cpu time  330.1228: real time  329.8571

 eigenvalue-minimisations  :   398
 total energy-change (2. order) :-0.7474548E-02  (-0.7537548E-04)
 number of electron      57.9999969 magnetization 
 augmentation part        2.5809162 magnetization 

 Broyden mixing:
  rms(total) = 0.24474E-02    rms(broyden)= 0.24461E-02
  rms(prec ) = 0.36677E-02
  weight for this iteration     100.00

 eigenvalues of (default mixing * dielectric matrix)
  average eigenvalue GAMMA=   1.9004
  5.6424  2.8049  2.3955  1.6857  1.3708  1.0371  1.0371  1.0383  0.9963  0.9963

 Free energy of the ion-electron system (eV)
  ---------------------------------------------------
  alpha Z        PSCENC =         0.51957394
  Ewald energy   TEWEN  =      6120.59731831
  -Hartree energ DENC   =     -8122.95452461
  -exchange      EXHF   =         0.00000000
  -V(xc)+E(xc)   XCENC  =       214.08866689
  PAW double counting   =      4774.70983098    -4785.92846850
  entropy T*S    EENTRO =         0.00000000
  eigenvalues    EBANDS =      -756.43276746
  atomic energy  EATOM  =      2425.98333211
  Solvation  Ediel_sol  =         0.00000000
  ---------------------------------------------------
  free energy    TOTEN  =      -129.41703834 eV

  energy without entropy =     -129.41703834  energy(sigma->0) =     -129.41703834


--------------------------------------------------------------------------------------------------------




----------------------------------------- Iteration    1(  16)  ---------------------------------------


    POTLOK:  cpu time   20.9128: real time   20.8962
    SETDIJ:  cpu time    0.0290: real time    0.0291
     EDDAV:  cpu time  234.0274: real time  233.8338
       DOS:  cpu time    0.0000: real time    0.0005
    CHARGE:  cpu time   18.7132: real time   18.6980
    MIXING:  cpu time    1.3408: real time    1.3391
    --------------------------------------------
      LOOP:  cpu time  275.0242: real time  274.7999

 eigenvalue-minimisations  :   334
 total energy-change (2. order) :-0.6226157E-02  (-0.5002935E-04)
 number of electron      57.9999969 magnetization 
 augmentation part        2.5811068 magnetization 

 Broyden mixing:
  rms(total) = 0.14280E-02    rms(broyden)= 0.14274E-02
  rms(prec ) = 0.21028E-02
  weight for this iteration     100.00

 eigenvalues of (default mixing * dielectric matrix)
  average eigenvalue GAMMA=   1.9497
  6.3175  3.1605  2.2996  1.9104  1.3402  1.3402  1.0237  1.0237  1.0452  0.9930
  0.9930

 Free energy of the ion-electron system (eV)
  ---------------------------------------------------
  alpha Z        PSCENC =         0.51957394
  Ewald energy   TEWEN  =      6120.59731831
  -Hartree energ DENC   =     -8123.66624942
  -exchange      EXHF   =         0.00000000
  -V(xc)+E(xc)   XCENC  =       214.07800536
  PAW double counting   =      4774.64045675    -4785.85799005
  entropy T*S    EENTRO =         0.00000000
  eigenvalues    EBANDS =      -755.71771151
  atomic energy  EATOM  =      2425.98333211
  Solvation  Ediel_sol  =         0.00000000
  ---------------------------------------------------
  free energy    TOTEN  =      -129.42326450 eV

  energy without entropy =     -129.42326450  energy(sigma->0) =     -129.42326450


--------------------------------------------------------------------------------------------------------




----------------------------------------- Iteration    1(  17)  ---------------------------------------


    POTLOK:  cpu time   24.3343: real time   24.3155
    SETDIJ:  cpu time    0.0310: real time    0.0295
     EDDAV:  cpu time  256.4540: real time  256.2450
       DOS:  cpu time    0.0000: real time    0.0005
    CHARGE:  cpu time   18.2312: real time   18.2163
    MIXING:  cpu time    1.4248: real time    1.4241
    --------------------------------------------
      LOOP:  cpu time  300.4763: real time  300.2381

 eigenvalue-minimisations  :   336
 total energy-change (2. order) :-0.2877570E-02  (-0.1475812E-04)
 number of electron      57.9999969 magnetization 
 augmentation part        2.5809575 magnetization 

 Broyden mixing:
  rms(total) = 0.88065E-03    rms(broyden)= 0.88019E-03
  rms(prec ) = 0.13033E-02
  weight for this iteration     100.00

 eigenvalues of (default mixing * dielectric matrix)
  average eigenvalue GAMMA=   2.0356
  7.1261  3.6260  2.3190  2.3190  1.5126  1.5126  1.0582  1.0582  1.0224  1.0224
  0.9256  0.9256

 Free energy of the ion-electron system (eV)
  ---------------------------------------------------
  alpha Z        PSCENC =         0.51957394
  Ewald energy   TEWEN  =      6120.59731831
  -Hartree energ DENC   =     -8124.00532396
  -exchange      EXHF   =         0.00000000
  -V(xc)+E(xc)   XCENC  =       214.07414360
  PAW double counting   =      4774.56623843    -4785.78389419
  entropy T*S    EENTRO =         0.00000000
  eigenvalues    EBANDS =      -755.37753030
  atomic energy  EATOM  =      2425.98333211
  Solvation  Ediel_sol  =         0.00000000
  ---------------------------------------------------
  free energy    TOTEN  =      -129.42614207 eV

  energy without entropy =     -129.42614207  energy(sigma->0) =     -129.42614207


--------------------------------------------------------------------------------------------------------




----------------------------------------- Iteration    1(  18)  ---------------------------------------


    POTLOK:  cpu time   22.3426: real time   22.3247
    SETDIJ:  cpu time    0.0300: real time    0.0299
     EDDAV:  cpu time  222.0022: real time  221.8210
       DOS:  cpu time    0.0000: real time    0.0005
    CHARGE:  cpu time   17.7483: real time   17.7338
    MIXING:  cpu time    1.2358: real time    1.2342
    --------------------------------------------
      LOOP:  cpu time  263.3620: real time  263.1487

 eigenvalue-minimisations  :   284
 total energy-change (2. order) :-0.1835762E-02  (-0.1280452E-04)
 number of electron      57.9999969 magnetization 
 augmentation part        2.5809167 magnetization 

 Broyden mixing:
  rms(total) = 0.56119E-03    rms(broyden)= 0.56100E-03
  rms(prec ) = 0.79088E-03
  weight for this iteration     100.00

 eigenvalues of (default mixing * dielectric matrix)
  average eigenvalue GAMMA=   2.0693
  7.5303  4.1678  2.4625  2.2564  1.7077  1.3684  1.3684  1.0675  1.0675  1.0074
  1.0074  0.9449  0.9449

 Free energy of the ion-electron system (eV)
  ---------------------------------------------------
  alpha Z        PSCENC =         0.51957394
  Ewald energy   TEWEN  =      6120.59731831
  -Hartree energ DENC   =     -8124.19027501
  -exchange      EXHF   =         0.00000000
  -V(xc)+E(xc)   XCENC  =       214.07128853
  PAW double counting   =      4774.94156134    -4786.15905013
  entropy T*S    EENTRO =         0.00000000
  eigenvalues    EBANDS =      -755.19172692
  atomic energy  EATOM  =      2425.98333211
  Solvation  Ediel_sol  =         0.00000000
  ---------------------------------------------------
  free energy    TOTEN  =      -129.42797783 eV

  energy without entropy =     -129.42797783  energy(sigma->0) =     -129.42797783


--------------------------------------------------------------------------------------------------------




----------------------------------------- Iteration    1(  19)  ---------------------------------------


    POTLOK:  cpu time   19.9690: real time   19.9538
    SETDIJ:  cpu time    0.0300: real time    0.0296
     EDDAV:  cpu time  229.1942: real time  229.0056
       DOS:  cpu time    0.0010: real time    0.0006
    CHARGE:  cpu time   18.2072: real time   18.1931
    MIXING:  cpu time    1.7217: real time    1.7206
    --------------------------------------------
      LOOP:  cpu time  269.1241: real time  268.9074

 eigenvalue-minimisations  :   312
 total energy-change (2. order) :-0.8506184E-03  (-0.4868712E-05)
 number of electron      57.9999969 magnetization 
 augmentation part        2.5808937 magnetization 

 Broyden mixing:
  rms(total) = 0.33934E-03    rms(broyden)= 0.33918E-03
  rms(prec ) = 0.48356E-03
  weight for this iteration     100.00

 eigenvalues of (default mixing * dielectric matrix)
  average eigenvalue GAMMA=   2.1374
  8.1366  4.7045  2.6219  2.6219  1.5933  1.5933  1.5319  1.1061  1.1061  1.0093
  1.0093  0.9394  0.9748  0.9748

 Free energy of the ion-electron system (eV)
  ---------------------------------------------------
  alpha Z        PSCENC =         0.51957394
  Ewald energy   TEWEN  =      6120.59731831
  -Hartree energ DENC   =     -8124.26089766
  -exchange      EXHF   =         0.00000000
  -V(xc)+E(xc)   XCENC  =       214.07073109
  PAW double counting   =      4775.23959922    -4786.45713503
  entropy T*S    EENTRO =         0.00000000
  eigenvalues    EBANDS =      -755.12135043
  atomic energy  EATOM  =      2425.98333211
  Solvation  Ediel_sol  =         0.00000000
  ---------------------------------------------------
  free energy    TOTEN  =      -129.42882845 eV

  energy without entropy =     -129.42882845  energy(sigma->0) =     -129.42882845


--------------------------------------------------------------------------------------------------------




----------------------------------------- Iteration    1(  20)  ---------------------------------------


    POTLOK:  cpu time   22.6406: real time   22.6226
    SETDIJ:  cpu time    0.0310: real time    0.0313
     EDDAV:  cpu time  233.3555: real time  233.1648
       DOS:  cpu time    0.0000: real time    0.0005
    CHARGE:  cpu time   18.0333: real time   18.0185
    MIXING:  cpu time    1.7127: real time    1.7109
    --------------------------------------------
      LOOP:  cpu time  275.7751: real time  275.5523

 eigenvalue-minimisations  :   288
 total energy-change (2. order) :-0.5032966E-03  (-0.2262414E-05)
 number of electron      57.9999969 magnetization 
 augmentation part        2.5808983 magnetization 

 Broyden mixing:
  rms(total) = 0.22884E-03    rms(broyden)= 0.22877E-03
  rms(prec ) = 0.30200E-03
  weight for this iteration     100.00

 eigenvalues of (default mixing * dielectric matrix)
  average eigenvalue GAMMA=   2.1426
  8.2554  5.1937  2.8353  2.4106  2.1219  1.5808  1.2574  1.2574  1.0276  1.0276
  1.1052  1.1052  0.9761  0.9921  0.9921

 Free energy of the ion-electron system (eV)
  ---------------------------------------------------
  alpha Z        PSCENC =         0.51957394
  Ewald energy   TEWEN  =      6120.59731831
  -Hartree energ DENC   =     -8124.27978077
  -exchange      EXHF   =         0.00000000
  -V(xc)+E(xc)   XCENC  =       214.06915817
  PAW double counting   =      4774.82533328    -4786.04277062
  entropy T*S    EENTRO =         0.00000000
  eigenvalues    EBANDS =      -755.10149616
  atomic energy  EATOM  =      2425.98333211
  Solvation  Ediel_sol  =         0.00000000
  ---------------------------------------------------
  free energy    TOTEN  =      -129.42933175 eV

  energy without entropy =     -129.42933175  energy(sigma->0) =     -129.42933175


--------------------------------------------------------------------------------------------------------




----------------------------------------- Iteration    1(  21)  ---------------------------------------


    POTLOK:  cpu time   20.7079: real time   20.6925
    SETDIJ:  cpu time    0.0310: real time    0.0312
     EDDAV:  cpu time  253.1455: real time  252.9375
       DOS:  cpu time    0.0000: real time    0.0005
    CHARGE:  cpu time   16.2505: real time   16.2369
    MIXING:  cpu time    1.3538: real time    1.3515
    --------------------------------------------
      LOOP:  cpu time  291.4907: real time  291.2540

 eigenvalue-minimisations  :   352
 total energy-change (2. order) :-0.1977919E-03  (-0.8793326E-06)
 number of electron      57.9999969 magnetization 
 augmentation part        2.5808752 magnetization 

 Broyden mixing:
  rms(total) = 0.13097E-03    rms(broyden)= 0.13090E-03
  rms(prec ) = 0.18153E-03
  weight for this iteration     100.00

 eigenvalues of (default mixing * dielectric matrix)
  average eigenvalue GAMMA=   2.2091
  8.4793  5.7878  3.3146  2.5748  2.4331  1.5939  1.5939  1.3625  1.1574  1.1574
  1.0203  1.0203  0.9603  0.9603  1.0509  0.8792

 Free energy of the ion-electron system (eV)
  ---------------------------------------------------
  alpha Z        PSCENC =         0.51957394
  Ewald energy   TEWEN  =      6120.59731831
  -Hartree energ DENC   =     -8124.29286234
  -exchange      EXHF   =         0.00000000
  -V(xc)+E(xc)   XCENC  =       214.06921841
  PAW double counting   =      4774.97024231    -4786.18775170
  entropy T*S    EENTRO =         0.00000000
  eigenvalues    EBANDS =      -755.08860059
  atomic energy  EATOM  =      2425.98333211
  Solvation  Ediel_sol  =         0.00000000
  ---------------------------------------------------
  free energy    TOTEN  =      -129.42952954 eV

  energy without entropy =     -129.42952954  energy(sigma->0) =     -129.42952954


--------------------------------------------------------------------------------------------------------




----------------------------------------- Iteration    1(  22)  ---------------------------------------


    POTLOK:  cpu time   18.1412: real time   18.1270
    SETDIJ:  cpu time    0.0290: real time    0.0289
     EDDAV:  cpu time  213.7305: real time  213.5559
       DOS:  cpu time    0.0000: real time    0.0005
    CHARGE:  cpu time   18.6582: real time   18.6429
    MIXING:  cpu time    1.9417: real time    1.9397
    --------------------------------------------
      LOOP:  cpu time  252.5016: real time  252.2983

 eigenvalue-minimisations  :   254
 total energy-change (2. order) :-0.1491397E-03  (-0.4334029E-06)
 number of electron      57.9999969 magnetization 
 augmentation part        2.5808769 magnetization 

 Broyden mixing:
  rms(total) = 0.11687E-03    rms(broyden)= 0.11683E-03
  rms(prec ) = 0.13567E-03
  weight for this iteration     100.00

 eigenvalues of (default mixing * dielectric matrix)
  average eigenvalue GAMMA=   2.2129
  8.6039  6.1121  3.6444  2.4937  2.3273  2.0698  1.5714  1.3397  1.3397  1.0417
  1.0417  1.0904  1.0904  0.9737  0.9737  0.9992  0.9071

 Free energy of the ion-electron system (eV)
  ---------------------------------------------------
  alpha Z        PSCENC =         0.51957394
  Ewald energy   TEWEN  =      6120.59731831
  -Hartree energ DENC   =     -8124.30359327
  -exchange      EXHF   =         0.00000000
  -V(xc)+E(xc)   XCENC  =       214.06883687
  PAW double counting   =      4774.85793023    -4786.07545744
  entropy T*S    EENTRO =         0.00000000
  eigenvalues    EBANDS =      -755.07761943
  atomic energy  EATOM  =      2425.98333211
  Solvation  Ediel_sol  =         0.00000000
  ---------------------------------------------------
  free energy    TOTEN  =      -129.42967868 eV

  energy without entropy =     -129.42967868  energy(sigma->0) =     -129.42967868


--------------------------------------------------------------------------------------------------------




----------------------------------------- Iteration    1(  23)  ---------------------------------------


    POTLOK:  cpu time   22.1336: real time   22.1152
    SETDIJ:  cpu time    0.0300: real time    0.0302
     EDDAV:  cpu time  269.7040: real time  269.4841
       DOS:  cpu time    0.0000: real time    0.0005
    --------------------------------------------
      LOOP:  cpu time  291.8686: real time  291.6333

 eigenvalue-minimisations  :   352
 total energy-change (2. order) :-0.4566030E-04  (-0.1211771E-06)
 number of electron      57.9999969 magnetization 
 augmentation part        2.5808769 magnetization 

 Free energy of the ion-electron system (eV)
  ---------------------------------------------------
  alpha Z        PSCENC =         0.51957394
  Ewald energy   TEWEN  =      6120.59731831
  -Hartree energ DENC   =     -8124.31071989
  -exchange      EXHF   =         0.00000000
  -V(xc)+E(xc)   XCENC  =       214.06869989
  PAW double counting   =      4774.85443120    -4786.07191099
  entropy T*S    EENTRO =         0.00000000
  eigenvalues    EBANDS =      -755.07044892
  atomic energy  EATOM  =      2425.98333211
  Solvation  Ediel_sol  =         0.00000000
  ---------------------------------------------------
  free energy    TOTEN  =      -129.42972434 eV

  energy without entropy =     -129.42972434  energy(sigma->0) =     -129.42972434


--------------------------------------------------------------------------------------------------------




 average (electrostatic) potential at core
  the test charge radii are     0.5201  0.6991  0.7089  0.7215
  (the norm of the test charge is              1.0000)
       1 -42.3139       2 -42.5609       3 -42.5768       4 -44.7836       5 -42.3657
       6 -41.9136       7 -41.7790       8 -41.9271       9 -43.4264      10 -41.7476
      11 -41.7412      12 -42.0501      13 -59.0872      14 -61.4905      15 -59.9885
      16 -58.6025      17 -60.7568      18 -59.1414      19 -74.7631      20 -73.9416
      21 -79.9839      22 -79.2674
 
 
 
 E-fermi :  -4.4065     XC(G=0):  -0.1538     alpha+bet : -0.0465


 k-point     1 :       0.2500    0.2500    0.2500
  band No.  band energies     occupation 
      1     -26.2022      2.00000
      2     -25.5061      2.00000
      3     -23.4354      2.00000
      4     -22.6633      2.00000
      5     -19.5841      2.00000
      6     -18.2598      2.00000
      7     -17.3580      2.00000
      8     -16.1570      2.00000
      9     -14.7168      2.00000
     10     -13.9566      2.00000
     11     -13.2535      2.00000
     12     -12.5412      2.00000
     13     -11.5729      2.00000
     14     -11.3374      2.00000
     15     -10.8738      2.00000
     16     -10.7911      2.00000
     17     -10.3285      2.00000
     18     -10.1282      2.00000
     19      -9.9731      2.00000
     20      -9.8958      2.00000
     21      -9.3842      2.00000
     22      -9.1457      2.00000
     23      -9.0110      2.00000
     24      -8.6921      2.00000
     25      -8.5074      2.00000
     26      -6.7939      2.00000
     27      -6.2151      2.00000
     28      -5.8353      2.00000
     29      -5.4158      2.00000
     30      -1.1676      0.00000
     31      -0.9805      0.00000
     32      -0.4540      0.00000
     33      -0.2980      0.00000
     34      -0.2154      0.00000
     35      -0.0574      0.00000
     36       0.0222      0.00000
     37       0.0887      0.00000
     38       0.1042      0.00000
     39       0.1132      0.00000
     40       0.1630      0.00000
     41       0.1739      0.00000

 k-point     2 :      -0.2500    0.2500    0.2500
  band No.  band energies     occupation 
      1     -26.2022      2.00000
      2     -25.5061      2.00000
      3     -23.4354      2.00000
      4     -22.6633      2.00000
      5     -19.5841      2.00000
      6     -18.2598      2.00000
      7     -17.3580      2.00000
      8     -16.1570      2.00000
      9     -14.7168      2.00000
     10     -13.9567      2.00000
     11     -13.2535      2.00000
     12     -12.5412      2.00000
     13     -11.5730      2.00000
     14     -11.3374      2.00000
     15     -10.8738      2.00000
     16     -10.7911      2.00000
     17     -10.3285      2.00000
     18     -10.1282      2.00000
     19      -9.9731      2.00000
     20      -9.8958      2.00000
     21      -9.3842      2.00000
     22      -9.1457      2.00000
     23      -9.0110      2.00000
     24      -8.6921      2.00000
     25      -8.5074      2.00000
     26      -6.7939      2.00000
     27      -6.2151      2.00000
     28      -5.8353      2.00000
     29      -5.4157      2.00000
     30      -1.1676      0.00000
     31      -0.9805      0.00000
     32      -0.4540      0.00000
     33      -0.2980      0.00000
     34      -0.2154      0.00000
     35      -0.0571      0.00000
     36       0.0213      0.00000
     37       0.0845      0.00000
     38       0.1080      0.00000
     39       0.1194      0.00000
     40       0.1568      0.00000
     41       0.1731      0.00000

 k-point     3 :       0.2500   -0.2500    0.2500
  band No.  band energies     occupation 
      1     -26.2022      2.00000
      2     -25.5061      2.00000
      3     -23.4354      2.00000
      4     -22.6633      2.00000
      5     -19.5841      2.00000
      6     -18.2598      2.00000
      7     -17.3580      2.00000
      8     -16.1570      2.00000
      9     -14.7168      2.00000
[...]

 Free energy of the ion-electron system (eV)
  ---------------------------------------------------
  alpha Z        PSCENC =         0.51957394
  Ewald energy   TEWEN  =      6127.51506661
  -Hartree energ DENC   =     -8131.07758485
  -exchange      EXHF   =         0.00000000
  -V(xc)+E(xc)   XCENC  =       214.09701500
  PAW double counting   =      4778.35695637    -4789.57648186
  entropy T*S    EENTRO =         0.00000000
  eigenvalues    EBANDS =      -755.25079780
  atomic energy  EATOM  =      2425.98333211
  Solvation  Ediel_sol  =         0.00000000
  ---------------------------------------------------
  free energy    TOTEN  =      -129.43292047 eV

  energy without entropy =     -129.43292047  energy(sigma->0) =     -129.43292047


--------------------------------------------------------------------------------------------------------




 average (electrostatic) potential at core
  the test charge radii are     0.5201  0.6991  0.7089  0.7215
  (the norm of the test charge is              1.0000)
       1 -42.3194       2 -42.5625       3 -42.5873       4 -44.7928       5 -42.3727
       6 -41.9039       7 -41.7639       8 -41.9187       9 -43.4281      10 -41.7525
      11 -41.7405      12 -42.0454      13 -59.0934      14 -61.4958      15 -59.9855
      16 -58.5888      17 -60.7540      18 -59.1409      19 -74.7692      20 -73.9371
      21 -79.9881      22 -79.2707
 
 
 
 E-fermi :  -4.4910     XC(G=0):  -0.1309     alpha+bet : -0.0465


 k-point     1 :       0.2500    0.2500    0.2500
  band No.  band energies     occupation 
      1     -26.2137      2.00000
      2     -25.5153      2.00000
      3     -23.4424      2.00000
      4     -22.6660      2.00000
      5     -19.5885      2.00000
      6     -18.2660      2.00000
      7     -17.3580      2.00000
      8     -16.1575      2.00000
      9     -14.7089      2.00000
     10     -13.9621      2.00000
     11     -13.2642      2.00000
     12     -12.5533      2.00000
     13     -11.5749      2.00000
     14     -11.3361      2.00000
     15     -10.8795      2.00000
     16     -10.7858      2.00000
     17     -10.3329      2.00000
     18     -10.1299      2.00000
     19      -9.9780      2.00000
     20      -9.8911      2.00000
     21      -9.3807      2.00000
     22      -9.1628      2.00000
     23      -9.0102      2.00000
     24      -8.7018      2.00000
     25      -8.4968      2.00000
     26      -6.8029      2.00000
     27      -6.2141      2.00000
     28      -5.8326      2.00000
     29      -5.4191      2.00000
     30      -1.1790      0.00000
     31      -0.9802      0.00000
     32      -0.4410      0.00000
     33      -0.3003      0.00000
     34      -0.2134      0.00000
     35      -0.0587      0.00000
     36       0.0488      0.00000
     37       0.1151      0.00000
     38       0.1289      0.00000
     39       0.1388      0.00000
     40       0.1875      0.00000
     41       0.1990      0.00000

 k-point     2 :      -0.2500    0.2500    0.2500
  band No.  band energies     occupation 
      1     -26.2137      2.00000
      2     -25.5153      2.00000
      3     -23.4424      2.00000
      4     -22.6660      2.00000
      5     -19.5885      2.00000
      6     -18.2660      2.00000
      7     -17.3580      2.00000
      8     -16.1575      2.00000
      9     -14.7089      2.00000
     10     -13.9621      2.00000
     11     -13.2642      2.00000
     12     -12.5533      2.00000
     13     -11.5749      2.00000
     14     -11.3361      2.00000
     15     -10.8795      2.00000
     16     -10.7858      2.00000
     17     -10.3329      2.00000
     18     -10.1299      2.00000
     19      -9.9780      2.00000
     20      -9.8911      2.00000
     21      -9.3807      2.00000
     22      -9.1628      2.00000
     23      -9.0102      2.00000
     24      -8.7018      2.00000
     25      -8.4968      2.00000
     26      -6.8029      2.00000
     27      -6.2141      2.00000
     28      -5.8326      2.00000
     29      -5.4191      2.00000
     30      -1.1790      0.00000
     31      -0.9802      0.00000
     32      -0.4411      0.00000
     33      -0.3003      0.00000
     34      -0.2134      0.00000
     35      -0.0586      0.00000
     36       0.0481      0.00000
     37       0.1115      0.00000
     38       0.1321      0.00000
     39       0.1455      0.00000
     40       0.1800      0.00000
     41       0.1974      0.00000

 k-point     3 :       0.2500   -0.2500    0.2500
  band No.  band energies     occupation 
      1     -26.2137      2.00000
      2     -25.5153      2.00000
      3     -23.4424      2.00000
      4     -22.6660      2.00000
      5     -19.5885      2.00000
      6     -18.2660      2.00000
      7     -17.3580      2.00000
      8     -16.1575      2.00000
      9     -14.7089      2.00000
     10     -13.9621      2.00000
     11     -13.2642      2.00000
     12     -12.5533      2.00000
     13     -11.5749      2.00000
     14     -11.3361      2.00000
     15     -10.8795      2.00000
     16     -10.7859      2.00000
     17     -10.3329      2.00000
     18     -10.1299      2.00000
     19      -9.9780      2.00000
     20      -9.8911      2.00000
     21      -9.3807      2.00000
     22      -9.1629      2.00000
     23      -9.0102      2.00000
     24      -8.7018      2.00000
     25      -8.4968      2.00000
     26      -6.8029      2.00000
     27      -6.2141      2.00000
     28      -5.8326      2.00000
     29      -5.4191      2.00000
     30      -1.1790      0.00000
     31      -0.9802      0.00000
     32      -0.4410      0.00000
     33      -0.3003      0.00000
     34      -0.2134      0.00000
     35      -0.0587      0.00000
     36       0.0474      0.00000
     37       0.1160      0.00000
     38       0.1265      0.00000
     39       0.1488      0.00000
     40       0.1816      0.00000
     41       0.1971      0.00000

 k-point     4 :      -0.2500   -0.2500    0.2500
  band No.  band energies     occupation 
      1     -26.2137      2.00000
      2     -25.5153      2.00000
      3     -23.4424      2.00000
      4     -22.6660      2.00000
      5     -19.5885      2.00000
      6     -18.2660      2.00000
      7     -17.3580      2.00000
      8     -16.1575      2.00000
      9     -14.7089      2.00000
     10     -13.9621      2.00000
     11     -13.2642      2.00000
     12     -12.5533      2.00000
     13     -11.5749      2.00000
     14     -11.3361      2.00000
     15     -10.8795      2.00000
     16     -10.7859      2.00000
     17     -10.3329      2.00000
     18     -10.1299      2.00000
     19      -9.9780      2.00000
     20      -9.8911      2.00000
     21      -9.3807      2.00000
     22      -9.1628      2.00000
     23      -9.0102      2.00000
     24      -8.7018      2.00000
     25      -8.4968      2.00000
     26      -6.8029      2.00000
     27      -6.2141      2.00000
     28      -5.8326      2.00000
     29      -5.4191      2.00000
     30      -1.1790      0.00000
     31      -0.9802      0.00000
     32      -0.4411      0.00000
     33      -0.3003      0.00000
     34      -0.2134      0.00000
     35      -0.0587      0.00000
     36       0.0476      0.00000
     37       0.1188      0.00000
     38       0.1318      0.00000
     39       0.1383      0.00000
     40       0.1786      0.00000
     41       0.1953      0.00000


--------------------------------------------------------------------------------------------------------


 soft charge-density along one line, spin component           1
         0         1         2         3         4         5         6         7         8         9
 total charge-density along one line
 
 pseudopotential strength for first ion, spin component:           1
 -2.352  -4.055   0.002   0.000  -0.001
 -4.055  -6.905   0.005   0.000  -0.002
  0.002   0.005  -0.332   0.000  -0.002
  0.000   0.000   0.000  -0.336   0.000
 -0.001  -0.002  -0.002   0.000  -0.335
 total augmentation occupancy for first ion, spin component:           1
  3.533  -0.636  -0.402  -0.018   0.186
 -0.636   0.129   0.074   0.003  -0.034
 -0.402   0.074   0.047   0.002  -0.019
 -0.018   0.003   0.002   0.009  -0.001
  0.186  -0.034  -0.019  -0.001   0.016


------------------------ aborting loop because EDIFF is reached ----------------------------------------


    CHARGE:  cpu time   16.3885: real time   16.3752
    FORLOC:  cpu time    5.6401: real time    5.6353
    FORNL :  cpu time   60.2418: real time   60.1922
    STRESS:  cpu time  181.8434: real time  181.6916
    FORCOR:  cpu time   22.3596: real time   22.3406
    FORHAR:  cpu time    9.8995: real time    9.8915
    MIXING:  cpu time    0.7439: real time    0.7424
    OFIELD:  cpu time    0.0000: real time    0.0000

  FORCE on cell =-STRESS in cart. coord.  units (eV):
  Direction    XX          YY          ZZ          XY          YZ          ZX
  --------------------------------------------------------------------------------------
  Alpha Z     0.51957     0.51957     0.51957
  Ewald    2889.31751  2000.21556  1237.98066  -168.30638   253.38051   756.18239
  Hartree  3443.94493  2525.72587  2161.41151  -131.31835   260.16446   603.32674
  E(xc)    -230.03137  -229.45301  -231.64287    -0.27867    -0.28211     0.73638
  Local   -6941.00080 -5103.41644 -4037.47536   293.31444  -529.51934 -1345.15810
  n-local  -132.70837  -135.72455  -131.40812     0.82017     1.31796    -1.06928
  augment    14.69320    13.98807    14.74994    -0.07304     0.80473    -0.17319
  Kinetic   951.58765   924.69615   982.03404     5.76043    14.04730   -13.70455
  Fock        0.00000     0.00000     0.00000     0.00000     0.00000     0.00000
  -------------------------------------------------------------------------------------
  Total      -3.67768    -3.44877    -3.83064    -0.08140    -0.08650     0.14039
  in kB      -0.21823    -0.20465    -0.22731    -0.00483    -0.00513     0.00833
  external pressure =       -0.22 kB  Pullay stress =        0.00 kB


 VOLUME and BASIS-vectors are now :
 -----------------------------------------------------------------------------
  energy-cutoff  :      400.00
  volume of cell :    27000.00
      direct lattice vectors                 reciprocal lattice vectors
    30.000000000  0.000000000  0.000000000     0.033333333  0.000000000  0.000000000
     0.000000000 30.000000000  0.000000000     0.000000000  0.033333333  0.000000000
     0.000000000  0.000000000 30.000000000     0.000000000  0.000000000  0.033333333

  length of vectors
    30.000000000 30.000000000 30.000000000     0.033333333  0.033333333  0.033333333


 FORCES acting on ions
    electron-ion (+dipol)            ewald-force                    non-local-force                 convergence-correction
 -----------------------------------------------------------------------------------------------
   0.648E+02 -.576E+02 -.444E+01   -.672E+02 0.628E+02 0.468E+01   0.239E+01 -.515E+01 -.230E+00   -.994E-04 -.428E-06 0.240E-04
   0.604E+02 0.324E+02 0.524E+02   -.625E+02 -.350E+02 -.567E+02   0.211E+01 0.265E+01 0.431E+01   -.612E-04 -.810E-04 -.267E-04
   0.538E+02 0.331E+02 -.565E+02   -.552E+02 -.359E+02 0.611E+02   0.138E+01 0.276E+01 -.453E+01   -.213E-04 -.105E-03 0.112E-03
   0.572E+02 0.989E+02 -.258E+02   -.609E+02 -.105E+03 0.277E+02   0.370E+01 0.615E+01 -.198E+01   0.104E-03 -.161E-03 0.149E-03
   -.156E+02 0.102E+03 0.709E+00   0.167E+02 -.108E+03 0.109E+00   -.119E+01 0.559E+01 -.819E+00   0.257E-03 -.132E-03 0.301E-03
   -.778E+02 0.182E+02 0.437E+02   0.833E+02 -.192E+02 -.442E+02   -.544E+01 0.930E+00 0.519E+00   0.154E-03 -.146E-03 0.172E-03
   -.120E+02 -.580E+02 0.613E+02   0.110E+02 0.635E+02 -.624E+02   0.986E+00 -.545E+01 0.108E+01   0.832E-04 -.115E-03 0.219E-04
   0.152E+02 0.439E+02 0.793E+02   -.177E+02 -.469E+02 -.831E+02   0.258E+01 0.297E+01 0.382E+01   0.641E-04 -.104E-03 0.288E-04
   0.298E+02 -.735E+02 0.211E+02   -.350E+02 0.767E+02 -.250E+02   0.524E+01 -.313E+01 0.383E+01   0.151E-03 -.153E-03 0.145E-03
   0.306E+01 -.108E+02 -.867E+02   -.459E+01 0.961E+01 0.918E+02   0.153E+01 0.121E+01 -.519E+01   0.969E-04 -.306E-03 0.553E-05
   -.851E+02 -.153E+02 -.171E+02   0.906E+02 0.140E+02 0.167E+02   -.549E+01 0.128E+01 0.384E+00   0.165E-04 -.341E-03 0.685E-04
   -.926E+01 -.866E+02 -.102E+02   0.857E+01 0.921E+02 0.932E+01   0.696E+00 -.553E+01 0.853E+00   0.479E-04 -.220E-03 0.534E-04
   0.229E+03 0.844E+01 -.928E+01   -.230E+03 -.744E+01 0.938E+01   0.857E+00 -.997E+00 -.997E-01   -.114E-03 -.265E-03 0.138E-03
   0.187E+03 0.162E+02 0.584E+01   -.192E+03 -.162E+02 -.535E+01   0.500E+01 -.133E-01 -.493E+00   0.170E-03 -.607E-03 0.247E-03
   -.477E+02 0.159E+03 0.555E+02   0.533E+02 -.160E+03 -.561E+02   -.566E+01 0.911E+00 0.544E+00   0.909E-03 -.732E-03 0.964E-03
   -.915E+02 0.342E+02 0.221E+03   0.916E+02 -.335E+02 -.222E+03   -.163E+00 -.710E+00 0.101E+01   0.471E-03 -.505E-03 0.487E-03
   -.323E+02 0.438E+02 -.921E+01   0.298E+02 -.457E+02 0.651E+01   0.248E+01 0.197E+01 0.269E+01   0.148E-02 -.198E-02 0.122E-02
   -.113E+03 -.161E+03 -.148E+03   0.116E+03 0.163E+03 0.152E+03   -.314E+01 -.223E+01 -.369E+01   0.206E-03 -.121E-02 0.226E-03
   0.124E+03 0.214E+03 -.211E+02   -.121E+03 -.214E+03 0.208E+02   -.279E+01 0.954E-02 0.345E+00   0.648E-03 -.578E-03 0.533E-03
   -.352E+02 -.196E+03 -.497E+02   0.345E+02 0.199E+03 0.479E+02   0.704E+00 -.343E+01 0.180E+01   0.526E-03 -.723E-03 0.695E-03
   0.564E+02 -.386E+03 0.130E+03   -.389E+02 0.433E+03 -.141E+03   -.175E+02 -.470E+02 0.116E+02   0.373E-03 -.462E-03 0.228E-03
   -.314E+03 0.259E+03 -.222E+03   0.350E+03 -.288E+03 0.248E+03   -.357E+02 0.293E+02 -.262E+02   -.666E-03 -.703E-03 -.958E-04
 -----------------------------------------------------------------------------------------------
   0.474E+02 0.180E+02 0.105E+02   0.568E-13 0.000E+00 -.568E-13   -.474E+02 -.180E+02 -.105E+02   0.479E-02 -.963E-02 0.570E-02
 
 
 POSITION                                       TOTAL-FORCE (eV/Angst)
 -----------------------------------------------------------------------------------
     11.36012     15.98249     14.80026         0.001105      0.000228      0.005571
     11.41333     14.45040     13.88655        -0.000329      0.006609     -0.004515
     11.56393     14.42449     15.65887        -0.001117     -0.005413     -0.004065
     13.54568     13.18843     15.03887         0.000195      0.000459      0.002946
     15.69765     12.79009     14.72703        -0.000629      0.000075      0.000210
     17.04852     14.06067     13.07715        -0.001772     -0.001629     -0.001029
     15.78032     15.31147     12.96313        -0.001677     -0.000058     -0.000235
     15.44643     13.64691     12.41311        -0.003484     -0.000861      0.001009
     15.43842     16.30737     15.30671        -0.004177     -0.000295      0.001773
     16.63472     16.37064     17.86123         0.001377      0.000890      0.001453
     18.01827     16.36835     16.74714         0.000805     -0.001885     -0.001124
     16.80030     17.68032     16.65313         0.001728     -0.000811     -0.000863
     11.82396     14.99167     14.75256        -0.000390      0.000553     -0.000073
     13.32406     15.16199     14.60616         0.001624      0.004702     -0.000172
     15.50746     13.86167     14.57810         0.000060     -0.001791      0.001003
     15.96967     14.25085     13.16888        -0.000588     -0.000007      0.000207
     16.37889     14.53097     15.67145        -0.020542      0.022701     -0.016328
     16.94888     16.60807     16.83160        -0.000464      0.001166     -0.000276
     14.05523     14.02502     14.77036         0.000620      0.000257      0.002183
     16.18748     15.85827     15.85057         0.003653     -0.007709      0.003751
     13.83636     16.26688     14.34900        -0.001296     -0.002899      0.000659
     17.22038     13.86305     16.28822         0.025299     -0.014283      0.007914
 -----------------------------------------------------------------------------------
    total drift:                               -0.016002     -0.009226      0.007597


--------------------------------------------------------------------------------------------------------



  FREE ENERGIE OF THE ION-ELECTRON SYSTEM (eV)
  ---------------------------------------------------
  free  energy   TOTEN  =      -129.43292047 eV

  energy  without entropy=     -129.43292047  energy(sigma->0) =     -129.43292047
 
 d Force = 0.1128692E-03[-0.745E-04, 0.300E-03]  d Energy = 0.1190386E-03-0.617E-05
 d Force =-0.3593797E+00[-0.360E+00,-0.358E+00]  d Ewald  =-0.3593789E+00-0.831E-06


--------------------------------------------------------------------------------------------------------


    POTLOK:  cpu time   18.9111: real time   18.8959


--------------------------------------------------------------------------------------------------------


 NEB: the previous image is higher in energy: F
 NEB: the next image is higher in energy    : F
 NEB: image is at an extrema
 NEB: diff energy (min, max):     0.001844  129.432920

 NEB: Tangent
 ----------------------------------------------
     -0.01247     -0.07153     -0.07901
      0.05375     -0.02976     -0.14068
      0.01387     -0.09906     -0.14085
      0.05639     -0.03104     -0.23108
      0.07805      0.05717     -0.19675
      0.10284      0.25842      0.00870
      0.06776      0.22506      0.07952
      0.14681      0.28560     -0.10045
     -0.01232     -0.01345      0.09700
     -0.20033     -0.22441      0.15787
     -0.11769     -0.14142      0.27626
     -0.10662     -0.13063      0.28980
      0.01747     -0.05460     -0.11016
      0.01549     -0.00686     -0.05871
      0.04972      0.05955     -0.09423
      0.09463      0.21713     -0.02097
     -0.03259     -0.03721      0.01469
     -0.12037     -0.14168      0.21124
      0.03928      0.00043     -0.14493
     -0.03707     -0.05192      0.09633
     -0.00590      0.02147      0.05673
     -0.09088     -0.09116      0.02982

 NEB: forces: par spring, perp REAL, dneb     0.017004    0.049464    0.000000
 NEB: distance to prev, next image, angle between     1.267800    1.271201  169.958035
 NEB: projections on to tangent (spring, REAL)     0.017004   -0.003141

 stress matrix after NEB project (eV)
     -3.67768     -0.08140      0.14039
     -0.08140     -3.44877     -0.08650
      0.14039     -0.08650     -3.83064
  FORCES: max atom, RMS     0.034471    0.011151
  FORCE total and by dimension    0.052305    0.023469
  Stress total and by dimension    6.337252    3.830636
 OPT: skip step - force has converged


--------------------------------------------------------------------------------------------------------


  
 reached required accuracy - stopping structural energy minimisation
     LOOP+:  cpu time 1819.7124: real time 1818.2485
    4ORBIT:  cpu time    0.0000: real time    0.0000

 total amount of memory used by VASP on root node  4333711. kBytes
========================================================================

   base      :      30000. kBytes
   nonlr-proj:       2406. kBytes
   fftplans  :     924480. kBytes
   grid      :    2089440. kBytes
   one-center:         67. kBytes
   wavefun   :    1287318. kBytes
 
  
  
 General timing and accounting informations for this job:
 ========================================================
  
                  Total CPU time used (sec):   226673.469
                            User time (sec):   225242.621
                          System time (sec):     1430.847
                         Elapsed time (sec):   226579.169
  
                   Maximum memory used (kb):     5900532.
                   Average memory used (kb):           0.
  
                          Minor page faults:    318932305
                          Major page faults:            8
                 Voluntary context switches:        13766
