 vasp.5.4.1 24Jun15 (build Jan 13 2020 12:58:22) complex                        
  
 POSCAR found type information on POSCAR  H  C  N  O 
 15/POSCAR found :  4 types and      22 ions
 scaLAPACK will be used
 LDA part: xc-table for Pade appr. of Perdew
 POSCAR found type information on POSCAR  H  C  N  O 
 00/POSCAR found :  4 types and      22 ions
 POSCAR found type information on POSCAR  H  C  N  O 
 16/POSCAR found :  4 types and      22 ions
 Jacobian:    50.2178792621697     
 POSCAR, INCAR and KPOINTS ok, starting setup
 WARNING: small aliasing (wrap around) errors must be expected
 FFT: planning ...
 WAVECAR not read
 entering main loop
       N       E                     dE             d eps       ncg     rms          rms(c)
DAV:   1     0.580892370421E+03    0.58089E+03   -0.82614E+03   408   0.485E+02
DAV:   2     0.251346848800E+03   -0.32955E+03   -0.31939E+03   573   0.985E+01
DAV:   3    -0.508075988191E+02   -0.30215E+03   -0.29267E+03   496   0.106E+02
DAV:   4    -0.137172626448E+03   -0.86365E+02   -0.86231E+02   397   0.779E+01
DAV:   5    -0.141871677269E+03   -0.46991E+01   -0.46889E+01   464   0.213E+01    0.196E+01
DAV:   6    -0.131717641715E+03    0.10154E+02   -0.23892E+01   424   0.199E+01    0.998E+00
DAV:   7    -0.129970910155E+03    0.17467E+01   -0.45928E+00   432   0.833E+00    0.516E+00
DAV:   8    -0.129479560519E+03    0.49135E+00   -0.84493E-01   432   0.405E+00    0.155E+00
DAV:   9    -0.129411015944E+03    0.68545E-01   -0.10371E-01   456   0.154E+00    0.571E-01
DAV:  10    -0.129400266530E+03    0.10749E-01   -0.25236E-02   440   0.825E-01    0.260E-01
DAV:  11    -0.129395290940E+03    0.49756E-02   -0.80564E-03   424   0.448E-01    0.163E-01
DAV:  12    -0.129396457280E+03   -0.11663E-02   -0.58697E-03   384   0.359E-01    0.985E-02
DAV:  13    -0.129403136888E+03   -0.66796E-02   -0.47289E-03   392   0.325E-01    0.587E-02
DAV:  14    -0.129409563796E+03   -0.64269E-02   -0.17856E-03   400   0.200E-01    0.391E-02
DAV:  15    -0.129417038344E+03   -0.74745E-02   -0.75375E-04   398   0.101E-01    0.245E-02
DAV:  16    -0.129423264502E+03   -0.62262E-02   -0.50029E-04   334   0.737E-02    0.143E-02
DAV:  17    -0.129426142072E+03   -0.28776E-02   -0.14758E-04   336   0.417E-02    0.881E-03
DAV:  18    -0.129427977834E+03   -0.18358E-02   -0.12805E-04   284   0.320E-02    0.561E-03
DAV:  19    -0.129428828453E+03   -0.85062E-03   -0.48687E-05   312   0.202E-02    0.339E-03
DAV:  20    -0.129429331750E+03   -0.50330E-03   -0.22624E-05   288   0.153E-02    0.229E-03
DAV:  21    -0.129429529541E+03   -0.19779E-03   -0.87933E-06   352   0.851E-03    0.131E-03
DAV:  22    -0.129429678681E+03   -0.14914E-03   -0.43340E-06   254   0.683E-03    0.117E-03
DAV:  23    -0.129429724341E+03   -0.45660E-04   -0.12118E-06   352   0.389E-03
   1 F= -.12942972E+03 E0= -.12942972E+03  d E =-.129430E+03
damped:  g(F)=  0.000E+00 g(S)=  0.000E+00 dE (1.order)= 0.000E+00
 bond charge predicted
       N       E                     dE             d eps       ncg     rms          rms(c)
DAV:   1    -0.129429788299E+03   -0.10962E-03   -0.16531E-03   342   0.218E-01    0.105E-02
DAV:   2    -0.129429798120E+03   -0.98208E-05   -0.53915E-05   368   0.349E-02    0.671E-03
DAV:   3    -0.129429802860E+03   -0.47407E-05   -0.41498E-06   248   0.106E-02    0.365E-03
DAV:   4    -0.129429809556E+03   -0.66956E-05   -0.12971E-06   246   0.611E-03    0.977E-04
DAV:   5    -0.129429813295E+03   -0.37386E-05   -0.30921E-07   272   0.295E-03    0.416E-04
DAV:   6    -0.129429814993E+03   -0.16987E-05   -0.61451E-08   238   0.133E-03
   2 F= -.12942981E+03 E0= -.12942981E+03  d E =-.906519E-04
damped:  g(F)=  0.000E+00 g(S)=  0.000E+00 dE (1.order)= 0.000E+00
 bond charge predicted
       N       E                     dE             d eps       ncg     rms          rms(c)
DAV:   1    -0.129429852563E+03   -0.39269E-04   -0.29052E-03   389   0.284E-01    0.103E-02
DAV:   2    -0.129429858278E+03   -0.57149E-05   -0.64396E-05   302   0.378E-02    0.696E-03
DAV:   3    -0.129429859216E+03   -0.93756E-06   -0.41848E-06   252   0.983E-03    0.423E-03
DAV:   4    -0.129429861084E+03   -0.18684E-05   -0.16530E-06   267   0.712E-03    0.788E-04
DAV:   5    -0.129429861788E+03   -0.70333E-06   -0.51563E-07   254   0.339E-03    0.518E-04
DAV:   6    -0.129429862273E+03   -0.48564E-06   -0.12802E-07   234   0.149E-03
   3 F= -.12942986E+03 E0= -.12942986E+03  d E =-.472799E-04
damped:  g(F)=  0.000E+00 g(S)=  0.000E+00 dE (1.order)= 0.000E+00
 bond charge predicted
       N       E                     dE             d eps       ncg     rms          rms(c)
DAV:   1    -0.129429921708E+03   -0.59920E-04   -0.51603E-03   365   0.377E-01    0.139E-02
DAV:   2    -0.129429931131E+03   -0.94236E-05   -0.12247E-04   274   0.512E-02    0.905E-03
DAV:   3    -0.129429931706E+03   -0.57509E-06   -0.78091E-06   264   0.131E-02    0.559E-03
DAV:   4    -0.129429932922E+03   -0.12157E-05   -0.37676E-06   298   0.907E-03    0.129E-03
DAV:   5    -0.129429933135E+03   -0.21274E-06   -0.58948E-07   272   0.426E-03    0.761E-04
DAV:   6    -0.129429933278E+03   -0.14265E-06   -0.89271E-08   204   0.183E-03
   4 F= -.12942993E+03 E0= -.12942993E+03  d E =-.710044E-04
damped:  g(F)=  0.000E+00 g(S)=  0.000E+00 dE (1.order)= 0.000E+00
 bond charge predicted
       N       E                     dE             d eps       ncg     rms          rms(c)
DAV:   1    -0.129429990377E+03   -0.57242E-04   -0.78228E-03   350   0.460E-01    0.171E-02
DAV:   2    -0.129430003554E+03   -0.13176E-04   -0.18044E-04   267   0.622E-02    0.110E-02
DAV:   3    -0.129430004094E+03   -0.54029E-06   -0.11299E-05   272   0.160E-02    0.662E-03
DAV:   4    -0.129430005151E+03   -0.10566E-05   -0.41528E-06   208   0.106E-02    0.124E-03
DAV:   5    -0.129430005340E+03   -0.18904E-06   -0.12838E-06   272   0.529E-03    0.788E-04
DAV:   6    -0.129430005459E+03   -0.11968E-06   -0.36199E-07   202   0.242E-03
   5 F= -.12943001E+03 E0= -.12943001E+03  d E =-.721818E-04
damped:  g(F)=  0.000E+00 g(S)=  0.000E+00 dE (1.order)= 0.000E+00
 bond charge predicted
       N       E                     dE             d eps       ncg     rms          rms(c)
DAV:   1    -0.129430073091E+03   -0.67751E-04   -0.10259E-02   343   0.524E-01    0.196E-02
DAV:   2    -0.129430089929E+03   -0.16838E-04   -0.22608E-04   291   0.686E-02    0.132E-02
DAV:   3    -0.129430090412E+03   -0.48341E-06   -0.10438E-05   262   0.162E-02    0.792E-03
DAV:   4    -0.129430092166E+03   -0.17537E-05   -0.48752E-06   227   0.123E-02    0.149E-03
DAV:   5    -0.129430092368E+03   -0.20232E-06   -0.13072E-06   246   0.559E-03    0.901E-04
DAV:   6    -0.129430092489E+03   -0.12117E-06   -0.26826E-07   183   0.233E-03
   6 F= -.12943009E+03 E0= -.12943009E+03  d E =-.870301E-04
damped:  g(F)=  0.000E+00 g(S)=  0.000E+00 dE (1.order)= 0.000E+00
 bond charge predicted
       N       E                     dE             d eps       ncg     rms          rms(c)
DAV:   1    -0.129430156096E+03   -0.63727E-04   -0.14557E-02   331   0.621E-01    0.242E-02
DAV:   2    -0.129430178254E+03   -0.22158E-04   -0.30585E-04   333   0.796E-02    0.168E-02
DAV:   3    -0.129430177801E+03    0.45282E-06   -0.92133E-06   263   0.169E-02    0.100E-02
DAV:   4    -0.129430179947E+03   -0.21462E-05   -0.72971E-06   235   0.148E-02    0.193E-03
DAV:   5    -0.129430180089E+03   -0.14115E-06   -0.17640E-06   247   0.677E-03    0.114E-03
DAV:   6    -0.129430180210E+03   -0.12149E-06   -0.30571E-07   175   0.256E-03
   7 F= -.12943018E+03 E0= -.12943018E+03  d E =-.877206E-04
damped:  g(F)=  0.000E+00 g(S)=  0.000E+00 dE (1.order)= 0.000E+00
 bond charge predicted
       N       E                     dE             d eps       ncg     rms          rms(c)
DAV:   1    -0.129430255757E+03   -0.75669E-04   -0.27558E-02   333   0.843E-01    0.349E-02
DAV:   2    -0.129430292993E+03   -0.37236E-04   -0.52355E-04   396   0.104E-01    0.231E-02
DAV:   3    -0.129430291716E+03    0.12770E-05   -0.10014E-05   236   0.188E-02    0.126E-02
DAV:   4    -0.129430295239E+03   -0.35236E-05   -0.12332E-05   279   0.173E-02    0.256E-03
DAV:   5    -0.129430295425E+03   -0.18540E-06   -0.23131E-06   256   0.805E-03    0.137E-03
DAV:   6    -0.129430295557E+03   -0.13252E-06   -0.23241E-07   202   0.266E-03
   8 F= -.12943030E+03 E0= -.12943030E+03  d E =-.115347E-03
damped:  g(F)=  0.000E+00 g(S)=  0.000E+00 dE (1.order)= 0.000E+00
 bond charge predicted
       N       E                     dE             d eps       ncg     rms          rms(c)
DAV:   1    -0.129430350681E+03   -0.55257E-04   -0.54479E-02   332   0.117E+00    0.513E-02
DAV:   2    -0.129430415286E+03   -0.64604E-04   -0.94973E-04   396   0.142E-01    0.338E-02
DAV:   3    -0.129430412234E+03    0.30520E-05   -0.21801E-05   227   0.274E-02    0.176E-02
DAV:   4    -0.129430418087E+03   -0.58531E-05   -0.25208E-05   269   0.237E-02    0.371E-03
DAV:   5    -0.129430418290E+03   -0.20353E-06   -0.45892E-06   239   0.112E-02    0.195E-03
DAV:   6    -0.129430418466E+03   -0.17585E-06   -0.51072E-07   240   0.374E-03
   9 F= -.12943042E+03 E0= -.12943042E+03  d E =-.122909E-03
damped:  g(F)=  0.000E+00 g(S)=  0.000E+00 dE (1.order)= 0.000E+00
 bond charge predicted
       N       E                     dE             d eps       ncg     rms          rms(c)
DAV:   1    -0.129430455401E+03   -0.37111E-04   -0.10628E-01   331   0.162E+00    0.739E-02
DAV:   2    -0.129430563725E+03   -0.10832E-03   -0.16731E-03   396   0.190E-01    0.497E-02
DAV:   3    -0.129430557060E+03    0.66652E-05   -0.51166E-05   235   0.422E-02    0.254E-02
DAV:   4    -0.129430568775E+03   -0.11715E-04   -0.53356E-05   268   0.337E-02    0.604E-03
DAV:   5    -0.129430568588E+03    0.18754E-06   -0.10803E-05   236   0.175E-02    0.283E-03
DAV:   6    -0.129430568856E+03   -0.26861E-06   -0.14127E-06   246   0.592E-03
  10 F= -.12943057E+03 E0= -.12943057E+03  d E =-.150390E-03
damped:  g(F)=  0.000E+00 g(S)=  0.000E+00 dE (1.order)= 0.000E+00
 bond charge predicted
       N       E                     dE             d eps       ncg     rms          rms(c)
DAV:   1    -0.129430513532E+03    0.55056E-04   -0.21760E-01   329   0.230E+00    0.106E-01
DAV:   2    -0.129430715443E+03   -0.20191E-03   -0.32023E-03   396   0.264E-01    0.697E-02
DAV:   3    -0.129430706048E+03    0.93956E-05   -0.10141E-04   298   0.563E-02    0.332E-02
DAV:   4    -0.129430725171E+03   -0.19124E-04   -0.80723E-05   268   0.419E-02    0.595E-03
DAV:   5    -0.129430725534E+03   -0.36333E-06   -0.13611E-05   237   0.186E-02    0.374E-03
DAV:   6    -0.129430725879E+03   -0.34436E-06   -0.16854E-06   268   0.683E-03
  11 F= -.12943073E+03 E0= -.12943073E+03  d E =-.157022E-03
damped:  g(F)=  0.000E+00 g(S)=  0.000E+00 dE (1.order)= 0.000E+00
 bond charge predicted
       N       E                     dE             d eps       ncg     rms          rms(c)
DAV:   1    -0.129430533021E+03    0.19251E-03   -0.40968E-01   328   0.314E+00    0.146E-01
DAV:   2    -0.129430883204E+03   -0.35018E-03   -0.56992E-03   396   0.352E-01    0.964E-02
DAV:   3    -0.129430865070E+03    0.18134E-04   -0.20011E-04   298   0.788E-02    0.454E-02
DAV:   4    -0.129430901327E+03   -0.36256E-04   -0.16103E-04   332   0.564E-02    0.866E-03
DAV:   5    -0.129430900729E+03    0.59751E-06   -0.19375E-05   236   0.220E-02    0.539E-03
DAV:   6    -0.129430901267E+03   -0.53837E-06   -0.29274E-06   238   0.876E-03
  12 F= -.12943090E+03 E0= -.12943090E+03  d E =-.175389E-03
damped:  g(F)=  0.000E+00 g(S)=  0.000E+00 dE (1.order)= 0.000E+00
 bond charge predicted
       N       E                     dE             d eps       ncg     rms          rms(c)
DAV:   1    -0.129430361614E+03    0.53911E-03   -0.71528E-01   328   0.416E+00    0.193E-01
DAV:   2    -0.129431005724E+03   -0.64411E-03   -0.10186E-02   396   0.470E-01    0.126E-01
DAV:   3    -0.129430972876E+03    0.32848E-04   -0.34803E-04   338   0.101E-01    0.583E-02
DAV:   4    -0.129431028120E+03   -0.55245E-04   -0.19517E-04   365   0.659E-02    0.102E-02
DAV:   5    -0.129431027593E+03    0.52733E-06   -0.24091E-05   246   0.246E-02    0.634E-03
DAV:   6    -0.129431028673E+03   -0.10796E-05   -0.43322E-06   292   0.104E-02
  13 F= -.12943103E+03 E0= -.12943103E+03  d E =-.127405E-03
damped:  g(F)=  0.000E+00 g(S)=  0.000E+00 dE (1.order)= 0.000E+00
 bond charge predicted
       N       E                     dE             d eps       ncg     rms          rms(c)
DAV:   1    -0.129428487778E+03    0.25398E-02   -0.11263E+00   328   0.533E+00    0.253E-01
DAV:   2    -0.129429836845E+03   -0.13491E-02   -0.20669E-02   360   0.669E-01    0.172E-01
DAV:   3    -0.129429672753E+03    0.16409E-03   -0.74157E-04   447   0.148E-01    0.925E-02
DAV:   4    -0.129429724456E+03   -0.51704E-04   -0.47587E-04   397   0.107E-01    0.154E-02
DAV:   5    -0.129429725837E+03   -0.13810E-05   -0.62790E-05   312   0.407E-02    0.976E-03
DAV:   6    -0.129429727567E+03   -0.17295E-05   -0.83678E-06   274   0.148E-02
  14 F= -.12942973E+03 E0= -.12942973E+03  d E =0.130111E-02
damped:  g(F)=  0.000E+00 g(S)=  0.000E+00 dE (1.order)= 0.000E+00
 bond charge predicted
       N       E                     dE             d eps       ncg     rms          rms(c)
DAV:   1    -0.129430688212E+03   -0.96237E-03   -0.17105E-01   333   0.215E+00    0.142E-01
DAV:   2    -0.129431226094E+03   -0.53788E-03   -0.77940E-03   368   0.399E-01    0.811E-02
DAV:   3    -0.129431146692E+03    0.79402E-04   -0.22620E-04   396   0.835E-02    0.452E-02
DAV:   4    -0.129431098478E+03    0.48214E-04   -0.14006E-04   272   0.612E-02    0.110E-02
DAV:   5    -0.129431091239E+03    0.72386E-05   -0.32615E-05   336   0.276E-02    0.604E-03
DAV:   6    -0.129431091163E+03    0.76107E-07   -0.41566E-06   308   0.107E-02
  15 F= -.12943109E+03 E0= -.12943109E+03  d E =-.136360E-02
damped:  g(F)=  0.000E+00 g(S)=  0.000E+00 dE (1.order)= 0.000E+00
 bond charge predicted
       N       E                     dE             d eps       ncg     rms          rms(c)
DAV:   1    -0.129431176587E+03   -0.85348E-04   -0.10490E-03   364   0.166E-01    0.116E-02
DAV:   2    -0.129431184432E+03   -0.78444E-05   -0.42023E-05   300   0.302E-02    0.605E-03
DAV:   3    -0.129431189382E+03   -0.49502E-05   -0.38839E-06   236   0.101E-02    0.298E-03
DAV:   4    -0.129431194777E+03   -0.53945E-05   -0.85035E-07   267   0.461E-03    0.101E-03
DAV:   5    -0.129431198390E+03   -0.36137E-05   -0.32549E-07   285   0.230E-03    0.426E-04
DAV:   6    -0.129431201155E+03   -0.27650E-05   -0.10520E-07   219   0.127E-03
  16 F= -.12943120E+03 E0= -.12943120E+03  d E =-.109992E-03
damped:  g(F)=  0.000E+00 g(S)=  0.000E+00 dE (1.order)= 0.000E+00
 bond charge predicted
       N       E                     dE             d eps       ncg     rms          rms(c)
DAV:   1    -0.129431269317E+03   -0.70926E-04   -0.30310E-03   356   0.284E-01    0.190E-02
DAV:   2    -0.129431279448E+03   -0.10131E-04   -0.13210E-04   290   0.525E-02    0.105E-02
DAV:   3    -0.129431279749E+03   -0.30097E-06   -0.69688E-06   245   0.140E-02    0.595E-03
DAV:   4    -0.129431280601E+03   -0.85259E-06   -0.39254E-06   256   0.975E-03    0.152E-03
DAV:   5    -0.129431281087E+03   -0.48587E-06   -0.87027E-07   261   0.498E-03    0.807E-04
DAV:   6    -0.129431281400E+03   -0.31342E-06   -0.16344E-07   232   0.213E-03
  17 F= -.12943128E+03 E0= -.12943128E+03  d E =-.802452E-04
damped:  g(F)=  0.000E+00 g(S)=  0.000E+00 dE (1.order)= 0.000E+00
 bond charge predicted
       N       E                     dE             d eps       ncg     rms          rms(c)
DAV:   1    -0.129431254846E+03    0.26241E-04   -0.34036E-03   352   0.302E-01    0.197E-02
DAV:   2    -0.129431263430E+03   -0.85842E-05   -0.14851E-04   276   0.557E-02    0.111E-02
DAV:   3    -0.129431261861E+03    0.15695E-05   -0.80513E-06   272   0.150E-02    0.636E-03
DAV:   4    -0.129431260260E+03    0.16004E-05   -0.45256E-06   256   0.105E-02    0.166E-03
DAV:   5    -0.129431260100E+03    0.16055E-06   -0.97983E-07   272   0.535E-03    0.900E-04
DAV:   6    -0.129431260212E+03   -0.11253E-06   -0.18480E-07   220   0.231E-03
  18 F= -.12943126E+03 E0= -.12943126E+03  d E =0.211883E-04
damped:  g(F)=  0.000E+00 g(S)=  0.000E+00 dE (1.order)= 0.000E+00
 bond charge predicted
       N       E                     dE             d eps       ncg     rms          rms(c)
DAV:   1    -0.129431265526E+03   -0.54267E-05   -0.13232E-05   240   0.191E-02    0.114E-03
DAV:   2    -0.129431265925E+03   -0.39873E-06   -0.94998E-07   258   0.532E-03    0.728E-04
DAV:   3    -0.129431266266E+03   -0.34047E-06   -0.83541E-08   208   0.169E-03    0.479E-04
DAV:   4    -0.129431266873E+03   -0.60761E-06    0.36928E-09   233   0.963E-04    0.134E-04
DAV:   5    -0.129431267219E+03   -0.34598E-06    0.32832E-08   272   0.500E-04    0.864E-05
DAV:   6    -0.129431267719E+03   -0.49997E-06    0.43112E-08   200   0.363E-04
  19 F= -.12943127E+03 E0= -.12943127E+03  d E =-.750693E-05
damped:  g(F)=  0.000E+00 g(S)=  0.000E+00 dE (1.order)= 0.000E+00
 bond charge predicted
       N       E                     dE             d eps       ncg     rms          rms(c)
DAV:   1    -0.129431276434E+03   -0.92147E-05   -0.49149E-05   255   0.370E-02    0.201E-03
DAV:   2    -0.129431276914E+03   -0.48035E-06   -0.36779E-06   226   0.103E-02    0.127E-03
DAV:   3    -0.129431277085E+03   -0.17039E-06   -0.40379E-07   238   0.314E-03    0.914E-04
DAV:   4    -0.129431277313E+03   -0.22834E-06   -0.82067E-08   217   0.177E-03    0.287E-04
DAV:   5    -0.129431277433E+03   -0.12040E-06    0.10485E-08   272   0.895E-04    0.166E-04
DAV:   6    -0.129431277512E+03   -0.79182E-07    0.40259E-08   200   0.557E-04
  20 F= -.12943128E+03 E0= -.12943128E+03  d E =-.979335E-05
damped:  g(F)=  0.000E+00 g(S)=  0.000E+00 dE (1.order)= 0.000E+00
 bond charge predicted
       N       E                     dE             d eps       ncg     rms          rms(c)
DAV:   1    -0.129431286939E+03   -0.95061E-05   -0.98736E-05   271   0.520E-02    0.282E-03
DAV:   2    -0.129431287388E+03   -0.44917E-06   -0.61737E-06   236   0.132E-02    0.180E-03
DAV:   3    -0.129431287414E+03   -0.25682E-07   -0.61536E-07   222   0.411E-03    0.124E-03
DAV:   4    -0.129431287383E+03    0.30725E-07   -0.15550E-07   239   0.233E-03    0.352E-04
DAV:   5    -0.129431287387E+03   -0.38699E-08   -0.84708E-09   191   0.109E-03    0.205E-04
DAV:   6    -0.129431287409E+03   -0.21536E-07    0.29421E-08   164   0.599E-04
  21 F= -.12943129E+03 E0= -.12943129E+03  d E =-.989641E-05
damped:  g(F)=  0.000E+00 g(S)=  0.000E+00 dE (1.order)= 0.000E+00
 bond charge predicted
       N       E                     dE             d eps       ncg     rms          rms(c)
DAV:   1    -0.129431295212E+03   -0.78250E-05   -0.14510E-04   260   0.628E-02    0.339E-03
DAV:   2    -0.129431295637E+03   -0.42466E-06   -0.75562E-06   236   0.141E-02    0.215E-03
DAV:   3    -0.129431295588E+03    0.49257E-07   -0.76236E-07   237   0.456E-03    0.139E-03
DAV:   4    -0.129431295464E+03    0.12384E-06   -0.19310E-07   218   0.252E-03    0.395E-04
DAV:   5    -0.129431295451E+03    0.12526E-07   -0.19253E-08   165   0.125E-03    0.211E-04
DAV:   6    -0.129431295478E+03   -0.26250E-07    0.25834E-08   165   0.651E-04
  22 F= -.12943130E+03 E0= -.12943130E+03  d E =-.806875E-05
damped:  g(F)=  0.000E+00 g(S)=  0.000E+00 dE (1.order)= 0.000E+00
 bond charge predicted
       N       E                     dE             d eps       ncg     rms          rms(c)
DAV:   1    -0.129431299927E+03   -0.44760E-05   -0.17092E-04   264   0.683E-02    0.356E-03
DAV:   2    -0.129431300423E+03   -0.49592E-06   -0.86579E-06   210   0.152E-02    0.228E-03
DAV:   3    -0.129431300382E+03    0.41544E-07   -0.88207E-07   170   0.491E-03    0.149E-03
DAV:   4    -0.129431300273E+03    0.10865E-06   -0.22767E-07   234   0.271E-03    0.421E-04
DAV:   5    -0.129431300277E+03   -0.36944E-08   -0.28839E-08   164   0.134E-03    0.226E-04
DAV:   6    -0.129431300322E+03   -0.44946E-07    0.22210E-08   164   0.703E-04
  23 F= -.12943130E+03 E0= -.12943130E+03  d E =-.484410E-05
damped:  g(F)=  0.000E+00 g(S)=  0.000E+00 dE (1.order)= 0.000E+00
 bond charge predicted
       N       E                     dE             d eps       ncg     rms          rms(c)
DAV:   1    -0.129431301513E+03   -0.12366E-05   -0.17270E-04   264   0.688E-02    0.341E-03
DAV:   2    -0.129431302020E+03   -0.50654E-06   -0.81840E-06   200   0.150E-02    0.220E-03
DAV:   3    -0.129431302005E+03    0.15174E-07   -0.83585E-07   164   0.483E-03    0.144E-03
DAV:   4    -0.129431301944E+03    0.61182E-07   -0.21165E-07   164   0.266E-03    0.395E-04
DAV:   5    -0.129431301963E+03   -0.19821E-07   -0.24651E-08   164   0.131E-03    0.217E-04
DAV:   6    -0.129431302020E+03   -0.56382E-07    0.22725E-08   164   0.689E-04
  24 F= -.12943130E+03 E0= -.12943130E+03  d E =-.169805E-05
damped:  g(F)=  0.000E+00 g(S)=  0.000E+00 dE (1.order)= 0.000E+00
 bond charge predicted
       N       E                     dE             d eps       ncg     rms          rms(c)
DAV:   1    -0.129431301563E+03    0.40083E-06   -0.19396E-04   264   0.728E-02    0.334E-03
DAV:   2    -0.129431302108E+03   -0.54523E-06   -0.80395E-06   200   0.151E-02    0.215E-03
DAV:   3    -0.129431302124E+03   -0.16127E-07   -0.81806E-07   164   0.487E-03    0.139E-03
DAV:   4    -0.129431302113E+03    0.11220E-07   -0.19784E-07   164   0.263E-03    0.353E-04
DAV:   5    -0.129431302145E+03   -0.32569E-07   -0.21241E-08   164   0.129E-03    0.206E-04
DAV:   6    -0.129431302203E+03   -0.57888E-07    0.23238E-08   164   0.672E-04
  25 F= -.12943130E+03 E0= -.12943130E+03  d E =-.183382E-06
damped:  g(F)=  0.000E+00 g(S)=  0.000E+00 dE (1.order)= 0.000E+00
 bond charge predicted
       N       E                     dE             d eps       ncg     rms          rms(c)
DAV:   1    -0.129431302959E+03   -0.81406E-06   -0.22246E-04   264   0.771E-02    0.324E-03
DAV:   2    -0.129431303528E+03   -0.56898E-06   -0.74558E-06   164   0.148E-02    0.205E-03
DAV:   3    -0.129431303602E+03   -0.73865E-07   -0.73772E-07   164   0.479E-03    0.123E-03
DAV:   4    -0.129431303665E+03   -0.63071E-07   -0.15683E-07   164   0.244E-03    0.263E-04
DAV:   5    -0.129431303709E+03   -0.43554E-07   -0.11930E-08   164   0.120E-03    0.183E-04
DAV:   6    -0.129431303760E+03   -0.51384E-07    0.26352E-08   165   0.599E-04
  26 F= -.12943130E+03 E0= -.12943130E+03  d E =-.155702E-05
damped:  g(F)=  0.000E+00 g(S)=  0.000E+00 dE (1.order)= 0.000E+00
 bond charge predicted
       N       E                     dE             d eps       ncg     rms          rms(c)
DAV:   1    -0.129431309243E+03   -0.55345E-05   -0.30834E-04   323   0.894E-02    0.370E-03
DAV:   2    -0.129431309677E+03   -0.43413E-06   -0.59792E-06   167   0.125E-02    0.232E-03
DAV:   3    -0.129431309802E+03   -0.12482E-06   -0.60800E-07   164   0.437E-03    0.114E-03
DAV:   4    -0.129431309896E+03   -0.94250E-07   -0.12897E-07   252   0.217E-03    0.214E-04
DAV:   5    -0.129431309930E+03   -0.33488E-07   -0.52081E-09   164   0.106E-03    0.121E-04
DAV:   6    -0.129431309953E+03   -0.23016E-07    0.26240E-08   167   0.509E-04
  27 F= -.12943131E+03 E0= -.12943131E+03  d E =-.619283E-05
damped:  g(F)=  0.000E+00 g(S)=  0.000E+00 dE (1.order)= 0.000E+00
 bond charge predicted
       N       E                     dE             d eps       ncg     rms          rms(c)
DAV:   1    -0.129431320757E+03   -0.10827E-04   -0.51235E-04   260   0.116E-01    0.481E-03
DAV:   2    -0.129431321513E+03   -0.75625E-06   -0.11258E-05   220   0.171E-02    0.312E-03
DAV:   3    -0.129431321648E+03   -0.13468E-06   -0.11955E-06   178   0.594E-03    0.169E-03
DAV:   4    -0.129431321715E+03   -0.67183E-07   -0.30613E-07   261   0.313E-03    0.370E-04
DAV:   5    -0.129431321723E+03   -0.77084E-08   -0.50517E-08   165   0.156E-03    0.224E-04
DAV:   6    -0.129431321731E+03   -0.80026E-08    0.14883E-08   164   0.749E-04
  28 F= -.12943132E+03 E0= -.12943132E+03  d E =-.117778E-04
damped:  g(F)=  0.000E+00 g(S)=  0.000E+00 dE (1.order)= 0.000E+00
 bond charge predicted
       N       E                     dE             d eps       ncg     rms          rms(c)
DAV:   1    -0.129431334649E+03   -0.12926E-04   -0.88156E-04   292   0.153E-01    0.677E-03
DAV:   2    -0.129431335729E+03   -0.10806E-05   -0.18701E-05   236   0.210E-02    0.439E-03
DAV:   3    -0.129431335824E+03   -0.95335E-07   -0.20078E-06   264   0.721E-03    0.233E-03
DAV:   4    -0.129431335857E+03   -0.32391E-07   -0.56984E-07   213   0.395E-03    0.550E-04
DAV:   5    -0.129431335858E+03   -0.97361E-09   -0.11310E-07   166   0.197E-03    0.279E-04
DAV:   6    -0.129431335884E+03   -0.26051E-07    0.12897E-09   167   0.965E-04
  29 F= -.12943134E+03 E0= -.12943134E+03  d E =-.141531E-04
damped:  g(F)=  0.000E+00 g(S)=  0.000E+00 dE (1.order)= 0.000E+00
 bond charge predicted
       N       E                     dE             d eps       ncg     rms          rms(c)
DAV:   1    -0.129431345320E+03   -0.94620E-05   -0.13496E-03   327   0.189E-01    0.830E-03
DAV:   2    -0.129431346967E+03   -0.16475E-05   -0.28812E-05   200   0.260E-02    0.539E-03
DAV:   3    -0.129431347105E+03   -0.13743E-06   -0.30915E-06   254   0.887E-03    0.290E-03
DAV:   4    -0.129431347189E+03   -0.84120E-07   -0.89893E-07   202   0.488E-03    0.683E-04
DAV:   5    -0.129431347209E+03   -0.20401E-07   -0.20033E-07   164   0.244E-03    0.348E-04
DAV:   6    -0.129431347265E+03   -0.55867E-07   -0.24536E-08   174   0.120E-03
  30 F= -.12943135E+03 E0= -.12943135E+03  d E =-.113812E-04
damped:  g(F)=  0.000E+00 g(S)=  0.000E+00 dE (1.order)= 0.000E+00
 bond charge predicted
       N       E                     dE             d eps       ncg     rms          rms(c)
DAV:   1    -0.129431355890E+03   -0.86804E-05   -0.17729E-03   327   0.215E-01    0.889E-03
DAV:   2    -0.129431357872E+03   -0.19828E-05   -0.32521E-05   200   0.275E-02    0.578E-03
DAV:   3    -0.129431358205E+03   -0.33300E-06   -0.33294E-06   164   0.925E-03    0.299E-03
DAV:   4    -0.129431358489E+03   -0.28331E-06   -0.93143E-07   164   0.494E-03    0.625E-04
DAV:   5    -0.129431358566E+03   -0.77358E-07   -0.21542E-07   164   0.241E-03    0.339E-04
DAV:   6    -0.129431358648E+03   -0.81395E-07   -0.30877E-08   184   0.116E-03
  31 F= -.12943136E+03 E0= -.12943136E+03  d E =-.113824E-04
damped:  g(F)=  0.000E+00 g(S)=  0.000E+00 dE (1.order)= 0.000E+00
 bond charge predicted
       N       E                     dE             d eps       ncg     rms          rms(c)
DAV:   1    -0.129431375535E+03   -0.16969E-04   -0.23566E-03   328   0.247E-01    0.997E-03
DAV:   2    -0.129431378288E+03   -0.27526E-05   -0.41129E-05   237   0.306E-02    0.638E-03
DAV:   3    -0.129431378834E+03   -0.54584E-06   -0.40269E-06   220   0.102E-02    0.319E-03
DAV:   4    -0.129431379318E+03   -0.48419E-06   -0.10625E-06   245   0.523E-03    0.580E-04
DAV:   5    -0.129431379432E+03   -0.11389E-06   -0.26533E-07   204   0.247E-03    0.313E-04
DAV:   6    -0.129431379514E+03   -0.82364E-07   -0.52358E-08   208   0.118E-03
  32 F= -.12943138E+03 E0= -.12943138E+03  d E =-.208669E-04
damped:  g(F)=  0.000E+00 g(S)=  0.000E+00 dE (1.order)= 0.000E+00
 bond charge predicted
       N       E                     dE             d eps       ncg     rms          rms(c)
DAV:   1    -0.129431400309E+03   -0.20877E-04   -0.34670E-03   330   0.300E-01    0.124E-02
DAV:   2    -0.129431405441E+03   -0.51318E-05   -0.73831E-05   268   0.400E-02    0.806E-03
DAV:   3    -0.129431405642E+03   -0.20145E-06   -0.49597E-06   264   0.105E-02    0.452E-03
DAV:   4    -0.129431406032E+03   -0.38997E-06   -0.20258E-06   218   0.713E-03    0.836E-04
DAV:   5    -0.129431406081E+03   -0.49130E-07   -0.55014E-07   264   0.349E-03    0.530E-04
DAV:   6    -0.129431406132E+03   -0.51217E-07   -0.13099E-07   176   0.153E-03
  33 F= -.12943141E+03 E0= -.12943141E+03  d E =-.266180E-04
damped:  g(F)=  0.000E+00 g(S)=  0.000E+00 dE (1.order)= 0.000E+00
 bond charge predicted
       N       E                     dE             d eps       ncg     rms          rms(c)
DAV:   1    -0.129431423196E+03   -0.17115E-04   -0.45951E-03   332   0.343E-01    0.136E-02
DAV:   2    -0.129431430067E+03   -0.68708E-05   -0.98459E-05   243   0.454E-02    0.889E-03
DAV:   3    -0.129431430387E+03   -0.32000E-06   -0.62490E-06   240   0.116E-02    0.505E-03
DAV:   4    -0.129431431002E+03   -0.61517E-06   -0.25000E-06   224   0.790E-03    0.891E-04
DAV:   5    -0.129431431106E+03   -0.10347E-06   -0.72725E-07   212   0.383E-03    0.592E-04
DAV:   6    -0.129431431204E+03   -0.97813E-07   -0.19197E-07   174   0.168E-03
  34 F= -.12943143E+03 E0= -.12943143E+03  d E =-.250714E-04
damped:  g(F)=  0.000E+00 g(S)=  0.000E+00 dE (1.order)= 0.000E+00
 bond charge predicted
       N       E                     dE             d eps       ncg     rms          rms(c)
DAV:   1    -0.129431458065E+03   -0.26959E-04   -0.52375E-03   330   0.364E-01    0.138E-02
DAV:   2    -0.129431465739E+03   -0.76738E-05   -0.10848E-04   259   0.468E-02    0.906E-03
DAV:   3    -0.129431466603E+03   -0.86480E-06   -0.65307E-06   245   0.116E-02    0.523E-03
DAV:   4    -0.129431467926E+03   -0.13224E-05   -0.25867E-06   234   0.802E-03    0.914E-04
DAV:   5    -0.129431468112E+03   -0.18643E-06   -0.79700E-07   222   0.381E-03    0.598E-04
DAV:   6    -0.129431468227E+03   -0.11471E-06   -0.22060E-07   208   0.168E-03
  35 F= -.12943147E+03 E0= -.12943147E+03  d E =-.370232E-04
damped:  g(F)=  0.000E+00 g(S)=  0.000E+00 dE (1.order)= 0.000E+00
 bond charge predicted
       N       E                     dE             d eps       ncg     rms          rms(c)
DAV:   1    -0.129431495992E+03   -0.27880E-04   -0.66163E-03   332   0.408E-01    0.156E-02
DAV:   2    -0.129431507064E+03   -0.11071E-04   -0.15930E-04   298   0.550E-02    0.107E-02
DAV:   3    -0.129431507454E+03   -0.39036E-06   -0.60090E-06   272   0.123E-02    0.666E-03
DAV:   4    -0.129431508821E+03   -0.13670E-05   -0.34799E-06   200   0.103E-02    0.129E-03
DAV:   5    -0.129431508917E+03   -0.96402E-07   -0.90941E-07   272   0.465E-03    0.829E-04
DAV:   6    -0.129431509018E+03   -0.10086E-06   -0.16708E-07   202   0.199E-03
  36 F= -.12943151E+03 E0= -.12943151E+03  d E =-.407913E-04
damped:  g(F)=  0.000E+00 g(S)=  0.000E+00 dE (1.order)= 0.000E+00
 bond charge predicted
       N       E                     dE             d eps       ncg     rms          rms(c)
DAV:   1    -0.129431535644E+03   -0.26727E-04   -0.78400E-03   333   0.437E-01    0.160E-02
DAV:   2    -0.129431548929E+03   -0.13284E-04   -0.18127E-04   268   0.574E-02    0.107E-02
DAV:   3    -0.129431549568E+03   -0.63947E-06   -0.60448E-06   200   0.123E-02    0.657E-03
DAV:   4    -0.129431551382E+03   -0.18134E-05   -0.31706E-06   244   0.100E-02    0.115E-03
DAV:   5    -0.129431551562E+03   -0.18072E-06   -0.93482E-07   164   0.447E-03    0.843E-04
DAV:   6    -0.129431551726E+03   -0.16417E-06   -0.17915E-07   200   0.190E-03
  37 F= -.12943155E+03 E0= -.12943155E+03  d E =-.427082E-04
damped:  g(F)=  0.000E+00 g(S)=  0.000E+00 dE (1.order)= 0.000E+00
 bond charge predicted
       N       E                     dE             d eps       ncg     rms          rms(c)
DAV:   1    -0.129431583604E+03   -0.32042E-04   -0.10627E-02   329   0.506E-01    0.186E-02
DAV:   2    -0.129431603250E+03   -0.19645E-04   -0.25676E-04   300   0.679E-02    0.124E-02
DAV:   3    -0.129431603631E+03   -0.38093E-06   -0.81931E-06   248   0.144E-02    0.757E-03
DAV:   4    -0.129431605508E+03   -0.18771E-05   -0.43000E-06   208   0.117E-02    0.117E-03
DAV:   5    -0.129431605714E+03   -0.20643E-06   -0.12818E-06   272   0.513E-03    0.970E-04
DAV:   6    -0.129431605868E+03   -0.15324E-06   -0.24630E-07   202   0.207E-03
  38 F= -.12943161E+03 E0= -.12943161E+03  d E =-.541411E-04
damped:  g(F)=  0.000E+00 g(S)=  0.000E+00 dE (1.order)= 0.000E+00
 bond charge predicted
       N       E                     dE             d eps       ncg     rms          rms(c)
DAV:   1    -0.129431630750E+03   -0.25036E-04   -0.14033E-02   332   0.577E-01    0.211E-02
DAV:   2    -0.129431655170E+03   -0.24420E-04   -0.32406E-04   300   0.757E-02    0.140E-02
DAV:   3    -0.129431655804E+03   -0.63329E-06   -0.10597E-05   221   0.161E-02    0.846E-03
DAV:   4    -0.129431658470E+03   -0.26666E-05   -0.54391E-06   234   0.129E-02    0.133E-03
DAV:   5    -0.129431658777E+03   -0.30624E-06   -0.16674E-06   222   0.568E-03    0.109E-03
DAV:   6    -0.129431659017E+03   -0.24025E-06   -0.35280E-07   200   0.230E-03
  39 F= -.12943166E+03 E0= -.12943166E+03  d E =-.531492E-04
damped:  g(F)=  0.000E+00 g(S)=  0.000E+00 dE (1.order)= 0.000E+00
 bond charge predicted
       N       E                     dE             d eps       ncg     rms          rms(c)
DAV:   1    -0.129431687527E+03   -0.28751E-04   -0.19242E-02   328   0.679E-01    0.252E-02
DAV:   2    -0.129431722106E+03   -0.34579E-04   -0.46372E-04   363   0.894E-02    0.179E-02
DAV:   3    -0.129431721506E+03    0.59973E-06   -0.62246E-06   272   0.143E-02    0.113E-02
DAV:   4    -0.129431725865E+03   -0.43589E-05   -0.87408E-06   200   0.159E-02    0.224E-03
DAV:   5    -0.129431726195E+03   -0.32948E-06   -0.22826E-06   272   0.729E-03    0.130E-03
DAV:   6    -0.129431726374E+03   -0.17925E-06   -0.27673E-07   204   0.242E-03
  40 F= -.12943173E+03 E0= -.12943173E+03  d E =-.673573E-04
damped:  g(F)=  0.000E+00 g(S)=  0.000E+00 dE (1.order)= 0.000E+00
 bond charge predicted
       N       E                     dE             d eps       ncg     rms          rms(c)
DAV:   1    -0.129431748276E+03   -0.22081E-04   -0.27994E-02   335   0.813E-01    0.299E-02
DAV:   2    -0.129431797195E+03   -0.48918E-04   -0.64221E-04   388   0.104E-01    0.205E-02
DAV:   3    -0.129431796155E+03    0.10395E-05   -0.75517E-06   235   0.156E-02    0.125E-02
DAV:   4    -0.129431801908E+03   -0.57527E-05   -0.10309E-05   228   0.175E-02    0.216E-03
DAV:   5    -0.129431802409E+03   -0.50099E-06   -0.27592E-06   200   0.775E-03    0.140E-03
DAV:   6    -0.129431802660E+03   -0.25152E-06   -0.33377E-07   164   0.245E-03
  41 F= -.12943180E+03 E0= -.12943180E+03  d E =-.762862E-04
damped:  g(F)=  0.000E+00 g(S)=  0.000E+00 dE (1.order)= 0.000E+00
 bond charge predicted
       N       E                     dE             d eps       ncg     rms          rms(c)
DAV:   1    -0.129431802799E+03   -0.38978E-06   -0.42275E-02   332   0.997E-01    0.365E-02
DAV:   2    -0.129431880496E+03   -0.77698E-04   -0.99317E-04   388   0.129E-01    0.251E-02
DAV:   3    -0.129431877615E+03    0.28816E-05   -0.11114E-05   247   0.189E-02    0.153E-02
DAV:   4    -0.129431885295E+03   -0.76808E-05   -0.17126E-05   291   0.214E-02    0.277E-03
DAV:   5    -0.129431885899E+03   -0.60340E-06   -0.31640E-06   272   0.879E-03    0.180E-03
DAV:   6    -0.129431886249E+03   -0.34988E-06   -0.27286E-07   200   0.273E-03
  42 F= -.12943189E+03 E0= -.12943189E+03  d E =-.835884E-04
damped:  g(F)=  0.000E+00 g(S)=  0.000E+00 dE (1.order)= 0.000E+00
 bond charge predicted
       N       E                     dE             d eps       ncg     rms          rms(c)
DAV:   1    -0.129431856062E+03    0.29836E-04   -0.57381E-02   332   0.117E+00    0.436E-02
DAV:   2    -0.129431965853E+03   -0.10979E-03   -0.14482E-03   360   0.158E-01    0.318E-02
DAV:   3    -0.129431961616E+03    0.42370E-05   -0.19835E-05   272   0.255E-02    0.204E-02
DAV:   4    -0.129431973018E+03   -0.11402E-04   -0.31882E-05   264   0.287E-02    0.472E-03
DAV:   5    -0.129431973532E+03   -0.51352E-06   -0.72154E-06   272   0.136E-02    0.246E-03
DAV:   6    -0.129431973910E+03   -0.37848E-06   -0.88374E-07   256   0.456E-03
  43 F= -.12943197E+03 E0= -.12943197E+03  d E =-.876615E-04
damped:  g(F)=  0.000E+00 g(S)=  0.000E+00 dE (1.order)= 0.000E+00
 bond charge predicted
       N       E                     dE             d eps       ncg     rms          rms(c)
DAV:   1    -0.129431837249E+03    0.13628E-03   -0.90494E-02   332   0.148E+00    0.576E-02
DAV:   2    -0.129432033276E+03   -0.19603E-03   -0.24672E-03   328   0.209E-01    0.396E-02
DAV:   3    -0.129432022597E+03    0.10679E-04   -0.47995E-05   333   0.335E-02    0.243E-02
DAV:   4    -0.129432028133E+03   -0.55362E-05   -0.40701E-05   273   0.351E-02    0.412E-03
DAV:   5    -0.129432029353E+03   -0.12204E-05   -0.89589E-06   272   0.146E-02    0.325E-03
DAV:   6    -0.129432030149E+03   -0.79606E-06   -0.11132E-06   248   0.523E-03
  44 F= -.12943203E+03 E0= -.12943203E+03  d E =-.562391E-04
damped:  g(F)=  0.000E+00 g(S)=  0.000E+00 dE (1.order)= 0.000E+00
 bond charge predicted
       N       E                     dE             d eps       ncg     rms          rms(c)
DAV:   1    -0.129432104015E+03   -0.74662E-04   -0.44825E-03   376   0.344E-01    0.231E-02
DAV:   2    -0.129432119331E+03   -0.15316E-04   -0.19893E-04   306   0.635E-02    0.129E-02
DAV:   3    -0.129432118980E+03    0.35143E-06   -0.74121E-06   236   0.153E-02    0.743E-03
DAV:   4    -0.129432119572E+03   -0.59178E-06   -0.55467E-06   264   0.118E-02    0.180E-03
DAV:   5    -0.129432120045E+03   -0.47316E-06   -0.11461E-06   271   0.584E-03    0.942E-04
DAV:   6    -0.129432120410E+03   -0.36546E-06   -0.18240E-07   240   0.240E-03
  45 F= -.12943212E+03 E0= -.12943212E+03  d E =-.902609E-04
damped:  g(F)=  0.000E+00 g(S)=  0.000E+00 dE (1.order)= 0.000E+00
 bond charge predicted
       N       E                     dE             d eps       ncg     rms          rms(c)
DAV:   1    -0.129432057711E+03    0.62334E-04   -0.49936E-03   352   0.364E-01    0.235E-02
DAV:   2    -0.129432071544E+03   -0.13833E-04   -0.22332E-04   316   0.670E-02    0.137E-02
DAV:   3    -0.129432068998E+03    0.25454E-05   -0.81109E-06   272   0.160E-02    0.797E-03
DAV:   4    -0.129432066728E+03    0.22700E-05   -0.63152E-06   256   0.126E-02    0.198E-03
DAV:   5    -0.129432066495E+03    0.23329E-06   -0.13132E-06   272   0.637E-03    0.105E-03
DAV:   6    -0.129432066646E+03   -0.15055E-06   -0.23396E-07   200   0.265E-03
  46 F= -.12943207E+03 E0= -.12943207E+03  d E =0.537646E-04
damped:  g(F)=  0.000E+00 g(S)=  0.000E+00 dE (1.order)= 0.000E+00
 bond charge predicted
       N       E                     dE             d eps       ncg     rms          rms(c)
DAV:   1    -0.129432091864E+03   -0.25369E-04   -0.21402E-04   320   0.757E-02    0.443E-03
DAV:   2    -0.129432093254E+03   -0.13897E-05   -0.10954E-05   240   0.169E-02    0.272E-03
DAV:   3    -0.129432093851E+03   -0.59708E-06   -0.11120E-06   256   0.550E-03    0.162E-03
DAV:   4    -0.129432094737E+03   -0.88658E-06   -0.27569E-07   216   0.290E-03    0.433E-04
DAV:   5    -0.129432095203E+03   -0.46533E-06   -0.40132E-08   272   0.143E-03    0.211E-04
DAV:   6    -0.129432095547E+03   -0.34424E-06    0.27214E-08   200   0.719E-04
  47 F= -.12943210E+03 E0= -.12943210E+03  d E =-.289012E-04
damped:  g(F)=  0.000E+00 g(S)=  0.000E+00 dE (1.order)= 0.000E+00
 bond charge predicted
       N       E                     dE             d eps       ncg     rms          rms(c)
DAV:   1    -0.129432123815E+03   -0.28612E-04   -0.68432E-04   374   0.135E-01    0.897E-03
DAV:   2    -0.129432125722E+03   -0.19074E-05   -0.27533E-05   209   0.250E-02    0.490E-03
DAV:   3    -0.129432125795E+03   -0.72425E-07   -0.30700E-06   264   0.869E-03    0.254E-03
DAV:   4    -0.129432125762E+03    0.32301E-07   -0.81042E-07   210   0.445E-03    0.812E-04
DAV:   5    -0.129432125784E+03   -0.21984E-07   -0.20619E-07   272   0.245E-03    0.365E-04
DAV:   6    -0.129432125845E+03   -0.60881E-07   -0.28765E-08   222   0.120E-03
  48 F= -.12943213E+03 E0= -.12943213E+03  d E =-.302984E-04
damped:  g(F)=  0.000E+00 g(S)=  0.000E+00 dE (1.order)= 0.000E+00
 bond charge predicted
       N       E                     dE             d eps       ncg     rms          rms(c)
DAV:   1    -0.129432132778E+03   -0.69936E-05   -0.98310E-04   383   0.162E-01    0.105E-02
DAV:   2    -0.129432134692E+03   -0.19144E-05   -0.39722E-05   202   0.299E-02    0.586E-03
DAV:   3    -0.129432134219E+03    0.47297E-06   -0.44705E-06   263   0.104E-02    0.309E-03
DAV:   4    -0.129432133653E+03    0.56652E-06   -0.12124E-06   200   0.534E-03    0.993E-04
DAV:   5    -0.129432133526E+03    0.12640E-06   -0.33128E-07   272   0.298E-03    0.451E-04
DAV:   6    -0.129432133615E+03   -0.88517E-07   -0.69686E-08   200   0.146E-03
  49 F= -.12943213E+03 E0= -.12943213E+03  d E =-.776966E-05
damped:  g(F)=  0.000E+00 g(S)=  0.000E+00 dE (1.order)= 0.000E+00
 bond charge predicted
       N       E                     dE             d eps       ncg     rms          rms(c)
DAV:   1    -0.129432134050E+03   -0.52392E-06   -0.48182E-07   238   0.377E-03    0.253E-04
DAV:   2    -0.129432134208E+03   -0.15789E-06   -0.20065E-09   176   0.110E-03    0.181E-04
DAV:   3    -0.129432134446E+03   -0.23768E-06    0.31003E-08   221   0.440E-04    0.105E-04
DAV:   4    -0.129432134815E+03   -0.36863E-06    0.30763E-08   224   0.349E-04    0.472E-05
DAV:   5    -0.129432134978E+03   -0.16387E-06    0.35992E-08   229   0.217E-04    0.395E-05
DAV:   6    -0.129432135410E+03   -0.43158E-06    0.28025E-08   216   0.264E-04
  50 F= -.12943214E+03 E0= -.12943214E+03  d E =-.179506E-05
damped:  g(F)=  0.000E+00 g(S)=  0.000E+00 dE (1.order)= 0.000E+00
 bond charge predicted
       N       E                     dE             d eps       ncg     rms          rms(c)
DAV:   1    -0.129432135986E+03   -0.10074E-05   -0.18809E-06   272   0.725E-03    0.324E-04
DAV:   2    -0.129432136060E+03   -0.74272E-07   -0.88835E-08   184   0.194E-03    0.205E-04
DAV:   3    -0.129432136104E+03   -0.44045E-07    0.22508E-08   180   0.596E-04    0.159E-04
DAV:   4    -0.129432136163E+03   -0.59397E-07    0.33686E-08   238   0.326E-04    0.503E-05
DAV:   5    -0.129432136193E+03   -0.29516E-07    0.36099E-08   166   0.171E-04    0.269E-05
DAV:   6    -0.129432136208E+03   -0.14892E-07    0.36970E-08   164   0.103E-04
  51 F= -.12943214E+03 E0= -.12943214E+03  d E =-.797917E-06
damped:  g(F)=  0.000E+00 g(S)=  0.000E+00 dE (1.order)= 0.000E+00
 bond charge predicted
       N       E                     dE             d eps       ncg     rms          rms(c)
DAV:   1    -0.129432136873E+03   -0.67961E-06   -0.41332E-06   167   0.107E-02    0.478E-04
DAV:   2    -0.129432136899E+03   -0.26462E-07   -0.23797E-07   164   0.284E-03    0.305E-04
DAV:   3    -0.129432136903E+03   -0.40200E-08    0.27608E-09   164   0.867E-04    0.238E-04
DAV:   4    -0.129432136903E+03    0.72760E-10    0.28935E-08   164   0.476E-04    0.763E-05
DAV:   5    -0.129432136901E+03    0.18154E-08    0.35524E-08   164   0.236E-04    0.416E-05
DAV:   6    -0.129432136900E+03    0.75306E-09    0.37946E-08   164   0.137E-04
  52 F= -.12943214E+03 E0= -.12943214E+03  d E =-.692555E-06
damped:  g(F)=  0.000E+00 g(S)=  0.000E+00 dE (1.order)= 0.000E+00
 bond charge predicted
       N       E                     dE             d eps       ncg     rms          rms(c)
DAV:   1    -0.129432137671E+03   -0.76954E-06   -0.70377E-06   164   0.139E-02    0.614E-04
DAV:   2    -0.129432137711E+03   -0.39801E-07   -0.42135E-07   164   0.367E-03    0.389E-04
DAV:   3    -0.129432137714E+03   -0.33488E-08   -0.18833E-08   164   0.112E-03    0.304E-04
DAV:   4    -0.129432137711E+03    0.26271E-08    0.24837E-08   164   0.613E-04    0.964E-05
DAV:   5    -0.129432137711E+03    0.28922E-09    0.35637E-08   164   0.302E-04    0.528E-05
DAV:   6    -0.129432137711E+03    0.55024E-10    0.39124E-08   164   0.174E-04
  53 F= -.12943214E+03 E0= -.12943214E+03  d E =-.810472E-06
damped:  g(F)=  0.000E+00 g(S)=  0.000E+00 dE (1.order)= 0.000E+00
 bond charge predicted
       N       E                     dE             d eps       ncg     rms          rms(c)
DAV:   1    -0.129432138546E+03   -0.83498E-06   -0.10471E-05   164   0.168E-02    0.736E-04
DAV:   2    -0.129432138608E+03   -0.61958E-07   -0.62962E-07   164   0.443E-03    0.461E-04
DAV:   3    -0.129432138615E+03   -0.74033E-08   -0.43716E-08   164   0.135E-03    0.361E-04
DAV:   4    -0.129432138615E+03    0.63528E-09    0.20066E-08   164   0.733E-04    0.111E-04
DAV:   5    -0.129432138614E+03    0.86993E-09    0.35221E-08   164   0.358E-04    0.616E-05
DAV:   6    -0.129432138615E+03   -0.85856E-09    0.39992E-08   164   0.204E-04
  54 F= -.12943214E+03 E0= -.12943214E+03  d E =-.903746E-06
damped:  g(F)=  0.000E+00 g(S)=  0.000E+00 dE (1.order)= 0.000E+00
 bond charge predicted
       N       E                     dE             d eps       ncg     rms          rms(c)
DAV:   1    -0.129432139466E+03   -0.85175E-06   -0.14408E-05   164   0.197E-02    0.848E-04
DAV:   2    -0.129432139551E+03   -0.85251E-07   -0.85744E-07   164   0.513E-03    0.522E-04
DAV:   3    -0.129432139561E+03   -0.10316E-07   -0.71308E-08   164   0.156E-03    0.407E-04
DAV:   4    -0.129432139561E+03   -0.30786E-09    0.14405E-08   164   0.839E-04    0.120E-04
DAV:   5    -0.129432139561E+03    0.11414E-09    0.34135E-08   164   0.405E-04    0.684E-05
DAV:   6    -0.129432139562E+03   -0.73123E-09    0.40232E-08   164   0.226E-04
  55 F= -.12943214E+03 E0= -.12943214E+03  d E =-.947385E-06
damped:  g(F)=  0.000E+00 g(S)=  0.000E+00 dE (1.order)= 0.000E+00
 bond charge predicted
       N       E                     dE             d eps       ncg     rms          rms(c)
DAV:   1    -0.129432140527E+03   -0.96574E-06   -0.23688E-05   164   0.250E-02    0.107E-03
DAV:   2    -0.129432140664E+03   -0.13665E-06   -0.13937E-06   164   0.647E-03    0.645E-04
DAV:   3    -0.129432140681E+03   -0.17525E-07   -0.13795E-07   164   0.197E-03    0.499E-04
DAV:   4    -0.129432140683E+03   -0.16257E-08   -0.56962E-10   164   0.104E-03    0.137E-04
DAV:   5    -0.129432140684E+03   -0.11005E-08    0.29911E-08   164   0.495E-04    0.827E-05
DAV:   6    -0.129432140685E+03   -0.61618E-09    0.39326E-08   164   0.270E-04
  56 F= -.12943214E+03 E0= -.12943214E+03  d E =-.112253E-05
damped:  g(F)=  0.000E+00 g(S)=  0.000E+00 dE (1.order)= 0.000E+00
 bond charge predicted
       N       E                     dE             d eps       ncg     rms          rms(c)
DAV:   1    -0.129432141751E+03   -0.10673E-05   -0.39160E-05   164   0.320E-02    0.136E-03
DAV:   2    -0.129432141970E+03   -0.21920E-06   -0.22669E-06   164   0.819E-03    0.803E-04
DAV:   3    -0.129432142000E+03   -0.29668E-07   -0.24752E-07   164   0.248E-03    0.610E-04
DAV:   4    -0.129432142004E+03   -0.41491E-08   -0.25299E-08   164   0.130E-03    0.151E-04
DAV:   5    -0.129432142006E+03   -0.12014E-08    0.22540E-08   164   0.607E-04    0.101E-04
DAV:   6    -0.129432142007E+03   -0.10004E-08    0.37241E-08   164   0.324E-04
  57 F= -.12943214E+03 E0= -.12943214E+03  d E =-.132195E-05
damped:  g(F)=  0.000E+00 g(S)=  0.000E+00 dE (1.order)= 0.000E+00
 bond charge predicted
       N       E                     dE             d eps       ncg     rms          rms(c)
DAV:   1    -0.129432143218E+03   -0.12121E-05   -0.66144E-05   164   0.413E-02    0.177E-03
DAV:   2    -0.129432143580E+03   -0.36214E-06   -0.37754E-06   164   0.105E-02    0.102E-03
DAV:   3    -0.129432143631E+03   -0.51200E-07   -0.43764E-07   164   0.319E-03    0.759E-04
DAV:   4    -0.129432143639E+03   -0.81054E-08   -0.68371E-08   164   0.165E-03    0.164E-04
DAV:   5    -0.129432143642E+03   -0.34470E-08    0.91605E-09   164   0.761E-04    0.128E-04
DAV:   6    -0.129432143644E+03   -0.11760E-08    0.33234E-08   164   0.399E-04
  58 F= -.12943214E+03 E0= -.12943214E+03  d E =-.163712E-05
damped:  g(F)=  0.000E+00 g(S)=  0.000E+00 dE (1.order)= 0.000E+00
 bond charge predicted
       N       E                     dE             d eps       ncg     rms          rms(c)
DAV:   1    -0.129432145098E+03   -0.14556E-05   -0.11653E-04   196   0.544E-02    0.235E-03
DAV:   2    -0.129432145599E+03   -0.50093E-06   -0.54005E-06   164   0.122E-02    0.135E-03
DAV:   3    -0.129432145674E+03   -0.74758E-07   -0.59630E-07   164   0.384E-03    0.913E-04
DAV:   4    -0.129432145685E+03   -0.11137E-07   -0.10150E-07   164   0.197E-03    0.136E-04
DAV:   5    -0.129432145690E+03   -0.48540E-08    0.23512E-09   164   0.914E-04    0.152E-04
DAV:   6    -0.129432145691E+03   -0.16880E-08    0.32339E-08   164   0.450E-04
  59 F= -.12943215E+03 E0= -.12943215E+03  d E =-.204774E-05
damped:  g(F)=  0.000E+00 g(S)=  0.000E+00 dE (1.order)= 0.000E+00
 bond charge predicted
       N       E                     dE             d eps       ncg     rms          rms(c)
DAV:   1    -0.129432147884E+03   -0.21940E-05   -0.21440E-04   260   0.725E-02    0.322E-03
DAV:   2    -0.129432148115E+03   -0.23177E-06   -0.34498E-06   164   0.956E-03    0.200E-03
DAV:   3    -0.129432148174E+03   -0.58221E-07   -0.39029E-07   164   0.354E-03    0.847E-04
DAV:   4    -0.129432148195E+03   -0.21152E-07   -0.75614E-08   164   0.171E-03    0.173E-04
DAV:   5    -0.129432148200E+03   -0.55088E-08    0.11739E-08   164   0.849E-04    0.967E-05
DAV:   6    -0.129432148203E+03   -0.31196E-08    0.32934E-08   164   0.419E-04
  60 F= -.12943215E+03 E0= -.12943215E+03  d E =-.251209E-05
damped:  g(F)=  0.000E+00 g(S)=  0.000E+00 dE (1.order)= 0.000E+00
 bond charge predicted
       N       E                     dE             d eps       ncg     rms          rms(c)
DAV:   1    -0.129432150642E+03   -0.24418E-05   -0.38396E-04   260   0.971E-02    0.428E-03
DAV:   2    -0.129432151046E+03   -0.40388E-06   -0.61533E-06   164   0.128E-02    0.267E-03
DAV:   3    -0.129432151152E+03   -0.10586E-06   -0.73385E-07   164   0.474E-03    0.113E-03
DAV:   4    -0.129432151189E+03   -0.36783E-07   -0.16846E-07   164   0.228E-03    0.231E-04
DAV:   5    -0.129432151195E+03   -0.67871E-08   -0.12836E-08   164   0.114E-03    0.129E-04
DAV:   6    -0.129432151199E+03   -0.33870E-08    0.25060E-08   164   0.567E-04
  61 F= -.12943215E+03 E0= -.12943215E+03  d E =-.299535E-05
damped:  g(F)=  0.000E+00 g(S)=  0.000E+00 dE (1.order)= 0.000E+00
 bond charge predicted
       N       E                     dE             d eps       ncg     rms          rms(c)
DAV:   1    -0.129432153845E+03   -0.26491E-05   -0.68578E-04   292   0.129E-01    0.580E-03
DAV:   2    -0.129432154285E+03   -0.44066E-06   -0.83100E-06   164   0.144E-02    0.364E-03
DAV:   3    -0.129432154434E+03   -0.14900E-06   -0.10576E-06   164   0.535E-03    0.143E-03
DAV:   4    -0.129432154493E+03   -0.58908E-07   -0.26644E-07   164   0.258E-03    0.311E-04
DAV:   5    -0.129432154501E+03   -0.79917E-08   -0.34505E-08   164   0.124E-03    0.150E-04
DAV:   6    -0.129432154506E+03   -0.45229E-08    0.16278E-08   164   0.636E-04
  62 F= -.12943215E+03 E0= -.12943215E+03  d E =-.330685E-05
damped:  g(F)=  0.000E+00 g(S)=  0.000E+00 dE (1.order)= 0.000E+00
 bond charge predicted
       N       E                     dE             d eps       ncg     rms          rms(c)
DAV:   1    -0.129432157087E+03   -0.25857E-05   -0.11489E-03   292   0.167E-01    0.753E-03
DAV:   2    -0.129432157789E+03   -0.70181E-06   -0.13709E-05   164   0.186E-02    0.472E-03
DAV:   3    -0.129432158034E+03   -0.24554E-06   -0.17843E-06   164   0.691E-03    0.183E-03
DAV:   4    -0.129432158136E+03   -0.10153E-06   -0.46846E-07   164   0.332E-03    0.401E-04
DAV:   5    -0.129432158149E+03   -0.12879E-07   -0.83797E-08   164   0.159E-03    0.191E-04
DAV:   6    -0.129432158156E+03   -0.78180E-08    0.18496E-11   164   0.812E-04
  63 F= -.12943216E+03 E0= -.12943216E+03  d E =-.365081E-05
damped:  g(F)=  0.000E+00 g(S)=  0.000E+00 dE (1.order)= 0.000E+00
 bond charge predicted
       N       E                     dE             d eps       ncg     rms          rms(c)
DAV:   1    -0.129432161080E+03   -0.29317E-05   -0.18270E-03   292   0.211E-01    0.951E-03
DAV:   2    -0.129432162167E+03   -0.10865E-05   -0.21548E-05   199   0.233E-02    0.595E-03
DAV:   3    -0.129432162554E+03   -0.38684E-06   -0.28316E-06   164   0.866E-03    0.231E-03
DAV:   4    -0.129432162719E+03   -0.16564E-06   -0.76041E-07   164   0.415E-03    0.507E-04
DAV:   5    -0.129432162742E+03   -0.23074E-07   -0.15482E-07   164   0.198E-03    0.239E-04
DAV:   6    -0.129432162756E+03   -0.13485E-07   -0.22635E-08   164   0.101E-03
  64 F= -.12943216E+03 E0= -.12943216E+03  d E =-.459936E-05
damped:  g(F)=  0.000E+00 g(S)=  0.000E+00 dE (1.order)= 0.000E+00
 bond charge predicted
       N       E                     dE             d eps       ncg     rms          rms(c)
DAV:   1    -0.129432166449E+03   -0.37071E-05   -0.27743E-03   292   0.260E-01    0.117E-02
DAV:   2    -0.129432168118E+03   -0.16688E-05   -0.32965E-05   200   0.288E-02    0.734E-03
DAV:   3    -0.129432168691E+03   -0.57230E-06   -0.43211E-06   164   0.107E-02    0.289E-03
DAV:   4    -0.129432168949E+03   -0.25873E-06   -0.11783E-06   164   0.512E-03    0.639E-04
DAV:   5    -0.129432168988E+03   -0.38292E-07   -0.25755E-07   164   0.244E-03    0.300E-04
DAV:   6    -0.129432169009E+03   -0.21432E-07   -0.54266E-08   164   0.122E-03
  65 F= -.12943217E+03 E0= -.12943217E+03  d E =-.625316E-05
damped:  g(F)=  0.000E+00 g(S)=  0.000E+00 dE (1.order)= 0.000E+00
 bond charge predicted
       N       E                     dE             d eps       ncg     rms          rms(c)
DAV:   1    -0.129432174006E+03   -0.50182E-05   -0.40356E-03   324   0.314E-01    0.141E-02
DAV:   2    -0.129432176551E+03   -0.25452E-05   -0.49196E-05   209   0.349E-02    0.883E-03
DAV:   3    -0.129432177345E+03   -0.79390E-06   -0.63591E-06   199   0.129E-02    0.358E-03
DAV:   4    -0.129432177738E+03   -0.39324E-06   -0.17553E-06   164   0.623E-03    0.791E-04
DAV:   5    -0.129432177798E+03   -0.59631E-07   -0.40251E-07   164   0.299E-03    0.373E-04
DAV:   6    -0.129432177831E+03   -0.33398E-07   -0.98325E-08   164   0.147E-03
  66 F= -.12943218E+03 E0= -.12943218E+03  d E =-.882215E-05
damped:  g(F)=  0.000E+00 g(S)=  0.000E+00 dE (1.order)= 0.000E+00
 bond charge predicted
       N       E                     dE             d eps       ncg     rms          rms(c)
DAV:   1    -0.129432184756E+03   -0.69585E-05   -0.55908E-03   324   0.369E-01    0.164E-02
DAV:   2    -0.129432188620E+03   -0.38635E-05   -0.70897E-05   218   0.414E-02    0.103E-02
DAV:   3    -0.129432189676E+03   -0.10561E-05   -0.88889E-06   200   0.151E-02    0.430E-03
DAV:   4    -0.129432190266E+03   -0.59021E-06   -0.24830E-06   213   0.737E-03    0.929E-04
DAV:   5    -0.129432190354E+03   -0.88180E-07   -0.59644E-07   164   0.353E-03    0.446E-04
DAV:   6    -0.129432190401E+03   -0.46633E-07   -0.16116E-07   164   0.172E-03
  67 F= -.12943219E+03 E0= -.12943219E+03  d E =-.125697E-04
damped:  g(F)=  0.000E+00 g(S)=  0.000E+00 dE (1.order)= 0.000E+00
 bond charge predicted
       N       E                     dE             d eps       ncg     rms          rms(c)
DAV:   1    -0.129432200845E+03   -0.10491E-04   -0.71777E-03   324   0.417E-01    0.179E-02
DAV:   2    -0.129432207164E+03   -0.63190E-05   -0.10351E-04   257   0.478E-02    0.114E-02
DAV:   3    -0.129432208128E+03   -0.96434E-06   -0.90432E-06   208   0.140E-02    0.535E-03
DAV:   4    -0.129432209026E+03   -0.89727E-06   -0.33869E-06   260   0.827E-03    0.105E-03
DAV:   5    -0.129432209137E+03   -0.11147E-06   -0.87480E-07   164   0.400E-03    0.554E-04
DAV:   6    -0.129432209190E+03   -0.52343E-07   -0.24198E-07   164   0.178E-03
  68 F= -.12943221E+03 E0= -.12943221E+03  d E =-.187886E-04
damped:  g(F)=  0.000E+00 g(S)=  0.000E+00 dE (1.order)= 0.000E+00
 bond charge predicted
       N       E                     dE             d eps       ncg     rms          rms(c)
DAV:   1    -0.129432209849E+03   -0.71179E-06   -0.23012E-06   172   0.762E-03    0.334E-04
DAV:   2    -0.129432209889E+03   -0.40295E-07   -0.14102E-07   164   0.214E-03    0.200E-04
DAV:   3    -0.129432209917E+03   -0.27396E-07    0.52716E-09   164   0.739E-04    0.145E-04
DAV:   4    -0.129432209960E+03   -0.42985E-07    0.29756E-08   196   0.440E-04    0.411E-05
DAV:   5    -0.129432209982E+03   -0.21945E-07    0.38860E-08   164   0.245E-04    0.353E-05
DAV:   6    -0.129432210005E+03   -0.23701E-07    0.42595E-08   164   0.166E-04
  69 F= -.12943221E+03 E0= -.12943221E+03  d E =-.815768E-06
damped:  g(F)=  0.000E+00 g(S)=  0.000E+00 dE (1.order)= 0.000E+00
 bond charge predicted
       N       E                     dE             d eps       ncg     rms          rms(c)
DAV:   1    -0.129432211215E+03   -0.12334E-05   -0.86851E-06   180   0.148E-02    0.554E-04
DAV:   2    -0.129432211269E+03   -0.54330E-07   -0.47939E-07   164   0.397E-03    0.340E-04
DAV:   3    -0.129432211280E+03   -0.10909E-07   -0.15707E-08   164   0.112E-03    0.266E-04
DAV:   4    -0.129432211290E+03   -0.97680E-08    0.28739E-08   164   0.572E-04    0.744E-05
DAV:   5    -0.129432211295E+03   -0.47148E-08    0.38347E-08   164   0.276E-04    0.485E-05
DAV:   6    -0.129432211298E+03   -0.33060E-08    0.41688E-08   164   0.162E-04
  70 F= -.12943221E+03 E0= -.12943221E+03  d E =-.129277E-05
damped:  g(F)=  0.000E+00 g(S)=  0.000E+00 dE (1.order)= 0.000E+00
 bond charge predicted
       N       E                     dE             d eps       ncg     rms          rms(c)
DAV:   1    -0.129432213018E+03   -0.17227E-05   -0.18586E-05   164   0.216E-02    0.803E-04
DAV:   2    -0.129432213121E+03   -0.10302E-06   -0.10709E-06   164   0.579E-03    0.491E-04
DAV:   3    -0.129432213132E+03   -0.11573E-07   -0.82628E-08   164   0.162E-03    0.384E-04
DAV:   4    -0.129432213135E+03   -0.28049E-08    0.10798E-08   164   0.821E-04    0.104E-04
DAV:   5    -0.129432213137E+03   -0.22792E-08    0.31116E-08   164   0.393E-04    0.702E-05
DAV:   6    -0.129432213138E+03   -0.74942E-09    0.38595E-08   164   0.227E-04
  71 F= -.12943221E+03 E0= -.12943221E+03  d E =-.183986E-05
damped:  g(F)=  0.000E+00 g(S)=  0.000E+00 dE (1.order)= 0.000E+00
 bond charge predicted
       N       E                     dE             d eps       ncg     rms          rms(c)
DAV:   1    -0.129432215347E+03   -0.22100E-05   -0.30919E-05   164   0.276E-02    0.102E-03
DAV:   2    -0.129432215516E+03   -0.16853E-06   -0.18017E-06   164   0.743E-03    0.624E-04
DAV:   3    -0.129432215536E+03   -0.20080E-07   -0.16298E-07   164   0.206E-03    0.486E-04
DAV:   4    -0.129432215541E+03   -0.48130E-08   -0.10338E-08   164   0.104E-03    0.128E-04
DAV:   5    -0.129432215543E+03   -0.20927E-08    0.23245E-08   164   0.499E-04    0.908E-05
DAV:   6    -0.129432215544E+03   -0.11778E-08    0.35809E-08   164   0.290E-04
  72 F= -.12943222E+03 E0= -.12943222E+03  d E =-.240593E-05
damped:  g(F)=  0.000E+00 g(S)=  0.000E+00 dE (1.order)= 0.000E+00
 bond charge predicted
       N       E                     dE             d eps       ncg     rms          rms(c)
DAV:   1    -0.129432218176E+03   -0.26329E-05   -0.43984E-05   164   0.326E-02    0.120E-03
DAV:   2    -0.129432218414E+03   -0.23863E-06   -0.25643E-06   164   0.880E-03    0.732E-04
DAV:   3    -0.129432218442E+03   -0.27949E-07   -0.24400E-07   164   0.243E-03    0.567E-04
DAV:   4    -0.129432218451E+03   -0.89867E-08   -0.32039E-08   164   0.122E-03    0.145E-04
DAV:   5    -0.129432218454E+03   -0.30668E-08    0.15093E-08   164   0.581E-04    0.108E-04
DAV:   6    -0.129432218456E+03   -0.17289E-08    0.33030E-08   164   0.340E-04
  73 F= -.12943222E+03 E0= -.12943222E+03  d E =-.291210E-05
damped:  g(F)=  0.000E+00 g(S)=  0.000E+00 dE (1.order)= 0.000E+00
 bond charge predicted
       N       E                     dE             d eps       ncg     rms          rms(c)
DAV:   1    -0.129432221376E+03   -0.29221E-05   -0.56255E-05   164   0.366E-02    0.135E-03
DAV:   2    -0.129432221680E+03   -0.30376E-06   -0.32630E-06   164   0.987E-03    0.819E-04
DAV:   3    -0.129432221716E+03   -0.36292E-07   -0.31844E-07   164   0.272E-03    0.630E-04
DAV:   4    -0.129432221728E+03   -0.11293E-07   -0.51931E-08   164   0.136E-03    0.156E-04
DAV:   5    -0.129432221733E+03   -0.48421E-08    0.76103E-09   164   0.644E-04    0.122E-04
DAV:   6    -0.129432221734E+03   -0.19281E-08    0.30560E-08   164   0.377E-04
  74 F= -.12943222E+03 E0= -.12943222E+03  d E =-.327850E-05
damped:  g(F)=  0.000E+00 g(S)=  0.000E+00 dE (1.order)= 0.000E+00
 bond charge predicted
       N       E                     dE             d eps       ncg     rms          rms(c)
DAV:   1    -0.129432225254E+03   -0.35211E-05   -0.89143E-05   196   0.456E-02    0.170E-03
DAV:   2    -0.129432225562E+03   -0.30843E-06   -0.35167E-06   164   0.102E-02    0.103E-03
DAV:   3    -0.129432225599E+03   -0.36596E-07   -0.30939E-07   164   0.300E-03    0.727E-04
DAV:   4    -0.129432225614E+03   -0.15618E-07   -0.43906E-08   164   0.150E-03    0.122E-04
DAV:   5    -0.129432225618E+03   -0.42055E-08    0.14570E-08   164   0.715E-04    0.106E-04
DAV:   6    -0.129432225620E+03   -0.17799E-08    0.34309E-08   164   0.366E-04
  75 F= -.12943223E+03 E0= -.12943223E+03  d E =-.388576E-05
damped:  g(F)=  0.000E+00 g(S)=  0.000E+00 dE (1.order)= 0.000E+00
 bond charge predicted
       N       E                     dE             d eps       ncg     rms          rms(c)
DAV:   1    -0.129432229409E+03   -0.37904E-05   -0.15188E-04   196   0.603E-02    0.233E-03
DAV:   2    -0.129432229961E+03   -0.55193E-06   -0.62613E-06   164   0.135E-02    0.139E-03
DAV:   3    -0.129432230033E+03   -0.72650E-07   -0.61831E-07   164   0.403E-03    0.983E-04
DAV:   4    -0.129432230060E+03   -0.26247E-07   -0.11449E-07   164   0.203E-03    0.159E-04
DAV:   5    -0.129432230066E+03   -0.59581E-08   -0.57044E-09   164   0.956E-04    0.147E-04
DAV:   6    -0.129432230068E+03   -0.21355E-08    0.29316E-08   164   0.478E-04
  76 F= -.12943223E+03 E0= -.12943223E+03  d E =-.444752E-05
damped:  g(F)=  0.000E+00 g(S)=  0.000E+00 dE (1.order)= 0.000E+00
 bond charge predicted
       N       E                     dE             d eps       ncg     rms          rms(c)
DAV:   1    -0.129432234507E+03   -0.44414E-05   -0.30428E-04   260   0.853E-02    0.350E-03
DAV:   2    -0.129432234902E+03   -0.39491E-06   -0.57061E-06   164   0.115E-02    0.220E-03
DAV:   3    -0.129432234981E+03   -0.79081E-07   -0.58848E-07   164   0.407E-03    0.112E-03
DAV:   4    -0.129432235024E+03   -0.42632E-07   -0.12888E-07   164   0.204E-03    0.210E-04
DAV:   5    -0.129432235032E+03   -0.81864E-08   -0.67771E-09   164   0.101E-03    0.127E-04
DAV:   6    -0.129432235035E+03   -0.33951E-08    0.27522E-08   164   0.472E-04
  77 F= -.12943224E+03 E0= -.12943224E+03  d E =-.496750E-05
damped:  g(F)=  0.000E+00 g(S)=  0.000E+00 dE (1.order)= 0.000E+00
 bond charge predicted
       N       E                     dE             d eps       ncg     rms          rms(c)
DAV:   1    -0.129432239967E+03   -0.49355E-05   -0.59424E-04   292   0.120E-01    0.505E-03
DAV:   2    -0.129432240477E+03   -0.51011E-06   -0.84649E-06   164   0.137E-02    0.320E-03
DAV:   3    -0.129432240603E+03   -0.12535E-06   -0.92690E-07   164   0.484E-03    0.147E-03
DAV:   4    -0.129432240675E+03   -0.71830E-07   -0.23540E-07   164   0.244E-03    0.293E-04
DAV:   5    -0.129432240686E+03   -0.11048E-07   -0.33146E-08   164   0.116E-03    0.155E-04
DAV:   6    -0.129432240691E+03   -0.53251E-08    0.18400E-08   164   0.557E-04
  78 F= -.12943224E+03 E0= -.12943224E+03  d E =-.565571E-05
damped:  g(F)=  0.000E+00 g(S)=  0.000E+00 dE (1.order)= 0.000E+00
 bond charge predicted
       N       E                     dE             d eps       ncg     rms          rms(c)
DAV:   1    -0.129432246199E+03   -0.55132E-05   -0.10904E-03   292   0.162E-01    0.698E-03
DAV:   2    -0.129432247048E+03   -0.84911E-06   -0.14765E-05   164   0.184E-02    0.441E-03
DAV:   3    -0.129432247278E+03   -0.22961E-06   -0.17144E-06   164   0.659E-03    0.195E-03
DAV:   4    -0.129432247404E+03   -0.12640E-06   -0.45982E-07   164   0.327E-03    0.398E-04
DAV:   5    -0.129432247422E+03   -0.17648E-07   -0.90310E-08   164   0.156E-03    0.203E-04
DAV:   6    -0.129432247431E+03   -0.88776E-08    0.17982E-10   164   0.754E-04
  79 F= -.12943225E+03 E0= -.12943225E+03  d E =-.673955E-05
damped:  g(F)=  0.000E+00 g(S)=  0.000E+00 dE (1.order)= 0.000E+00
 bond charge predicted
       N       E                     dE             d eps       ncg     rms          rms(c)
DAV:   1    -0.129432253790E+03   -0.63680E-05   -0.18750E-03   292   0.213E-01    0.922E-03
DAV:   2    -0.129432255193E+03   -0.14037E-05   -0.24857E-05   200   0.240E-02    0.582E-03
DAV:   3    -0.129432255578E+03   -0.38492E-06   -0.29579E-06   164   0.866E-03    0.253E-03
DAV:   4    -0.129432255794E+03   -0.21557E-06   -0.81515E-07   164   0.428E-03    0.523E-04
DAV:   5    -0.129432255823E+03   -0.28946E-07   -0.18113E-07   164   0.204E-03    0.263E-04
DAV:   6    -0.129432255838E+03   -0.15125E-07   -0.28960E-08   164   0.988E-04
  80 F= -.12943226E+03 E0= -.12943226E+03  d E =-.840746E-05
damped:  g(F)=  0.000E+00 g(S)=  0.000E+00 dE (1.order)= 0.000E+00
 bond charge predicted
       N       E                     dE             d eps       ncg     rms          rms(c)
DAV:   1    -0.129432263094E+03   -0.72712E-05   -0.30036E-03   324   0.270E-01    0.117E-02
DAV:   2    -0.129432265380E+03   -0.22855E-05   -0.40055E-05   200   0.305E-02    0.736E-03
DAV:   3    -0.129432265981E+03   -0.60116E-06   -0.47732E-06   164   0.110E-02    0.321E-03
DAV:   4    -0.129432266330E+03   -0.34901E-06   -0.13329E-06   164   0.542E-03    0.662E-04
DAV:   5    -0.129432266377E+03   -0.47680E-07   -0.31800E-07   164   0.258E-03    0.334E-04
DAV:   6    -0.129432266402E+03   -0.24186E-07   -0.73289E-08   164   0.125E-03
  81 F= -.12943227E+03 E0= -.12943227E+03  d E =-.105636E-04
damped:  g(F)=  0.000E+00 g(S)=  0.000E+00 dE (1.order)= 0.000E+00
 bond charge predicted
       N       E                     dE             d eps       ncg     rms          rms(c)
DAV:   1    -0.129432275791E+03   -0.94135E-05   -0.45155E-03   324   0.331E-01    0.141E-02
DAV:   2    -0.129432279486E+03   -0.36953E-05   -0.62409E-05   200   0.376E-02    0.894E-03
DAV:   3    -0.129432280352E+03   -0.86527E-06   -0.72783E-06   181   0.134E-02    0.400E-03
DAV:   4    -0.129432280904E+03   -0.55296E-06   -0.20506E-06   182   0.668E-03    0.813E-04
DAV:   5    -0.129432280978E+03   -0.73954E-07   -0.52004E-07   164   0.319E-03    0.417E-04
DAV:   6    -0.129432281015E+03   -0.36791E-07   -0.14042E-07   164   0.154E-03
  82 F= -.12943228E+03 E0= -.12943228E+03  d E =-.146137E-04
damped:  g(F)=  0.000E+00 g(S)=  0.000E+00 dE (1.order)= 0.000E+00
 bond charge predicted
       N       E                     dE             d eps       ncg     rms          rms(c)
DAV:   1    -0.129432293390E+03   -0.12412E-04   -0.63486E-03   324   0.391E-01    0.162E-02
DAV:   2    -0.129432299761E+03   -0.63709E-05   -0.98410E-05   232   0.453E-02    0.104E-02
DAV:   3    -0.129432300605E+03   -0.84340E-06   -0.79282E-06   190   0.129E-02    0.517E-03
DAV:   4    -0.129432301504E+03   -0.89947E-06   -0.30342E-06   233   0.784E-03    0.973E-04
DAV:   5    -0.129432301609E+03   -0.10442E-06   -0.83146E-07   164   0.377E-03    0.549E-04
DAV:   6    -0.129432301656E+03   -0.47583E-07   -0.23298E-07   164   0.166E-03
  83 F= -.12943230E+03 E0= -.12943230E+03  d E =-.206411E-04
damped:  g(F)=  0.000E+00 g(S)=  0.000E+00 dE (1.order)= 0.000E+00
 bond charge predicted
       N       E                     dE             d eps       ncg     rms          rms(c)
DAV:   1    -0.129432317169E+03   -0.15560E-04   -0.78679E-03   324   0.431E-01    0.172E-02
DAV:   2    -0.129432327377E+03   -0.10208E-04   -0.14378E-04   300   0.514E-02    0.113E-02
DAV:   3    -0.129432327859E+03   -0.48165E-06   -0.67080E-06   200   0.125E-02    0.618E-03
DAV:   4    -0.129432329056E+03   -0.11977E-05   -0.31082E-06   269   0.896E-03    0.108E-03
DAV:   5    -0.129432329160E+03   -0.10338E-06   -0.80646E-07   164   0.403E-03    0.758E-04
DAV:   6    -0.129432329216E+03   -0.56644E-07   -0.16211E-07   164   0.168E-03
  84 F= -.12943233E+03 E0= -.12943233E+03  d E =-.275601E-04
damped:  g(F)=  0.000E+00 g(S)=  0.000E+00 dE (1.order)= 0.000E+00
 bond charge predicted
       N       E                     dE             d eps       ncg     rms          rms(c)
DAV:   1    -0.129432330229E+03   -0.10693E-05   -0.76579E-06   164   0.141E-02    0.592E-04
DAV:   2    -0.129432330314E+03   -0.84891E-07   -0.45841E-07   164   0.380E-03    0.337E-04
DAV:   3    -0.129432330360E+03   -0.46040E-07   -0.26621E-08   164   0.115E-03    0.247E-04
DAV:   4    -0.129432330436E+03   -0.75648E-07    0.23296E-08   232   0.649E-04    0.544E-05
DAV:   5    -0.129432330469E+03   -0.32858E-07    0.38416E-08   164   0.324E-04    0.538E-05
DAV:   6    -0.129432330504E+03   -0.35147E-07    0.44364E-08   164   0.204E-04
  85 F= -.12943233E+03 E0= -.12943233E+03  d E =-.128728E-05
damped:  g(F)=  0.000E+00 g(S)=  0.000E+00 dE (1.order)= 0.000E+00
 bond charge predicted
       N       E                     dE             d eps       ncg     rms          rms(c)
DAV:   1    -0.129432332366E+03   -0.18980E-05   -0.29235E-05   233   0.275E-02    0.105E-03
DAV:   2    -0.129432332539E+03   -0.17259E-06   -0.16886E-06   164   0.727E-03    0.641E-04
DAV:   3    -0.129432332570E+03   -0.30565E-07   -0.15387E-07   164   0.206E-03    0.485E-04
DAV:   4    -0.129432332593E+03   -0.23199E-07   -0.41604E-09   164   0.107E-03    0.909E-05
DAV:   5    -0.129432332601E+03   -0.80036E-08    0.28003E-08   164   0.491E-04    0.799E-05
DAV:   6    -0.129432332605E+03   -0.39627E-08    0.39386E-08   164   0.265E-04
  86 F= -.12943233E+03 E0= -.12943233E+03  d E =-.210114E-05
damped:  g(F)=  0.000E+00 g(S)=  0.000E+00 dE (1.order)= 0.000E+00
 bond charge predicted
       N       E                     dE             d eps       ncg     rms          rms(c)
DAV:   1    -0.129432335182E+03   -0.25812E-05   -0.62514E-05   164   0.401E-02    0.153E-03
DAV:   2    -0.129432335526E+03   -0.34365E-06   -0.36628E-06   164   0.106E-02    0.929E-04
DAV:   3    -0.129432335571E+03   -0.45116E-07   -0.37760E-07   164   0.300E-03    0.705E-04
DAV:   4    -0.129432335586E+03   -0.14695E-07   -0.59942E-08   164   0.155E-03    0.131E-04
DAV:   5    -0.129432335590E+03   -0.47794E-08    0.78443E-09   164   0.708E-04    0.116E-04
DAV:   6    -0.129432335592E+03   -0.16880E-08    0.31812E-08   164   0.381E-04
  87 F= -.12943234E+03 E0= -.12943234E+03  d E =-.298719E-05
damped:  g(F)=  0.000E+00 g(S)=  0.000E+00 dE (1.order)= 0.000E+00
 bond charge predicted
       N       E                     dE             d eps       ncg     rms          rms(c)
DAV:   1    -0.129432339047E+03   -0.34568E-05   -0.10570E-04   196   0.514E-02    0.194E-03
DAV:   2    -0.129432339439E+03   -0.39165E-06   -0.44232E-06   164   0.116E-02    0.119E-03
DAV:   3    -0.129432339486E+03   -0.47486E-07   -0.40915E-07   164   0.343E-03    0.842E-04
DAV:   4    -0.129432339505E+03   -0.18621E-07   -0.63142E-08   164   0.175E-03    0.124E-04
DAV:   5    -0.129432339508E+03   -0.35061E-08    0.95686E-09   164   0.814E-04    0.113E-04
DAV:   6    -0.129432339510E+03   -0.18217E-08    0.33144E-08   164   0.403E-04
  88 F= -.12943234E+03 E0= -.12943234E+03  d E =-.391823E-05
damped:  g(F)=  0.000E+00 g(S)=  0.000E+00 dE (1.order)= 0.000E+00
 bond charge predicted
       N       E                     dE             d eps       ncg     rms          rms(c)
DAV:   1    -0.129432343694E+03   -0.41860E-05   -0.15131E-04   196   0.610E-02    0.228E-03
DAV:   2    -0.129432344245E+03   -0.55037E-06   -0.62475E-06   164   0.137E-02    0.140E-03
DAV:   3    -0.129432344310E+03   -0.65129E-07   -0.57879E-07   164   0.405E-03    0.994E-04
DAV:   4    -0.129432344340E+03   -0.29645E-07   -0.10249E-07   164   0.206E-03    0.149E-04
DAV:   5    -0.129432344345E+03   -0.50222E-08   -0.28938E-09   164   0.954E-04    0.131E-04
DAV:   6    -0.129432344347E+03   -0.23074E-08    0.29738E-08   164   0.474E-04
  89 F= -.12943234E+03 E0= -.12943234E+03  d E =-.483665E-05
damped:  g(F)=  0.000E+00 g(S)=  0.000E+00 dE (1.order)= 0.000E+00
 bond charge predicted
       N       E                     dE             d eps       ncg     rms          rms(c)
DAV:   1    -0.129432349471E+03   -0.51269E-05   -0.19719E-04   228   0.684E-02    0.254E-03
DAV:   2    -0.129432349943E+03   -0.47184E-06   -0.57540E-06   164   0.122E-02    0.162E-03
DAV:   3    -0.129432349999E+03   -0.55657E-07   -0.48244E-07   164   0.385E-03    0.994E-04
DAV:   4    -0.129432350039E+03   -0.39799E-07   -0.81730E-08   164   0.189E-03    0.146E-04
DAV:   5    -0.129432350044E+03   -0.49686E-08    0.26883E-09   164   0.905E-04    0.116E-04
DAV:   6    -0.129432350046E+03   -0.27176E-08    0.30797E-08   164   0.427E-04
  90 F= -.12943235E+03 E0= -.12943235E+03  d E =-.569960E-05
damped:  g(F)=  0.000E+00 g(S)=  0.000E+00 dE (1.order)= 0.000E+00
 bond charge predicted
       N       E                     dE             d eps       ncg     rms          rms(c)
DAV:   1    -0.129432356281E+03   -0.62373E-05   -0.28800E-04   228   0.817E-02    0.301E-03
DAV:   2    -0.129432356974E+03   -0.69261E-06   -0.84505E-06   164   0.146E-02    0.190E-03
DAV:   3    -0.129432357056E+03   -0.81951E-07   -0.71374E-07   164   0.457E-03    0.118E-03
DAV:   4    -0.129432357118E+03   -0.62644E-07   -0.13478E-07   164   0.222E-03    0.175E-04
DAV:   5    -0.129432357126E+03   -0.74087E-08   -0.15549E-08   164   0.106E-03    0.139E-04
DAV:   6    -0.129432357130E+03   -0.38872E-08    0.25046E-08   164   0.503E-04
  91 F= -.12943236E+03 E0= -.12943236E+03  d E =-.708311E-05
damped:  g(F)=  0.000E+00 g(S)=  0.000E+00 dE (1.order)= 0.000E+00
 bond charge predicted
       N       E                     dE             d eps       ncg     rms          rms(c)
DAV:   1    -0.129432364686E+03   -0.75604E-05   -0.41569E-04   260   0.970E-02    0.360E-03
DAV:   2    -0.129432365425E+03   -0.73904E-06   -0.96962E-06   164   0.138E-02    0.230E-03
DAV:   3    -0.129432365524E+03   -0.98719E-07   -0.83347E-07   164   0.450E-03    0.135E-03
DAV:   4    -0.129432365616E+03   -0.91947E-07   -0.17496E-07   164   0.231E-03    0.234E-04
DAV:   5    -0.129432365627E+03   -0.11113E-07   -0.31357E-08   164   0.113E-03    0.151E-04
DAV:   6    -0.129432365632E+03   -0.52451E-08    0.19113E-08   164   0.528E-04
  92 F= -.12943237E+03 E0= -.12943237E+03  d E =-.850261E-05
damped:  g(F)=  0.000E+00 g(S)=  0.000E+00 dE (1.order)= 0.000E+00
 bond charge predicted
       N       E                     dE             d eps       ncg     rms          rms(c)
DAV:   1    -0.129432374273E+03   -0.86461E-05   -0.61102E-04   260   0.117E-01    0.439E-03
DAV:   2    -0.129432375332E+03   -0.10588E-05   -0.13980E-05   164   0.166E-02    0.279E-03
DAV:   3    -0.129432375477E+03   -0.14558E-06   -0.12379E-06   164   0.543E-03    0.162E-03
DAV:   4    -0.129432375613E+03   -0.13575E-06   -0.27881E-07   164   0.279E-03    0.284E-04
DAV:   5    -0.129432375631E+03   -0.17490E-07   -0.66377E-08   164   0.136E-03    0.184E-04
DAV:   6    -0.129432375638E+03   -0.77416E-08    0.77876E-09   164   0.638E-04
  93 F= -.12943238E+03 E0= -.12943238E+03  d E =-.100062E-04
damped:  g(F)=  0.000E+00 g(S)=  0.000E+00 dE (1.order)= 0.000E+00
 bond charge predicted
       N       E                     dE             d eps       ncg     rms          rms(c)
DAV:   1    -0.129432385391E+03   -0.97605E-05   -0.93015E-04   260   0.146E-01    0.550E-03
DAV:   2    -0.129432386944E+03   -0.15525E-05   -0.20724E-05   164   0.204E-02    0.349E-03
DAV:   3    -0.129432387169E+03   -0.22537E-06   -0.19077E-06   164   0.675E-03    0.200E-03
DAV:   4    -0.129432387369E+03   -0.19960E-06   -0.45511E-07   164   0.346E-03    0.352E-04
DAV:   5    -0.129432387394E+03   -0.24870E-07   -0.12302E-07   164   0.170E-03    0.226E-04
DAV:   6    -0.129432387406E+03   -0.12104E-07   -0.10686E-08   164   0.793E-04
  94 F= -.12943239E+03 E0= -.12943239E+03  d E =-.117672E-04
damped:  g(F)=  0.000E+00 g(S)=  0.000E+00 dE (1.order)= 0.000E+00
 bond charge predicted
       N       E                     dE             d eps       ncg     rms          rms(c)
DAV:   1    -0.129432398891E+03   -0.11498E-04   -0.14572E-03   292   0.183E-01    0.695E-03
DAV:   2    -0.129432400924E+03   -0.20322E-05   -0.28129E-05   165   0.225E-02    0.450E-03
DAV:   3    -0.129432401188E+03   -0.26472E-06   -0.24557E-06   164   0.715E-03    0.251E-03
DAV:   4    -0.129432401480E+03   -0.29222E-06   -0.64102E-07   164   0.383E-03    0.433E-04
DAV:   5    -0.129432401517E+03   -0.36590E-07   -0.19027E-07   164   0.183E-03    0.282E-04
DAV:   6    -0.129432401535E+03   -0.18228E-07   -0.34733E-08   164   0.858E-04
  95 F= -.12943240E+03 E0= -.12943240E+03  d E =-.141296E-04
damped:  g(F)=  0.000E+00 g(S)=  0.000E+00 dE (1.order)= 0.000E+00
 bond charge predicted
       N       E                     dE             d eps       ncg     rms          rms(c)
DAV:   1    -0.129432414754E+03   -0.13237E-04   -0.22988E-03   324   0.230E-01    0.882E-03
DAV:   2    -0.129432418028E+03   -0.32731E-05   -0.44880E-05   232   0.282E-02    0.575E-03
DAV:   3    -0.129432418294E+03   -0.26689E-06   -0.27437E-06   164   0.716E-03    0.328E-03
DAV:   4    -0.129432418751E+03   -0.45619E-06   -0.10623E-06   190   0.478E-03    0.549E-04
DAV:   5    -0.129432418802E+03   -0.51698E-07   -0.32511E-07   164   0.226E-03    0.378E-04
DAV:   6    -0.129432418828E+03   -0.25850E-07   -0.76020E-08   164   0.991E-04
  96 F= -.12943242E+03 E0= -.12943242E+03  d E =-.172929E-04
damped:  g(F)=  0.000E+00 g(S)=  0.000E+00 dE (1.order)= 0.000E+00
 bond charge predicted
       N       E                     dE             d eps       ncg     rms          rms(c)
DAV:   1    -0.129432434270E+03   -0.15468E-04   -0.36268E-03   324   0.289E-01    0.111E-02
DAV:   2    -0.129432439415E+03   -0.51446E-05   -0.70355E-05   232   0.354E-02    0.725E-03
DAV:   3    -0.129432439821E+03   -0.40659E-06   -0.43394E-06   164   0.901E-03    0.412E-03
DAV:   4    -0.129432440492E+03   -0.67071E-06   -0.16997E-06   217   0.602E-03    0.691E-04
DAV:   5    -0.129432440574E+03   -0.81748E-07   -0.53326E-07   164   0.284E-03    0.471E-04
DAV:   6    -0.129432440613E+03   -0.39331E-07   -0.14360E-07   164   0.124E-03
  97 F= -.12943244E+03 E0= -.12943244E+03  d E =-.217850E-04
damped:  g(F)=  0.000E+00 g(S)=  0.000E+00 dE (1.order)= 0.000E+00
 bond charge predicted
       N       E                     dE             d eps       ncg     rms          rms(c)
DAV:   1    -0.129432457567E+03   -0.16993E-04   -0.56460E-03   324   0.361E-01    0.139E-02
DAV:   2    -0.129432465606E+03   -0.80396E-05   -0.10915E-04   232   0.441E-02    0.907E-03
DAV:   3    -0.129432466191E+03   -0.58440E-06   -0.67904E-06   173   0.113E-02    0.514E-03
DAV:   4    -0.129432467188E+03   -0.99733E-06   -0.26702E-06   237   0.751E-03    0.865E-04
DAV:   5    -0.129432467317E+03   -0.12926E-06   -0.85194E-07   164   0.355E-03    0.585E-04
DAV:   6    -0.129432467379E+03   -0.61497E-07   -0.24833E-07   164   0.155E-03
  98 F= -.12943247E+03 E0= -.12943247E+03  d E =-.267655E-04
damped:  g(F)=  0.000E+00 g(S)=  0.000E+00 dE (1.order)= 0.000E+00
 bond charge predicted
       N       E                     dE             d eps       ncg     rms          rms(c)
DAV:   1    -0.129432485511E+03   -0.18194E-04   -0.85668E-03   324   0.443E-01    0.170E-02
DAV:   2    -0.129432498836E+03   -0.13325E-04   -0.17645E-04   290   0.545E-02    0.112E-02
DAV:   3    -0.129432499192E+03   -0.35611E-06   -0.66053E-06   200   0.122E-02    0.651E-03
DAV:   4    -0.129432500617E+03   -0.14245E-05   -0.32062E-06   245   0.935E-03    0.108E-03
DAV:   5    -0.129432500758E+03   -0.14159E-06   -0.91990E-07   164   0.413E-03    0.829E-04
DAV:   6    -0.129432500849E+03   -0.90463E-07   -0.18753E-07   164   0.170E-03
  99 F= -.12943250E+03 E0= -.12943250E+03  d E =-.334702E-04
damped:  g(F)=  0.000E+00 g(S)=  0.000E+00 dE (1.order)= 0.000E+00
 bond charge predicted
       N       E                     dE             d eps       ncg     rms          rms(c)
DAV:   1    -0.129432519014E+03   -0.18256E-04   -0.12608E-02   326   0.534E-01    0.202E-02
DAV:   2    -0.129432539900E+03   -0.20886E-04   -0.26977E-04   274   0.666E-02    0.134E-02
DAV:   3    -0.129432540194E+03   -0.29385E-06   -0.92987E-06   200   0.145E-02    0.793E-03
DAV:   4    -0.129432542317E+03   -0.21231E-05   -0.46591E-06   236   0.114E-02    0.129E-03
DAV:   5    -0.129432542538E+03   -0.22091E-06   -0.14029E-06   165   0.500E-03    0.102E-03
DAV:   6    -0.129432542679E+03   -0.14112E-06   -0.30154E-07   172   0.205E-03
 100 F= -.12943254E+03 E0= -.12943254E+03  d E =-.418305E-04
damped:  g(F)=  0.000E+00 g(S)=  0.000E+00 dE (1.order)= 0.000E+00
 bond charge predicted
       N       E                     dE             d eps       ncg     rms          rms(c)
DAV:   1    -0.129432558698E+03   -0.16160E-04   -0.18103E-02   328   0.636E-01    0.237E-02
DAV:   2    -0.129432591011E+03   -0.32312E-04   -0.40791E-04   339   0.804E-02    0.160E-02
DAV:   3    -0.129432590647E+03    0.36367E-06   -0.87597E-06   200   0.141E-02    0.951E-03
DAV:   4    -0.129432593640E+03   -0.29929E-05   -0.61851E-06   236   0.131E-02    0.160E-03
DAV:   5    -0.129432594003E+03   -0.36271E-06   -0.16682E-06   200   0.572E-03    0.918E-04
DAV:   6    -0.129432594145E+03   -0.14209E-06   -0.24604E-07   164   0.199E-03
 101 F= -.12943259E+03 E0= -.12943259E+03  d E =-.514655E-04
damped:  g(F)=  0.000E+00 g(S)=  0.000E+00 dE (1.order)= 0.000E+00
 bond charge predicted
       N       E                     dE             d eps       ncg     rms          rms(c)
DAV:   1    -0.129432603962E+03   -0.99592E-05   -0.26371E-02   329   0.768E-01    0.285E-02
DAV:   2    -0.129432653218E+03   -0.49256E-04   -0.61477E-04   371   0.979E-02    0.196E-02
DAV:   3    -0.129432651617E+03    0.16006E-05   -0.60192E-06   200   0.139E-02    0.119E-02
DAV:   4    -0.129432656071E+03   -0.44537E-05   -0.85140E-06   236   0.158E-02    0.196E-03
DAV:   5    -0.129432656532E+03   -0.46096E-06   -0.23382E-06   200   0.684E-03    0.126E-03
DAV:   6    -0.129432656762E+03   -0.22953E-06   -0.26039E-07   164   0.209E-03
 102 F= -.12943266E+03 E0= -.12943266E+03  d E =-.626167E-04
damped:  g(F)=  0.000E+00 g(S)=  0.000E+00 dE (1.order)= 0.000E+00
 bond charge predicted
       N       E                     dE             d eps       ncg     rms          rms(c)
DAV:   1    -0.129432653598E+03    0.29337E-05   -0.39012E-02   329   0.936E-01    0.347E-02
DAV:   2    -0.129432727509E+03   -0.73911E-04   -0.91662E-04   388   0.120E-01    0.239E-02
DAV:   3    -0.129432724727E+03    0.27817E-05   -0.87812E-06   220   0.168E-02    0.145E-02
DAV:   4    -0.129432731251E+03   -0.65238E-05   -0.12687E-05   235   0.194E-02    0.236E-03
DAV:   5    -0.129432731929E+03   -0.67787E-06   -0.34761E-06   216   0.834E-03    0.148E-03
DAV:   6    -0.129432732258E+03   -0.32925E-06   -0.40539E-07   172   0.255E-03
 103 F= -.12943273E+03 E0= -.12943273E+03  d E =-.754969E-04
damped:  g(F)=  0.000E+00 g(S)=  0.000E+00 dE (1.order)= 0.000E+00
 bond charge predicted
       N       E                     dE             d eps       ncg     rms          rms(c)
DAV:   1    -0.129432701199E+03    0.30730E-04   -0.57041E-02   331   0.113E+00    0.425E-02
DAV:   2    -0.129432810791E+03   -0.10959E-03   -0.13604E-03   371   0.146E-01    0.297E-02
DAV:   3    -0.129432807003E+03    0.37873E-05   -0.13985E-05   272   0.212E-02    0.183E-02
DAV:   4    -0.129432816247E+03   -0.92435E-05   -0.22320E-05   272   0.241E-02    0.350E-03
DAV:   5    -0.129432816927E+03   -0.68027E-06   -0.46338E-06   272   0.104E-02    0.211E-03
DAV:   6    -0.129432817258E+03   -0.33069E-06   -0.42431E-07   191   0.314E-03
 104 F= -.12943282E+03 E0= -.12943282E+03  d E =-.849994E-04
damped:  g(F)=  0.000E+00 g(S)=  0.000E+00 dE (1.order)= 0.000E+00
 bond charge predicted
       N       E                     dE             d eps       ncg     rms          rms(c)
DAV:   1    -0.129432619830E+03    0.19710E-03   -0.87856E-02   333   0.142E+00    0.576E-02
DAV:   2    -0.129432806877E+03   -0.18705E-03   -0.23639E-03   328   0.197E-01    0.398E-02
DAV:   3    -0.129432795856E+03    0.11021E-04   -0.45197E-05   359   0.321E-02    0.243E-02
DAV:   4    -0.129432799457E+03   -0.36008E-05   -0.39451E-05   264   0.333E-02    0.414E-03
DAV:   5    -0.129432800616E+03   -0.11593E-05   -0.83965E-06   272   0.137E-02    0.314E-03
DAV:   6    -0.129432801432E+03   -0.81589E-06   -0.92818E-07   224   0.473E-03
 105 F= -.12943280E+03 E0= -.12943280E+03  d E =0.158255E-04
damped:  g(F)=  0.000E+00 g(S)=  0.000E+00 dE (1.order)= 0.000E+00
 bond charge predicted
       N       E                     dE             d eps       ncg     rms          rms(c)
DAV:   1    -0.129432889568E+03   -0.88951E-04   -0.12309E-02   355   0.551E-01    0.384E-02
DAV:   2    -0.129432927247E+03   -0.37679E-04   -0.53340E-04   368   0.997E-02    0.212E-02
DAV:   3    -0.129432922546E+03    0.47008E-05   -0.13874E-05   268   0.203E-02    0.118E-02
DAV:   4    -0.129432920251E+03    0.22953E-05   -0.11427E-05   267   0.166E-02    0.244E-03
DAV:   5    -0.129432920276E+03   -0.25545E-07   -0.23745E-06   272   0.765E-03    0.146E-03
DAV:   6    -0.129432920471E+03   -0.19442E-06   -0.36013E-07   224   0.317E-03
 106 F= -.12943292E+03 E0= -.12943292E+03  d E =-.119039E-03
damped:  g(F)=  0.000E+00 g(S)=  0.000E+00 dE (1.order)= 0.000E+00
 reached required accuracy - stopping structural energy minimisation
