unknown system                          
           1
    30.000000    0.000000    0.000000
     0.000000   30.000000    0.000000
     0.000000    0.000000   30.000000
   H    C    N    O 
  12   6   2   2
Direct configuration=     1
   0.37831765  0.53273350  0.49315083
   0.38002675  0.48056482  0.46454145
   0.38566744  0.48193831  0.52353921
   0.45122680  0.43953043  0.50087990
   0.52300616  0.42642261  0.49176405
   0.56827054  0.46737298  0.43610822
   0.52627031  0.50919655  0.43120418
   0.51485386  0.45336439  0.41416922
   0.51536541  0.54427485  0.50904042
   0.55526423  0.54626909  0.59433912
   0.60127072  0.54647702  0.55709222
   0.56050779  0.59004278  0.55413240
   0.39393339  0.49974839  0.49254948
   0.44389698  0.50546820  0.48714826
   0.51670444  0.46204731  0.48615418
   0.53233051  0.47398193  0.43896004
   0.54553128  0.48475506  0.52259534
   0.56558985  0.55431170  0.56000964
   0.46825413  0.46750401  0.49227287
   0.54018267  0.52927693  0.52734260
   0.46092417  0.54232460  0.47864445
   0.57260679  0.46239662  0.54436420
Direct configuration=     2
   0.37831928  0.53273621  0.49315068
   0.38002620  0.48056910  0.46453578
   0.38566903  0.48193873  0.52353396
   0.45122739  0.43953837  0.50088829
   0.52300311  0.42641985  0.49176977
   0.56826354  0.46737209  0.43611044
   0.52626230  0.50919971  0.43121203
   0.51485248  0.45336640  0.41417737
   0.51535968  0.54426975  0.50903942
   0.55526558  0.54627141  0.59433848
   0.60126863  0.54647688  0.55708919
   0.56050537  0.59004379  0.55412601
   0.39393734  0.49974758  0.49254999
   0.44390219  0.50546993  0.48715025
   0.51670801  0.46203484  0.48615716
   0.53232849  0.47398726  0.43896458
   0.54553576  0.48475234  0.52259429
   0.56558845  0.55430916  0.56000687
   0.46825831  0.46750290  0.49227957
   0.54017879  0.52927604  0.52733862
   0.46092814  0.54231810  0.47863744
   0.57261382  0.46240164  0.54435207
Direct configuration=     3
   0.37832258  0.53273800  0.49315018
   0.38002683  0.48057599  0.46452758
   0.38567092  0.48193729  0.52352713
   0.45122675  0.43954647  0.50090018
   0.52300024  0.42641106  0.49177653
   0.56825578  0.46737312  0.43611286
   0.52625108  0.50920695  0.43122425
   0.51485108  0.45337164  0.41418737
   0.51535040  0.54426272  0.50903831
   0.55526580  0.54627303  0.59433903
   0.60126541  0.54647534  0.55708690
   0.56050171  0.59004241  0.55411952
   0.39394221  0.49974889  0.49254682
   0.44390737  0.50546384  0.48715353
   0.51671134  0.46202575  0.48616044
   0.53232481  0.47399376  0.43897190
   0.54553424  0.48475391  0.52258592
   0.56558400  0.55430725  0.56000365
   0.46826584  0.46750460  0.49228752
   0.54017519  0.52927173  0.52733568
   0.46093680  0.54231586  0.47862608
   0.57263149  0.46240246  0.54434089
Direct configuration=     4
   0.37832812  0.53273822  0.49314882
   0.38002969  0.48058571  0.46451612
   0.38567280  0.48193275  0.52351772
   0.45122571  0.43955379  0.50091385
   0.52299854  0.42639647  0.49178195
   0.56824922  0.46737888  0.43611490
   0.52623759  0.50921995  0.43124162
   0.51485014  0.45338249  0.41419681
   0.51533786  0.54425360  0.50903855
   0.55526288  0.54627199  0.59434200
   0.60125973  0.54647115  0.55708814
   0.56049605  0.59003725  0.55411584
   0.39394749  0.49975151  0.49253853
   0.44391507  0.50545745  0.48715462
   0.51671411  0.46202290  0.48616322
   0.53231995  0.47400234  0.43898082
   0.54553460  0.48475221  0.52257655
   0.56557628  0.55430485  0.56000248
   0.46827481  0.46750679  0.49229627
   0.54017028  0.52926538  0.52733488
   0.46094761  0.54231344  0.47861239
   0.57265334  0.46240295  0.54432622
Direct configuration=     5
   0.37833569  0.53273744  0.49314606
   0.38003521  0.48059767  0.46449998
   0.38567469  0.48192491  0.52350353
   0.45122591  0.43956033  0.50092680
   0.52299823  0.42638124  0.49178284
   0.56824503  0.46739208  0.43611610
   0.52622343  0.50923902  0.43126434
   0.51484996  0.45340077  0.41420296
   0.51532332  0.54424214  0.50904204
   0.55525491  0.54626655  0.59434843
   0.60125008  0.54646338  0.55709575
   0.56048756  0.59002845  0.55411774
   0.39395370  0.49975292  0.49252646
   0.44392629  0.50545833  0.48715037
   0.51671748  0.46202138  0.48616540
   0.53231564  0.47401608  0.43898951
   0.54554359  0.48474269  0.52257230
   0.56556598  0.55429901  0.56000642
   0.46828224  0.46750671  0.49230525
   0.54016213  0.52925836  0.52733666
   0.46095789  0.54230678  0.47859878
   0.57267291  0.46240582  0.54430453
Direct configuration=     6
   0.37834482  0.53273619  0.49314141
   0.38004372  0.48061118  0.46447724
   0.38567693  0.48191358  0.52348225
   0.45122793  0.43956524  0.50093711
   0.52299943  0.42637026  0.49177601
   0.56824383  0.46741549  0.43611607
   0.52621007  0.50926473  0.43129263
   0.51485105  0.45342856  0.41420355
   0.51530761  0.54422808  0.50905037
   0.55524007  0.54625506  0.59435978
   0.60123560  0.54645105  0.55711249
   0.56047559  0.59001624  0.55412808
   0.39396184  0.49975190  0.49251149
   0.44393757  0.50546196  0.48714106
   0.51672219  0.46201557  0.48616710
   0.53231370  0.47403775  0.43899634
   0.54555562  0.48473150  0.52257019
   0.56555212  0.55428724  0.56001799
   0.46828757  0.46750551  0.49231313
   0.54015101  0.52924875  0.52734264
   0.46096929  0.54230036  0.47858511
   0.57269431  0.46240587  0.54428025
Direct configuration=     7
   0.37835634  0.53273397  0.49313358
   0.38005690  0.48062720  0.46444240
   0.38568010  0.48189616  0.52344880
   0.45123179  0.43956715  0.50094364
   0.52300311  0.42636421  0.49175667
   0.56824650  0.46745627  0.43611408
   0.52619751  0.50930259  0.43133058
   0.51485486  0.45347327  0.41419580
   0.51528909  0.54420939  0.50906661
   0.55521338  0.54623327  0.59438031
   0.60121353  0.54643072  0.55714453
   0.56045771  0.58999794  0.55415271
   0.39397323  0.49974857  0.49249120
   0.44394630  0.50546043  0.48712688
   0.51672913  0.46200432  0.48616688
   0.53231548  0.47407159  0.43900097
   0.54556396  0.48472404  0.52256473
   0.56553097  0.55426661  0.56004126
   0.46829304  0.46750551  0.49231815
   0.54013681  0.52923244  0.52735687
   0.46098567  0.54230022  0.47856892
   0.57272644  0.46239620  0.54425673
Direct configuration=     8
   0.37837096  0.53272940  0.49312116
   0.38007662  0.48064612  0.46439064
   0.38568441  0.48186914  0.52339933
   0.45123804  0.43956473  0.50094263
   0.52301171  0.42636025  0.49171943
   0.56825518  0.46752246  0.43610893
   0.52618724  0.50935883  0.43138092
   0.51486422  0.45354358  0.41417566
   0.51526713  0.54418487  0.50909457
   0.55516893  0.54619575  0.59441552
   0.60118152  0.54639831  0.55719954
   0.56043156  0.58996969  0.55419954
   0.39398691  0.49974412  0.49246091
   0.44395590  0.50545583  0.48710652
   0.51673800  0.46199687  0.48616067
   0.53232206  0.47411930  0.43900279
   0.54557255  0.48471165  0.52255973
   0.56549805  0.55423475  0.56008171
   0.46830143  0.46750584  0.49231693
   0.54011882  0.52920850  0.52738397
   0.46100507  0.54230356  0.47855114
   0.57276554  0.46237851  0.54423008
Direct configuration=     9
   0.37838916  0.53272120  0.49310248
   0.38010521  0.48066891  0.46431690
   0.38568982  0.48182776  0.52332982
   0.45124908  0.43955902  0.50092842
   0.52302804  0.42635413  0.49165826
   0.56827283  0.46762287  0.43609920
   0.52618121  0.50944000  0.43144665
   0.51488293  0.45364959  0.41413834
   0.51524144  0.54415260  0.50913941
   0.55509940  0.54613578  0.59447219
   0.60113596  0.54634886  0.55728711
   0.56039403  0.58992640  0.55427816
   0.39400149  0.49973869  0.49241353
   0.44397427  0.50545961  0.48707776
   0.51674935  0.46200467  0.48614195
   0.53233345  0.47418740  0.43900149
   0.54559174  0.48467908  0.52256404
   0.56545165  0.55419012  0.56014696
   0.46831436  0.46750155  0.49230598
   0.54009395  0.52917613  0.52742763
   0.46102141  0.54229898  0.47853467
   0.57280106  0.46235874  0.54419141
Direct configuration=    10
   0.37840943  0.53271037  0.49307553
   0.38014495  0.48069696  0.46421413
   0.38569672  0.48176808  0.52323291
   0.45126746  0.43955063  0.50089461
   0.52305339  0.42635158  0.49156373
   0.56830140  0.46776731  0.43608365
   0.52618196  0.50955331  0.43153009
   0.51491517  0.45380254  0.41407859
   0.51521173  0.54410978  0.50920757
   0.55499695  0.54604669  0.59455760
   0.60107248  0.54627718  0.55741856
   0.56034116  0.58986489  0.55439953
   0.39401998  0.49973010  0.49234301
   0.44399351  0.50545202  0.48704538
   0.51676777  0.46201743  0.48610909
   0.53235181  0.47428726  0.43899570
   0.54559947  0.48464901  0.52256149
   0.56538869  0.55412673  0.56024835
   0.46833346  0.46749739  0.49227953
   0.54006194  0.52912538  0.52749333
   0.46104128  0.54230011  0.47851648
   0.57285113  0.46231735  0.54415353
Direct configuration=    11
   0.37843097  0.53269774  0.49303752
   0.38019669  0.48073129  0.46407271
   0.38570499  0.48168849  0.52309678
   0.45129725  0.43954088  0.50083495
   0.52308936  0.42636107  0.49142746
   0.56833975  0.46796378  0.43606180
   0.52619016  0.50970854  0.43163183
   0.51496503  0.45401298  0.41399280
   0.51517665  0.54405418  0.50930473
   0.55485481  0.54592292  0.59467757
   0.60098717  0.54617819  0.55760450
   0.56026798  0.58978276  0.55457255
   0.39404303  0.49971284  0.49225301
   0.44401481  0.50544310  0.48700446
   0.51679905  0.46202189  0.48606169
   0.53238583  0.47443067  0.43898411
   0.54561898  0.48459805  0.52256788
   0.56530600  0.55403148  0.56039830
   0.46835896  0.46749242  0.49223342
   0.54001863  0.52906375  0.52758790
   0.46106255  0.54229912  0.47849958
   0.57289314  0.46226600  0.54409689
Direct configuration=    12
   0.37845708  0.53267577  0.49298679
   0.38026201  0.48077656  0.46388812
   0.38571072  0.48158356  0.52291998
   0.45133914  0.43952760  0.50074806
   0.52314081  0.42636249  0.49124787
   0.56839325  0.46821428  0.43603280
   0.52620347  0.50991913  0.43175158
   0.51503905  0.45429106  0.41388505
   0.51512963  0.54398758  0.50943227
   0.55466877  0.54576107  0.59484311
   0.60088230  0.54604771  0.55785165
   0.56017347  0.58966744  0.55480448
   0.39406491  0.49969278  0.49213843
   0.44404531  0.50544014  0.48694834
   0.51683848  0.46204564  0.48599642
   0.53243174  0.47461590  0.43896752
   0.54561931  0.48455341  0.52255549
   0.56519292  0.55391223  0.56059108
   0.46839950  0.46748344  0.49216601
   0.53996865  0.52897702  0.52771905
   0.46108320  0.54229135  0.47848685
   0.57295803  0.46217596  0.54404160
Direct configuration=    13
   0.37848521  0.53264911  0.49292742
   0.38033908  0.48084127  0.46367113
   0.38570691  0.48145367  0.52271653
   0.45139249  0.43950918  0.50064730
   0.52320797  0.42636783  0.49103897
   0.56846089  0.46850193  0.43600099
   0.52621804  0.51016953  0.43188628
   0.51512954  0.45461966  0.41376655
   0.51508283  0.54390702  0.50959603
   0.55445334  0.54557527  0.59503883
   0.60075173  0.54589477  0.55814733
   0.56005730  0.58953001  0.55507565
   0.39409839  0.49966627  0.49199345
   0.44406277  0.50538128  0.48688732
   0.51688711  0.46207138  0.48591392
   0.53248281  0.47485035  0.43894177
   0.54572226  0.48440567  0.52261419
   0.56507221  0.55375532  0.56083084
   0.46843791  0.46748886  0.49208307
   0.53987538  0.52890429  0.52785577
   0.46112972  0.54232832  0.47846718
   0.57294782  0.46213114  0.54390216
Direct configuration=    14
   0.37848743  0.53264830  0.49292743
   0.38033801  0.48084327  0.46366809
   0.38570490  0.48145331  0.52271312
   0.45139511  0.43951085  0.50064955
   0.52320639  0.42636777  0.49103720
   0.56845870  0.46850195  0.43600157
   0.52621614  0.51017249  0.43188697
   0.51512817  0.45461965  0.41376728
   0.51506983  0.54391075  0.50958924
   0.55445364  0.54557613  0.59504153
   0.60075385  0.54589363  0.55814701
   0.56005804  0.58952639  0.55507659
   0.39409634  0.49966421  0.49199683
   0.44408090  0.50543166  0.48687614
   0.51688943  0.46206774  0.48591541
   0.53248545  0.47485158  0.43894513
   0.54563232  0.48449578  0.52254662
   0.56506375  0.55376032  0.56082573
   0.46844257  0.46747703  0.49208726
   0.53989938  0.52887170  0.52786979
   0.46111228  0.54229035  0.47847416
   0.57302908  0.46206726  0.54396000
Direct configuration=    15
   0.37848762  0.53264826  0.49292759
   0.38033790  0.48084392  0.46366770
   0.38570454  0.48145321  0.52271284
   0.45139507  0.43951072  0.50065063
   0.52320667  0.42636789  0.49103766
   0.56845831  0.46850162  0.43600176
   0.52621567  0.51017266  0.43188705
   0.51512776  0.45461944  0.41376786
   0.51507009  0.54391025  0.50958988
   0.55445403  0.54557659  0.59504129
   0.60075369  0.54589362  0.55814667
   0.56005781  0.58952617  0.55507586
   0.39409653  0.49966454  0.49199688
   0.44407963  0.50542825  0.48687681
   0.51688911  0.46206812  0.48591556
   0.53248553  0.47485156  0.43894526
   0.54563964  0.48448790  0.52255146
   0.56506417  0.55376002  0.56082577
   0.46844267  0.46747776  0.49208745
   0.53989775  0.52887420  0.52786907
   0.46111389  0.54229316  0.47847322
   0.57302362  0.46207229  0.54395436
Direct configuration=    16
   0.37848802  0.53264820  0.49292792
   0.38033768  0.48084524  0.46366696
   0.38570379  0.48145301  0.52271229
   0.45139506  0.43951053  0.50065286
   0.52320716  0.42636812  0.49103857
   0.56845751  0.46850089  0.43600215
   0.52621469  0.51017293  0.43188721
   0.51512692  0.45461896  0.41376907
   0.51507038  0.54390933  0.50959098
   0.55445485  0.54557756  0.59504084
   0.60075342  0.54589363  0.55814593
   0.56005741  0.58952577  0.55507436
   0.39409687  0.49966515  0.49199699
   0.44407759  0.50542249  0.48687793
   0.51688857  0.46206873  0.48591589
   0.53248559  0.47485153  0.43894555
   0.54565209  0.48447450  0.52255953
   0.56506487  0.55375956  0.56082572
   0.46844284  0.46747903  0.49208794
   0.53989496  0.52887840  0.52786785
   0.46111667  0.54229787  0.47847149
   0.57301475  0.46208072  0.54394462
Direct configuration=    17
   0.37848879  0.53264824  0.49292855
   0.38033724  0.48084760  0.46366583
   0.38570243  0.48145270  0.52271142
   0.45139524  0.43951045  0.50065686
   0.52320773  0.42636842  0.49104011
   0.56845614  0.46849942  0.43600281
   0.52621297  0.51017319  0.43188748
   0.51512537  0.45461792  0.41377125
   0.51507011  0.54390803  0.50959231
   0.55445641  0.54557944  0.59504013
   0.60075321  0.54589375  0.55814442
   0.56005692  0.58952516  0.55507166
   0.39409732  0.49966596  0.49199724
   0.44407570  0.50541655  0.48687910
   0.51688793  0.46206927  0.48591661
   0.53248541  0.47485145  0.43894621
   0.54566550  0.48446011  0.52256754
   0.56506570  0.55375922  0.56082515
   0.46844310  0.46748044  0.49208918
   0.53989195  0.52888256  0.52786647
   0.46111990  0.54230275  0.47846910
   0.57300666  0.46208952  0.54393324
Direct configuration=    18
   0.37848885  0.53264827  0.49292861
   0.38033720  0.48084776  0.46366579
   0.38570232  0.48145270  0.52271139
   0.45139528  0.43951050  0.50065715
   0.52320771  0.42636841  0.49104020
   0.56845605  0.46849927  0.43600285
   0.52621285  0.51017316  0.43188750
   0.51512524  0.45461781  0.41377141
   0.51506995  0.54390800  0.50959228
   0.55445654  0.54557960  0.59504009
   0.60075325  0.54589378  0.55814427
   0.56005693  0.58952514  0.55507146
   0.39409732  0.49966596  0.49199727
   0.44407588  0.50541695  0.48687902
   0.51688795  0.46206920  0.48591668
   0.53248534  0.47485143  0.43894628
   0.54566478  0.48446092  0.52256691
   0.56506568  0.55375928  0.56082501
   0.46844312  0.46748037  0.49208934
   0.53989210  0.52888222  0.52786652
   0.46111981  0.54230244  0.47846906
   0.57300754  0.46208898  0.54393357
Direct configuration=    19
   0.37848897  0.53264836  0.49292874
   0.38033711  0.48084810  0.46366573
   0.38570212  0.48145270  0.52271135
   0.45139537  0.43951059  0.50065777
   0.52320767  0.42636839  0.49104043
   0.56845586  0.46849894  0.43600293
   0.52621260  0.51017304  0.43188751
   0.51512497  0.45461752  0.41377175
   0.51506963  0.54390794  0.50959220
   0.55445684  0.54557997  0.59503998
   0.60075335  0.54589387  0.55814391
   0.56005697  0.58952513  0.55507101
   0.39409732  0.49966598  0.49199735
   0.44407624  0.50541771  0.48687889
   0.51688796  0.46206906  0.48591685
   0.53248518  0.47485135  0.43894642
   0.54566342  0.48446249  0.52256571
   0.56506567  0.55375943  0.56082470
   0.46844315  0.46748023  0.49208968
   0.53989242  0.52888156  0.52786660
   0.46111963  0.54230183  0.47846897
   0.57300927  0.46208795  0.54393418
Direct configuration=    20
   0.37848917  0.53264850  0.49292895
   0.38033696  0.48084861  0.46366570
   0.38570180  0.48145275  0.52271134
   0.45139546  0.43951075  0.50065878
   0.52320758  0.42636834  0.49104085
   0.56845554  0.46849836  0.43600304
   0.52621221  0.51017280  0.43188749
   0.51512451  0.45461701  0.41377230
   0.51506918  0.54390785  0.50959206
   0.55445735  0.54558060  0.59503977
   0.60075354  0.54589405  0.55814329
   0.56005706  0.58952516  0.55507022
   0.39409731  0.49966604  0.49199749
   0.44407674  0.50541877  0.48687873
   0.51688796  0.46206883  0.48591714
   0.53248491  0.47485116  0.43894665
   0.54566156  0.48446467  0.52256402
   0.56506570  0.55375969  0.56082416
   0.46844317  0.46748003  0.49209024
   0.53989286  0.52888066  0.52786667
   0.46111940  0.54230097  0.47846880
   0.57301175  0.46208655  0.54393497
Direct configuration=    21
   0.37848942  0.53264874  0.49292927
   0.38033674  0.48084930  0.46366573
   0.38570138  0.48145286  0.52271141
   0.45139556  0.43951097  0.50066024
   0.52320742  0.42636824  0.49104151
   0.56845507  0.46849746  0.43600319
   0.52621165  0.51017235  0.43188744
   0.51512382  0.45461617  0.41377309
   0.51506861  0.54390773  0.50959185
   0.55445814  0.54558154  0.59503939
   0.60075385  0.54589437  0.55814232
   0.56005722  0.58952528  0.55506902
   0.39409729  0.49966615  0.49199774
   0.44407733  0.50542004  0.48687858
   0.51688793  0.46206853  0.48591756
   0.53248450  0.47485078  0.43894695
   0.54565940  0.48446724  0.52256199
   0.56506583  0.55376009  0.56082334
   0.46844318  0.46747980  0.49209105
   0.53989340  0.52887960  0.52786668
   0.46111915  0.54229994  0.47846852
   0.57301481  0.46208496  0.54393580
Direct configuration=    22
   0.37848975  0.53264908  0.49292972
   0.38033642  0.48085018  0.46366588
   0.38570085  0.48145309  0.52271160
   0.45139563  0.43951126  0.50066223
   0.52320719  0.42636808  0.49104248
   0.56845440  0.46849614  0.43600338
   0.52621090  0.51017164  0.43188731
   0.51512286  0.45461493  0.41377414
   0.51506798  0.54390756  0.50959154
   0.55445926  0.54558289  0.59503879
   0.60075430  0.54589487  0.55814091
   0.56005750  0.58952552  0.55506730
   0.39409728  0.49966634  0.49199813
   0.44407795  0.50542137  0.48687849
   0.51688784  0.46206814  0.48591815
   0.53248392  0.47485015  0.43894733
   0.54565724  0.48446991  0.52255983
   0.56506611  0.55376067  0.56082219
   0.46844316  0.46747957  0.49209214
   0.53989398  0.52887853  0.52786657
   0.46111894  0.54229883  0.47846808
   0.57301823  0.46208340  0.54393647
Direct configuration=    23
   0.37849014  0.53264955  0.49293031
   0.38033600  0.48085123  0.46366618
   0.38570022  0.48145345  0.52271196
   0.45139565  0.43951161  0.50066479
   0.52320687  0.42636785  0.49104383
   0.56845352  0.46849437  0.43600360
   0.52620997  0.51017060  0.43188709
   0.51512160  0.45461321  0.41377549
   0.51506731  0.54390734  0.50959113
   0.55446076  0.54558467  0.59503792
   0.60075493  0.54589559  0.55813899
   0.56005790  0.58952593  0.55506500
   0.39409726  0.49966665  0.49199867
   0.44407853  0.50542260  0.48687851
   0.51688766  0.46206766  0.48591892
   0.53248316  0.47484919  0.43894778
   0.54565542  0.48447236  0.52255777
   0.56506659  0.55376145  0.56082065
   0.46844309  0.46747937  0.49209354
   0.53989456  0.52887758  0.52786627
   0.46111883  0.54229776  0.47846747
   0.57302176  0.46208212  0.54393678
Direct configuration=    24
   0.37849063  0.53265020  0.49293113
   0.38033542  0.48085259  0.46366668
   0.38569941  0.48145399  0.52271253
   0.45139561  0.43951208  0.50066825
   0.52320642  0.42636751  0.49104572
   0.56845231  0.46849190  0.43600388
   0.52620872  0.51016908  0.43188674
   0.51511988  0.45461080  0.41377729
   0.51506658  0.54390703  0.50959060
   0.55446283  0.54558711  0.59503666
   0.60075580  0.54589663  0.55813633
   0.56005848  0.58952658  0.55506180
   0.39409724  0.49966711  0.49199945
   0.44407907  0.50542369  0.48687869
   0.51688735  0.46206707  0.48591997
   0.53248211  0.47484779  0.43894836
   0.54565410  0.48447447  0.52255583
   0.56506736  0.55376250  0.56081855
   0.46844295  0.46747922  0.49209541
   0.53989509  0.52887679  0.52786572
   0.46111886  0.54229674  0.47846655
   0.57302548  0.46208125  0.54393649
Direct configuration=    25
   0.37849124  0.53265108  0.49293222
   0.38033467  0.48085431  0.46366739
   0.38569840  0.48145474  0.52271335
   0.45139550  0.43951268  0.50067275
   0.52320584  0.42636706  0.49104825
   0.56845072  0.46848864  0.43600422
   0.52620711  0.51016703  0.43188625
   0.51511762  0.45460759  0.41377962
   0.51506580  0.54390660  0.50958997
   0.55446556  0.54559032  0.59503496
   0.60075694  0.54589802  0.55813281
   0.56005925  0.58952748  0.55505757
   0.39409724  0.49966777  0.49200047
   0.44407950  0.50542445  0.48687909
   0.51688690  0.46206636  0.48592133
   0.53248074  0.47484586  0.43894908
   0.54565371  0.48447580  0.52255430
   0.56506848  0.55376385  0.56081583
   0.46844272  0.46747916  0.49209781
   0.53989550  0.52887633  0.52786485
   0.46111914  0.54229591  0.47846527
   0.57302913  0.46208110  0.54393527
Direct configuration=    26
   0.37849200  0.53265221  0.49293360
   0.38033372  0.48085647  0.46366832
   0.38569715  0.48145570  0.52271442
   0.45139532  0.43951343  0.50067845
   0.52320513  0.42636647  0.49105149
   0.56844869  0.46848451  0.43600465
   0.52620508  0.51016437  0.43188561
   0.51511475  0.45460351  0.41378257
   0.51506498  0.54390599  0.50958925
   0.55446903  0.54559439  0.59503274
   0.60075837  0.54589981  0.55812832
   0.56006023  0.58952867  0.55505217
   0.39409726  0.49966867  0.49200176
   0.44407972  0.50542467  0.48687978
   0.51688627  0.46206554  0.48592303
   0.53247898  0.47484334  0.43894995
   0.54565472  0.48447592  0.52255344
   0.56507001  0.55376551  0.56081240
   0.46844240  0.46747925  0.49210080
   0.53989570  0.52887634  0.52786360
   0.46111974  0.54229540  0.47846353
   0.57303246  0.46208197  0.54393276
Direct configuration=    27
   0.37849293  0.53265365  0.49293533
   0.38033255  0.48085915  0.46366948
   0.38569562  0.48145691  0.52271574
   0.45139505  0.43951436  0.50068558
   0.52320427  0.42636575  0.49105555
   0.56844614  0.46847938  0.43600518
   0.52620257  0.51016103  0.43188483
   0.51511117  0.45459843  0.41378624
   0.51506413  0.54390515  0.50958847
   0.55447334  0.54559945  0.59502994
   0.60076013  0.54590203  0.55812272
   0.56006143  0.58953020  0.55504539
   0.39409731  0.49966985  0.49200335
   0.44407970  0.50542421  0.48688081
   0.51688544  0.46206460  0.48592513
   0.53247680  0.47484010  0.43895098
   0.54565743  0.48447456  0.52255344
   0.56507200  0.55376752  0.56080818
   0.46844198  0.46747952  0.49210449
   0.53989561  0.52887692  0.52786192
   0.46112075  0.54229527  0.47846125
   0.57303537  0.46208410  0.54392864
Direct configuration=    28
   0.37849408  0.53265545  0.49293750
   0.38033114  0.48086250  0.46367085
   0.38569375  0.48145837  0.52271731
   0.45139473  0.43951553  0.50069444
   0.52320325  0.42636485  0.49106056
   0.56844297  0.46847311  0.43600584
   0.52619947  0.51015688  0.43188389
   0.51510674  0.45459221  0.41379078
   0.51506316  0.54390402  0.50958763
   0.55447865  0.54560569  0.59502646
   0.60076227  0.54590476  0.55811580
   0.56006287  0.58953208  0.55503700
   0.39409739  0.49967136  0.49200526
   0.44407944  0.50542309  0.48688221
   0.51688439  0.46206352  0.48592771
   0.53247410  0.47483606  0.43895223
   0.54566186  0.48447178  0.52255422
   0.56507450  0.55376993  0.56080302
   0.46844146  0.46747998  0.49210903
   0.53989524  0.52887802  0.52785981
   0.46112217  0.54229547  0.47845834
   0.57303811  0.46208748  0.54392276
Direct configuration=    29
   0.37849552  0.53265773  0.49294020
   0.38032944  0.48086674  0.46367237
   0.38569141  0.48146006  0.52271907
   0.45139440  0.43951706  0.50070547
   0.52320202  0.42636375  0.49106665
   0.56843903  0.46846551  0.43600668
   0.52619564  0.51015177  0.43188284
   0.51510124  0.45458467  0.41379638
   0.51506193  0.54390251  0.50958673
   0.55448511  0.54561332  0.59502221
   0.60076484  0.54590803  0.55810731
   0.56006457  0.58953433  0.55502667
   0.39409749  0.49967323  0.49200752
   0.44407909  0.50542166  0.48688395
   0.51688312  0.46206221  0.48593087
   0.53247074  0.47483110  0.43895378
   0.54566741  0.48446844  0.52255518
   0.56507753  0.55377292  0.56079670
   0.46844086  0.46748057  0.49211464
   0.53989474  0.52887928  0.52785737
   0.46112391  0.54229560  0.47845471
   0.57304165  0.46209163  0.54391532
Direct configuration=    30
   0.37849735  0.53266056  0.49294351
   0.38032745  0.48087209  0.46367389
   0.38568852  0.48146191  0.52272084
   0.45139417  0.43951906  0.50071896
   0.52320058  0.42636243  0.49107380
   0.56843424  0.46845659  0.43600775
   0.52619099  0.51014565  0.43188177
   0.51509456  0.45457581  0.41380315
   0.51506013  0.54390054  0.50958579
   0.55449276  0.54562242  0.59501723
   0.60076787  0.54591179  0.55809718
   0.56006651  0.58953688  0.55501430
   0.39409759  0.49967556  0.49201004
   0.44407899  0.50542076  0.48688588
   0.51688172  0.46206056  0.48593467
   0.53246665  0.47482529  0.43895576
   0.54567237  0.48446646  0.52255500
   0.56508105  0.55377656  0.56078910
   0.46844026  0.46748113  0.49212151
   0.53989446  0.52887990  0.52785491
   0.46112566  0.54229488  0.47845039
   0.57304783  0.46209529  0.54390723
Direct configuration=    31
   0.37849962  0.53266394  0.49294741
   0.38032526  0.48087867  0.46367513
   0.38568506  0.48146374  0.52272231
   0.45139417  0.43952159  0.50073489
   0.52319898  0.42636094  0.49108176
   0.56842867  0.46844665  0.43600906
   0.52618556  0.51013871  0.43188085
   0.51508675  0.45456594  0.41381101
   0.51505755  0.54389803  0.50958490
   0.55450142  0.54563283  0.59501169
   0.60077127  0.54591586  0.55808562
   0.56006859  0.58953959  0.55500010
   0.39409766  0.49967826  0.49201271
   0.44407946  0.50542114  0.48688777
   0.51688031  0.46205855  0.48593910
   0.53246185  0.47481891  0.43895823
   0.54567513  0.48446754  0.52255248
   0.56508469  0.55378070  0.56078023
   0.46843977  0.46748148  0.49212963
   0.53989469  0.52887919  0.52785282
   0.46112708  0.54229262  0.47844554
   0.57305820  0.46209728  0.54389940
Direct configuration=    32
   0.37850240  0.53266796  0.49295194
   0.38032298  0.48088678  0.46367558
   0.38568092  0.48146527  0.52272295
   0.45139460  0.43952474  0.50075344
   0.52319736  0.42635937  0.49109025
   0.56842234  0.46843612  0.43601068
   0.52617930  0.51013121  0.43188034
   0.51507781  0.45455550  0.41381994
   0.51505398  0.54389471  0.50958443
   0.55451084  0.54564433  0.59500578
   0.60077484  0.54591995  0.55807289
   0.56007059  0.58954224  0.55498429
   0.39409769  0.49968128  0.49201526
   0.44408053  0.50542279  0.48688965
   0.51687899  0.46205627  0.48594409
   0.53245634  0.47481228  0.43896130
   0.54567565  0.48447180  0.52254736
   0.56508832  0.55378503  0.56077032
   0.46843949  0.46748162  0.49213901
   0.53989527  0.52887693  0.52785149
   0.46112816  0.54228862  0.47844008
   0.57307333  0.46209732  0.54389156
Direct configuration=    33
   0.37850589  0.53267279  0.49295714
   0.38032086  0.48089719  0.46367408
   0.38567591  0.48146585  0.52272158
   0.45139578  0.43952864  0.50077511
   0.52319614  0.42635790  0.49109874
   0.56841523  0.46842593  0.43601273
   0.52617211  0.51012379  0.43188081
   0.51506768  0.45454547  0.41382990
   0.51504933  0.54388985  0.50958546
   0.55452054  0.54565656  0.59499982
   0.60077805  0.54592349  0.55805950
   0.56007196  0.58954437  0.55496713
   0.39409806  0.49968485  0.49201727
   0.44408159  0.50542390  0.48689174
   0.51687784  0.46205410  0.48594954
   0.53245014  0.47480565  0.43896524
   0.54567757  0.48447534  0.52254186
   0.56509174  0.55378890  0.56076019
   0.46843954  0.46748194  0.49214957
   0.53989494  0.52887406  0.52785126
   0.46112953  0.54228402  0.47843350
   0.57309130  0.46209755  0.54388045
Direct configuration=    34
   0.37850995  0.53267815  0.49296274
   0.38031919  0.48090956  0.46367029
   0.38567025  0.48146514  0.52271787
   0.45139767  0.43953290  0.50079878
   0.52319561  0.42635670  0.49110655
   0.56840783  0.46841708  0.43601512
   0.52616440  0.51011725  0.43188246
   0.51505703  0.45453686  0.41384025
   0.51504400  0.54388345  0.50958846
   0.55452970  0.54566855  0.59499432
   0.60078048  0.54592599  0.55804651
   0.56007241  0.58954562  0.55494980
   0.39409866  0.49968873  0.49201830
   0.44408200  0.50542260  0.48689416
   0.51687682  0.46205239  0.48595510
   0.53244369  0.47479974  0.43896965
   0.54568459  0.48447378  0.52253894
   0.56509484  0.55379184  0.56075106
   0.46843991  0.46748277  0.49216056
   0.53989269  0.52887191  0.52785196
   0.46113186  0.54228061  0.47842586
   0.57310817  0.46210047  0.54386388
Direct configuration=    35
   0.37851471  0.53268390  0.49296856
   0.38031836  0.48092413  0.46366329
   0.38566396  0.48146244  0.52271092
   0.45140053  0.43953733  0.50082394
   0.52319607  0.42635596  0.49111273
   0.56840055  0.46841091  0.43601785
   0.52615645  0.51011257  0.43188581
   0.51504631  0.45453099  0.41385041
   0.51503758  0.54387537  0.50959402
   0.55453739  0.54567936  0.59499012