   6   6   0   0
  0.4500000E+04  0.3000000E-08  0.3000000E-08  0.3000000E-08  0.0000000E+00
  1.000000000000000E-004
  CAR 
 unknown system                          
      2.02059770    -24.52382229  301     -7.09264087      1.00000000
    -24.524  0.0000E+00  0.0000E+00
    -24.435  0.0000E+00  0.0000E+00
    -24.347  0.0000E+00  0.0000E+00
    -24.258  0.0000E+00  0.0000E+00
    -24.170  0.0000E+00  0.0000E+00
    -24.081  0.0000E+00  0.0000E+00
    -23.993  0.0000E+00  0.0000E+00
    -23.904  0.0000E+00  0.0000E+00
    -23.816  0.0000E+00  0.0000E+00
    -23.727  0.0000E+00  0.0000E+00
    -23.639  0.1171E-15  0.1036E-16
    -23.551  0.1448E-13  0.1291E-14
    -23.462  0.1214E-11  0.1087E-12
    -23.374  0.6927E-10  0.6238E-11
    -23.285  0.2690E-08  0.2443E-09
    -23.197  0.7116E-07  0.6541E-08
    -23.108  0.1283E-05  0.1201E-06
    -23.020  0.1578E-04  0.1517E-05
    -22.931  0.1325E-03  0.1324E-04
    -22.843  0.7603E-03  0.8052E-04
    -22.754  0.2982E-02  0.3444E-03
    -22.666  0.8001E-02  0.1052E-02
    -22.577  0.1469E-01  0.2352E-02
    -22.489  0.1847E-01  0.3986E-02
    -22.400  0.1589E-01  0.5392E-02
    -22.312  0.9362E-02  0.6221E-02
    -22.223  0.3775E-02  0.6555E-02
    -22.135  0.1041E-02  0.6647E-02
    -22.046  0.1964E-03  0.6664E-02
    -21.958  0.2531E-04  0.6666E-02
    -21.869  0.2227E-05  0.6667E-02
    -21.781  0.1337E-06  0.6667E-02
    -21.692  0.5474E-08  0.6667E-02
    -21.604  0.1526E-09  0.6667E-02
    -21.515  0.2898E-11  0.6667E-02
    -21.427  0.3741E-13  0.6667E-02
    -21.338  0.3346E-15  0.6667E-02
    -21.250  0.0000E+00  0.6667E-02
    -21.162  0.0000E+00  0.6667E-02
    -21.073  0.0000E+00  0.6667E-02
    -20.985  0.0000E+00  0.6667E-02
    -20.896  0.0000E+00  0.6667E-02
    -20.808  0.0000E+00  0.6667E-02
    -20.719  0.0000E+00  0.6667E-02
    -20.631  0.0000E+00  0.6667E-02
    -20.542  0.8365E-17  0.6667E-02
    -20.454  0.1012E-14  0.6667E-02
    -20.365  0.1055E-12  0.6667E-02
    -20.277  0.7476E-11  0.6667E-02
    -20.188  0.3604E-09  0.6667E-02
    -20.100  0.1183E-07  0.6667E-02
    -20.011  0.2646E-06  0.6667E-02
    -19.923  0.4035E-05  0.6667E-02
    -19.834  0.4199E-04  0.6671E-02
    -19.746  0.2984E-03  0.6697E-02
    -19.657  0.1449E-02  0.6825E-02
    -19.569  0.4813E-02  0.7251E-02
    -19.480  0.1094E-01  0.8219E-02
    -19.392  0.1701E-01  0.9724E-02
    -19.303  0.1812E-01  0.1133E-01
    -19.215  0.1321E-01  0.1250E-01
    -19.126  0.6591E-02  0.1308E-01
    -19.038  0.2251E-02  0.1328E-01
    -18.949  0.5258E-03  0.1333E-01
    -18.861  0.8395E-04  0.1333E-01
    -18.773  0.9156E-05  0.1333E-01
    -18.684  0.6816E-06  0.1333E-01
    -18.596  0.3461E-07  0.1333E-01
    -18.507  0.1198E-08  0.1333E-01
    -18.419  0.2822E-10  0.1333E-01
    -18.330  0.4527E-12  0.1333E-01
    -18.242  0.4935E-14  0.1333E-01
    -18.153  0.3346E-16  0.1333E-01
    -18.065  0.0000E+00  0.1333E-01
    -17.976  0.0000E+00  0.1333E-01
    -17.888  0.0000E+00  0.1333E-01
    -17.799  0.0000E+00  0.1333E-01
    -17.711  0.0000E+00  0.1333E-01
    -17.622  0.0000E+00  0.1333E-01
    -17.534  0.0000E+00  0.1333E-01
    -17.445  0.0000E+00  0.1333E-01
    -17.357  0.0000E+00  0.1333E-01
    -17.268  0.0000E+00  0.1333E-01
    -17.180  0.0000E+00  0.1333E-01
    -17.091  0.0000E+00  0.1333E-01
    -17.003  0.0000E+00  0.1333E-01
    -16.914  0.0000E+00  0.1333E-01
    -16.826  0.0000E+00  0.1333E-01
    -16.737  0.0000E+00  0.1333E-01
    -16.649  0.0000E+00  0.1333E-01
    -16.560  0.0000E+00  0.1333E-01
    -16.472  0.0000E+00  0.1333E-01
    -16.384  0.0000E+00  0.1333E-01
    -16.295  0.0000E+00  0.1333E-01
    -16.207  0.0000E+00  0.1333E-01
    -16.118  0.0000E+00  0.1333E-01
    -16.030  0.0000E+00  0.1333E-01
    -15.941  0.0000E+00  0.1333E-01
    -15.853  0.0000E+00  0.1333E-01
    -15.764  0.0000E+00  0.1333E-01
    -15.676  0.0000E+00  0.1333E-01
    -15.587  0.0000E+00  0.1333E-01
    -15.499  0.0000E+00  0.1333E-01
    -15.410  0.0000E+00  0.1333E-01
    -15.322  0.0000E+00  0.1333E-01
    -15.233  0.0000E+00  0.1333E-01
    -15.145  0.0000E+00  0.1333E-01
    -15.056  0.0000E+00  0.1333E-01
    -14.968  0.0000E+00  0.1333E-01
    -14.879  0.0000E+00  0.1333E-01
    -14.791  0.0000E+00  0.1333E-01
    -14.702  0.0000E+00  0.1333E-01
    -14.614  0.0000E+00  0.1333E-01
    -14.525  0.0000E+00  0.1333E-01
    -14.437  0.0000E+00  0.1333E-01
    -14.348  0.0000E+00  0.1333E-01
    -14.260  0.0000E+00  0.1333E-01
    -14.171  0.0000E+00  0.1333E-01
    -14.083  0.0000E+00  0.1333E-01
    -13.995  0.8365E-17  0.1333E-01
    -13.906  0.1209E-14  0.1333E-01
    -13.818  0.1244E-12  0.1333E-01
    -13.729  0.8688E-11  0.1333E-01
    -13.641  0.4129E-09  0.1333E-01
    -13.552  0.1336E-07  0.1333E-01
    -13.464  0.2946E-06  0.1333E-01
    -13.375  0.4430E-05  0.1333E-01
    -13.287  0.4545E-04  0.1334E-01
    -13.198  0.3185E-03  0.1337E-01
    -13.110  0.1525E-02  0.1350E-01
    -13.021  0.4995E-02  0.1394E-01
    -12.933  0.1119E-01  0.1493E-01
    -12.844  0.1717E-01  0.1645E-01
    -12.756  0.1803E-01  0.1805E-01
    -12.667  0.1296E-01  0.1919E-01
    -12.579  0.6378E-02  0.1976E-01
    -12.490  0.2148E-02  0.1995E-01
    -12.402  0.4946E-03  0.1999E-01
    -12.313  0.7787E-04  0.2000E-01
    -12.225  0.8380E-05  0.2000E-01
    -12.136  0.7825E-06  0.2000E-01
    -12.048  0.2997E-05  0.2000E-01
    -11.959  0.3574E-04  0.2000E-01
    -11.871  0.2940E-03  0.2003E-01
    -11.783  0.1652E-02  0.2018E-01
    -11.694  0.6350E-02  0.2074E-01
    -11.606  0.1669E-01  0.2221E-01
    -11.517  0.3003E-01  0.2487E-01
    -11.429  0.3699E-01  0.2814E-01
    -11.340  0.3119E-01  0.3090E-01
    -11.252  0.1801E-01  0.3250E-01
    -11.163  0.7114E-02  0.3313E-01
    -11.075  0.1923E-02  0.3330E-01
    -10.986  0.3554E-03  0.3333E-01
    -10.898  0.4487E-04  0.3333E-01
    -10.809  0.3869E-05  0.3333E-01
    -10.721  0.2276E-06  0.3333E-01
    -10.632  0.9126E-08  0.3333E-01
    -10.544  0.2493E-09  0.3333E-01
    -10.455  0.4636E-11  0.3333E-01
    -10.367  0.5865E-13  0.3333E-01
    -10.278  0.5103E-15  0.3333E-01
    -10.190  0.0000E+00  0.3333E-01
    -10.101  0.0000E+00  0.3333E-01
    -10.013  0.0000E+00  0.3333E-01
     -9.924  0.0000E+00  0.3333E-01
     -9.836  0.0000E+00  0.3333E-01
     -9.747  0.0000E+00  0.3333E-01
     -9.659  0.8365E-17  0.3333E-01
     -9.570  0.1037E-14  0.3333E-01
     -9.482  0.1081E-12  0.3333E-01
     -9.394  0.7643E-11  0.3333E-01
     -9.305  0.3677E-09  0.3333E-01
     -9.217  0.1204E-07  0.3333E-01
     -9.128  0.2688E-06  0.3333E-01
     -9.040  0.4091E-05  0.3333E-01
     -8.951  0.4248E-04  0.3334E-01
     -8.863  0.3013E-03  0.3336E-01
     -8.774  0.1460E-02  0.3349E-01
     -8.686  0.4841E-02  0.3392E-01
     -8.597  0.1099E-01  0.3489E-01
     -8.509  0.1715E-01  0.3641E-01
     -8.420  0.1887E-01  0.3808E-01
     -8.332  0.1668E-01  0.3956E-01
     -8.243  0.1761E-01  0.4111E-01
     -8.155  0.2604E-01  0.4342E-01
     -8.066  0.3564E-01  0.4657E-01
     -7.978  0.3555E-01  0.4972E-01
     -7.889  0.2453E-01  0.5189E-01
     -7.801  0.1161E-01  0.5291E-01
     -7.712  0.3761E-02  0.5325E-01
     -7.624  0.8331E-03  0.5332E-01
     -7.535  0.1262E-03  0.5333E-01
     -7.447  0.1305E-04  0.5333E-01
     -7.358  0.9214E-06  0.5333E-01
     -7.270  0.4437E-07  0.5333E-01
     -7.181  0.1456E-08  0.5333E-01
     -7.093  0.3253E-10  0.5333E-01
     -7.005  0.4948E-12  0.5333E-01
     -6.916  0.5119E-14  0.5333E-01
     -6.828  0.3346E-16  0.5333E-01
     -6.739  0.0000E+00  0.5333E-01
     -6.651  0.0000E+00  0.5333E-01
     -6.562  0.0000E+00  0.5333E-01
     -6.474  0.0000E+00  0.5333E-01
     -6.385  0.0000E+00  0.5333E-01
     -6.297  0.0000E+00  0.5333E-01
     -6.208  0.0000E+00  0.5333E-01
     -6.120  0.0000E+00  0.5333E-01
     -6.031  0.0000E+00  0.5333E-01
     -5.943  0.0000E+00  0.5333E-01
     -5.854  0.0000E+00  0.5333E-01
     -5.766  0.0000E+00  0.5333E-01
     -5.677  0.0000E+00  0.5333E-01
     -5.589  0.0000E+00  0.5333E-01
     -5.500  0.0000E+00  0.5333E-01
     -5.412  0.0000E+00  0.5333E-01
     -5.323  0.0000E+00  0.5333E-01
     -5.235  0.0000E+00  0.5333E-01
     -5.146  0.0000E+00  0.5333E-01
     -5.058  0.0000E+00  0.5333E-01
     -4.969  0.0000E+00  0.5333E-01
     -4.881  0.0000E+00  0.5333E-01
     -4.792  0.0000E+00  0.5333E-01
     -4.704  0.0000E+00  0.5333E-01
     -4.616  0.0000E+00  0.5333E-01
     -4.527  0.0000E+00  0.5333E-01
     -4.439  0.0000E+00  0.5333E-01
     -4.350  0.0000E+00  0.5333E-01
     -4.262  0.0000E+00  0.5333E-01
     -4.173  0.0000E+00  0.5333E-01
     -4.085  0.0000E+00  0.5333E-01
     -3.996  0.0000E+00  0.5333E-01
     -3.908  0.0000E+00  0.5333E-01
     -3.819  0.0000E+00  0.5333E-01
     -3.731  0.0000E+00  0.5333E-01
     -3.642  0.0000E+00  0.5333E-01
     -3.554  0.0000E+00  0.5333E-01
     -3.465  0.0000E+00  0.5333E-01
     -3.377  0.0000E+00  0.5333E-01
     -3.288  0.0000E+00  0.5333E-01
     -3.200  0.0000E+00  0.5333E-01
     -3.111  0.0000E+00  0.5333E-01
     -3.023  0.0000E+00  0.5333E-01
     -2.934  0.0000E+00  0.5333E-01
     -2.846  0.0000E+00  0.5333E-01
     -2.757  0.0000E+00  0.5333E-01
     -2.669  0.0000E+00  0.5333E-01
     -2.580  0.0000E+00  0.5333E-01
     -2.492  0.0000E+00  0.5333E-01
     -2.403  0.0000E+00  0.5333E-01
     -2.315  0.0000E+00  0.5333E-01
     -2.227  0.0000E+00  0.5333E-01
     -2.138  0.0000E+00  0.5333E-01
     -2.050  0.0000E+00  0.5333E-01
     -1.961  0.7110E-16  0.5333E-01
     -1.873  0.8879E-14  0.5333E-01
     -1.784  0.7758E-12  0.5333E-01
     -1.696  0.4609E-10  0.5333E-01
     -1.607  0.1864E-08  0.5333E-01
     -1.519  0.5134E-07  0.5333E-01
     -1.430  0.9637E-06  0.5333E-01
     -1.342  0.1234E-04  0.5333E-01
     -1.253  0.1079E-03  0.5334E-01
     -1.165  0.6442E-03  0.5340E-01
     -1.076  0.2631E-02  0.5363E-01
     -0.988  0.7360E-02  0.5429E-01
     -0.899  0.1420E-01  0.5554E-01
     -0.811  0.1939E-01  0.5726E-01
     -0.722  0.2090E-01  0.5911E-01
     -0.634  0.2318E-01  0.6116E-01
     -0.545  0.3056E-01  0.6386E-01
     -0.457  0.3744E-01  0.6717E-01
     -0.368  0.3452E-01  0.7023E-01
     -0.280  0.2304E-01  0.7227E-01
     -0.191  0.1347E-01  0.7346E-01
     -0.103  0.1229E-01  0.7455E-01
     -0.014  0.1650E-01  0.7601E-01
      0.074  0.1855E-01  0.7765E-01
      0.162  0.1470E-01  0.7895E-01
      0.251  0.7999E-02  0.7966E-01
      0.339  0.2981E-02  0.7992E-01
      0.428  0.7599E-03  0.7999E-01
      0.516  0.1324E-03  0.8000E-01
      0.605  0.1577E-04  0.8000E-01
      0.693  0.1282E-05  0.8000E-01
      0.782  0.7108E-07  0.8000E-01
      0.870  0.2687E-08  0.8000E-01
      0.959  0.6917E-10  0.8000E-01
      1.047  0.1212E-11  0.8000E-01
      1.136  0.1445E-13  0.8000E-01
      1.224  0.1171E-15  0.8000E-01
      1.313  0.0000E+00  0.8000E-01
      1.401  0.0000E+00  0.8000E-01
      1.490  0.0000E+00  0.8000E-01
      1.578  0.0000E+00  0.8000E-01
      1.667  0.0000E+00  0.8000E-01
      1.755  0.0000E+00  0.8000E-01
      1.844  0.0000E+00  0.8000E-01
      1.932  0.0000E+00  0.8000E-01
      2.021  0.0000E+00  0.8000E-01
