    6    6  300    1
  0.4500000E+04  0.3000000E-08  0.3000000E-08  0.3000000E-08  0.0000000E+00
  1.000000000000000E-004
  CAR 
 unknown system                          
     16      4     12
 
  0.2500000E+00  0.2500000E+00  0.2500000E+00  0.2500000E+00
    1      -22.523822   1.000000
    2      -19.377223   1.000000
    3      -12.832872   1.000000
    4      -11.469117   1.000000
    5      -11.467681   1.000000
    6       -8.494498   1.000000
    7       -8.065638   1.000000
    8       -8.062255   1.000000
    9       -0.836569   0.000000
   10       -0.472777   0.000000
   11       -0.469189   0.000000
   12        0.020598   0.000000
 
 -0.2500000E+00  0.2500000E+00  0.2500000E+00  0.2500000E+00
    1      -22.523821   1.000000
    2      -19.377223   1.000000
    3      -12.832875   1.000000
    4      -11.469115   1.000000
    5      -11.467670   1.000000
    6       -8.494489   1.000000
    7       -8.065663   1.000000
    8       -8.062259   1.000000
    9       -0.836569   0.000000
   10       -0.472756   0.000000
   11       -0.469190   0.000000
   12        0.020539   0.000000
 
  0.2500000E+00 -0.2500000E+00  0.2500000E+00  0.2500000E+00
    1      -22.523822   1.000000
    2      -19.377223   1.000000
    3      -12.832873   1.000000
    4      -11.469121   1.000000
    5      -11.467674   1.000000
    6       -8.494492   1.000000
    7       -8.065647   1.000000
    8       -8.062272   1.000000
    9       -0.836569   0.000000
   10       -0.472758   0.000000
   11       -0.469193   0.000000
   12        0.020558   0.000000
 
 -0.2500000E+00 -0.2500000E+00  0.2500000E+00  0.2500000E+00
    1      -22.523821   1.000000
    2      -19.377223   1.000000
    3      -12.832873   1.000000
    4      -11.469122   1.000000
    5      -11.467673   1.000000
    6       -8.494491   1.000000
    7       -8.065645   1.000000
    8       -8.062277   1.000000
    9       -0.836569   0.000000
   10       -0.472759   0.000000
   11       -0.469187   0.000000
   12        0.020557   0.000000
