 vasp.5.4.1 24Jun15 (build Jan 13 2020 12:58:22) complex                        
  
 executed on           IFC91_ompi date 2020.02.05  18:18:08
 running on   15 total cores
 each image running on    1 cores
 distrk:  each k-point on    1 cores,    1 groups
 distr:  one band on NCORES_PER_BAND=   1 cores,    1 groups


--------------------------------------------------------------------------------------------------------


 INCAR:
 POTCAR:    PAW_PBE H 15Jun2001                   
 POTCAR:    PAW_PBE C 08Apr2002                   
 POTCAR:    PAW_PBE N 08Apr2002                   
 POTCAR:    PAW_PBE H 15Jun2001                   
   VRHFIN =H: ultrasoft test                                                    
   LEXCH  = PE                                                                  
   EATOM  =    12.4884 eV,    0.9179 Ry                                         
                                                                                
   TITEL  = PAW_PBE H 15Jun2001                                                 
   LULTRA =        F    use ultrasoft PP ?                                      
   IUNSCR =        0    unscreen: 0-lin 1-nonlin 2-no                           
   RPACOR =    0.000    partial core radius                                     
   POMASS =    1.000; ZVAL   =    1.000    mass and valenz                      
   RCORE  =    1.100    outmost cutoff radius                                   
   RWIGS  =    0.700; RWIGS  =    0.370    wigner-seitz radius (au A)           
   ENMAX  =  250.000; ENMIN  =  200.000 eV                                      
   RCLOC  =    0.701    cutoff for local pot                                    
   LCOR   =        T    correct aug charges                                     
   LPAW   =        T    paw PP                                                  
   EAUG   =  400.000                                                            
   RMAX   =    1.123    core radius for proj-oper                               
   RAUG   =    1.200    factor for augmentation sphere                          
   RDEP   =    1.112    radius for radial grids                                 
   RDEPT  =    0.926    core radius for aug-charge                              
                                                                                
   Atomic configuration                                                         
    2 entries                                                                   
     n  l   j            E        occ.                                          
     1  0  0.50        -6.4927   1.0000                                         
     2  1  0.50        -3.4015   0.0000                                         
   Description                                                                  
     l       E           TYP  RCUT    TYP  RCUT                                 
     0     -6.4927494     23  1.100                                             
     0      6.8029130     23  1.100                                             
     1     -4.0817478     23  1.100                                             
  local pseudopotential read in
  atomic valenz-charges read in
  non local Contribution for L=           0  read in
    real space projection operators read in
  non local Contribution for L=           0  read in
    real space projection operators read in
  non local Contribution for L=           1  read in
    real space projection operators read in
    PAW grid and wavefunctions read in
 
   number of l-projection  operators is LMAX  =           3
   number of lm-projection operators is LMMAX =           5
 
 POTCAR:    PAW_PBE C 08Apr2002                   
   VRHFIN =C: s2p2                                                              
   LEXCH  = PE                                                                  
   EATOM  =   147.1560 eV,   10.8157 Ry                                         
                                                                                
   TITEL  = PAW_PBE C 08Apr2002                                                 
   LULTRA =        F    use ultrasoft PP ?                                      
   IUNSCR =        1    unscreen: 0-lin 1-nonlin 2-no                           
   RPACOR =    1.200    partial core radius                                     
   POMASS =   12.011; ZVAL   =    4.000    mass and valenz                      
   RCORE  =    1.500    outmost cutoff radius                                   
   RWIGS  =    1.630; RWIGS  =    0.863    wigner-seitz radius (au A)           
   ENMAX  =  400.000; ENMIN  =  300.000 eV                                      
   ICORE  =        2    local potential                                         
   LCOR   =        T    correct aug charges                                     
   LPAW   =        T    paw PP                                                  
   EAUG   =  644.873                                                            
   DEXC   =    0.000                                                            
   RMAX   =    1.529    core radius for proj-oper                               
   RAUG   =    1.300    factor for augmentation sphere                          
   RDEP   =    1.501    radius for radial grids                                 
   RDEPT  =    1.300    core radius for aug-charge                              
                                                                                
   Atomic configuration                                                         
    4 entries                                                                   
     n  l   j            E        occ.                                          
     1  0  0.50      -273.3789   2.0000                                         
     2  0  0.50       -13.7508   2.0000                                         
     2  1  0.50        -5.2854   2.0000                                         
     3  2  1.50        -5.4423   0.0000                                         
   Description                                                                  
     l       E           TYP  RCUT    TYP  RCUT                                 
     0    -13.7508458     23  1.200                                             
     0     -8.2022199     23  1.200                                             
     1     -5.2854383     23  1.500                                             
     1     34.0145650     23  1.500                                             
     2     -5.4423304      7  1.500                                             
  local pseudopotential read in
  partial core-charges read in
  partial kinetic energy density read in
  atomic valenz-charges read in
  non local Contribution for L=           0  read in
    real space projection operators read in
  non local Contribution for L=           0  read in
    real space projection operators read in
  non local Contribution for L=           1  read in
    real space projection operators read in
  non local Contribution for L=           1  read in
    real space projection operators read in
    PAW grid and wavefunctions read in
 
   number of l-projection  operators is LMAX  =           4
   number of lm-projection operators is LMMAX =           8
 
 POTCAR:    PAW_PBE N 08Apr2002                   
   VRHFIN =N: s2p3                                                              
   LEXCH  = PE                                                                  
   EATOM  =   264.5486 eV,   19.4438 Ry                                         
                                                                                
   TITEL  = PAW_PBE N 08Apr2002                                                 
   LULTRA =        F    use ultrasoft PP ?                                      
   IUNSCR =        1    unscreen: 0-lin 1-nonlin 2-no                           
   RPACOR =    1.200    partial core radius                                     
   POMASS =   14.001; ZVAL   =    5.000    mass and valenz                      
   RCORE  =    1.500    outmost cutoff radius                                   
   RWIGS  =    1.400; RWIGS  =    0.741    wigner-seitz radius (au A)           
   ENMAX  =  400.000; ENMIN  =  300.000 eV                                      
   ICORE  =        2    local potential                                         
   LCOR   =        T    correct aug charges                                     
   LPAW   =        T    paw PP                                                  
   EAUG   =  627.112                                                            
   DEXC   =    0.000                                                            
   RMAX   =    1.529    core radius for proj-oper                               
   RAUG   =    1.300    factor for augmentation sphere                          
   RDEP   =    1.514    radius for radial grids                                 
   RDEPT  =    1.338    core radius for aug-charge                              
                                                                                
   Atomic configuration                                                         
    4 entries                                                                   
     n  l   j            E        occ.                                          
     1  0  0.50      -384.7179   2.0000                                         
     2  0  0.50       -18.5828   2.0000                                         
     2  1  0.50        -7.0898   3.0000                                         
     3  2  1.50        -6.8029   0.0000                                         
   Description                                                                  
     l       E           TYP  RCUT    TYP  RCUT                                 
     0    -18.5828119     23  1.200                                             
     0    -13.5018863     23  1.200                                             
     1     -7.0897853     23  1.500                                             
     1      9.5240782     23  1.500                                             
     2     -6.8029130      7  1.500                                             
  local pseudopotential read in
  partial core-charges read in
  partial kinetic energy density read in
  atomic valenz-charges read in
  non local Contribution for L=           0  read in
    real space projection operators read in
  non local Contribution for L=           0  read in
    real space projection operators read in
  non local Contribution for L=           1  read in
    real space projection operators read in
  non local Contribution for L=           1  read in
    real space projection operators read in
    PAW grid and wavefunctions read in
 
   number of l-projection  operators is LMAX  =           4
   number of lm-projection operators is LMMAX =           8
 

 ----------------------------------------------------------------------------- 
|                                                                             |
|  ADVICE TO THIS USER RUNNING 'VASP/VAMP'   (HEAR YOUR MASTER'S VOICE ...):  |
|                                                                             |
|      You have a (more or less) 'small supercell' and for smaller cells      |
|      it is recommended  to use the reciprocal-space projection scheme!      |
|      The real space optimization is not  efficient for small cells and it   |
|      is also less accurate ...                                              |
|      Therefore set LREAL=.FALSE. in the  INCAR file                         |
|                                                                             |
 ----------------------------------------------------------------------------- 

 Optimization of the real space projectors (new method)

 maximal supplied QI-value         = 34.20
 optimisation between [QCUT,QGAM] = [  9.92, 20.18] = [ 27.55,114.04] Ry 
 Optimized for a Real-space Cutoff    1.26 Angstroem

   l    n(q)    QCUT    max X(q) W(low)/X(q) W(high)/X(q)  e(spline) 
   0      8     9.919    19.460    0.50E-03    0.23E-03    0.29E-06
   0      8     9.919    12.209    0.48E-03    0.23E-03    0.28E-06
   1      7     9.919     4.655    0.17E-03    0.75E-03    0.30E-06
 Optimization of the real space projectors (new method)

 maximal supplied QI-value         = 25.13
 optimisation between [QCUT,QGAM] = [ 10.05, 20.36] = [ 28.30,116.06] Ry 
 Optimized for a Real-space Cutoff    1.30 Angstroem

   l    n(q)    QCUT    max X(q) W(low)/X(q) W(high)/X(q)  e(spline) 
   0      8    10.053   115.676    0.49E-03    0.72E-03    0.18E-06
   0      8    10.053    87.132    0.49E-03    0.71E-03    0.18E-06
   1      7    10.053     4.429    0.32E-03    0.31E-03    0.18E-06
   1      7    10.053     2.733    0.23E-03    0.19E-03    0.20E-06
 Optimization of the real space projectors (new method)

 maximal supplied QI-value         = 25.13
 optimisation between [QCUT,QGAM] = [ 10.05, 20.36] = [ 28.30,116.06] Ry 
 Optimized for a Real-space Cutoff    1.65 Angstroem

   l    n(q)    QCUT    max X(q) W(low)/X(q) W(high)/X(q)  e(spline) 
   0     10    10.053    79.467    0.76E-04    0.72E-04    0.56E-06
   0     10    10.053    66.151    0.76E-04    0.72E-04    0.55E-06
   1     10    10.053     8.350    0.25E-03    0.92E-03    0.41E-05
   1     10    10.053     5.531    0.27E-03    0.10E-02    0.45E-05
  PAW_PBE H 15Jun2001                   :
 energy of atom  1       EATOM=  -12.4884
 kinetic energy error for atom=    0.0098 (will be added to EATOM!!)
  PAW_PBE C 08Apr2002                   :
 energy of atom  2       EATOM= -147.1560
 kinetic energy error for atom=    0.0288 (will be added to EATOM!!)
  PAW_PBE N 08Apr2002                   :
 energy of atom  3       EATOM= -264.5486
 kinetic energy error for atom=    0.0736 (will be added to EATOM!!)
 
 
 POSCAR: H3 C2 N1                                
  positions in direct lattice
  velocities in cartesian coordinates
 exchange correlation table for  LEXCH =        8
   RHO(1)=    0.500       N(1)  =     2000
   RHO(2)=  100.500       N(2)  =     4000

 VTST: version 3.2, (02/03/18)

 CHAIN: initializing optimizer
 
 OPT: Using FIRE optimizer
 OPT: FIRE, Init
 OPT: FIRE, MAXMOVE       0.20000
 OPT: FIRE, TIMESTEP      0.10000
 OPT: FIRE, FTIMEMAX      1.00000
 OPT: FIRE, FTIMEINC      1.10000
 OPT: FIRE, FTIMEDEC      0.50000
 OPT: FIRE, FALPHADEC     0.99000
 OPT: FIRE, FALPHA        0.10000
 OPT: FIRE, FNMIN         5
 
 CHAIN: Read ICHAIN            0
 CHAIN: Running the NEB
 NEB:          SPRING     -5.000000
 NEB:          LCLIMB      T
 NEB:     LTANGENTOLD      F
 NEB:           LDNEB      F
 NEB:        LDNEBORG      F
 NEB:        LNEBCELL      F
 NEB:          EFIRST      0.000000
 NEB:           ELAST      0.000000
 
 POSCAR: H3 C2 N1                                
  positions in direct lattice
  No initial velocities read in
 
 POSCAR: H3 C2 N1                                
  positions in direct lattice
  No initial velocities read in
 


--------------------------------------------------------------------------------------------------------


 ion  position               nearest neighbor table
   1  0.474  0.464  0.504-   4 1.10
   2  0.474  0.508  0.464-   4 1.10
   3  0.466  0.520  0.522-   4 1.10
   4  0.484  0.499  0.498-   3 1.10   1 1.10   2 1.10   5 1.45
   5  0.532  0.503  0.504-   6 1.17   4 1.45
   6  0.570  0.506  0.508-   5 1.17
 
  LATTYP: Found a simple cubic cell.
 ALAT       =    30.0000000000
  
  Lattice vectors:
  
 A1 = (  30.0000000000,   0.0000000000,   0.0000000000)
 A2 = (   0.0000000000,  30.0000000000,   0.0000000000)
 A3 = (   0.0000000000,   0.0000000000,  30.0000000000)


Analysis of symmetry for initial positions (statically):
=====================================================================
 Subroutine PRICEL returns:
 Original cell was already a primitive cell.
 

 Routine SETGRP: Setting up the symmetry group for a 
 simple cubic supercell.


 Subroutine GETGRP returns: Found  1 space group operations
 (whereof  1 operations were pure point group operations)
 out of a pool of 48 trial point group operations.


The static configuration has the point symmetry C_1 .


Analysis of symmetry for dynamics (positions and initial velocities):
=====================================================================
 Subroutine PRICEL returns:
 Original cell was already a primitive cell.
 

 Routine SETGRP: Setting up the symmetry group for a 
 simple cubic supercell.


 Subroutine GETGRP returns: Found  1 space group operations
 (whereof  1 operations were pure point group operations)
 out of a pool of 48 trial point group operations.


The dynamic configuration has the point symmetry C_1 .
 
 
 KPOINTS: Mo2C                                    

Automatic generation of k-mesh.
Space group operators:
 irot       det(A)        alpha          n_x          n_y          n_z        tau_x        tau_y        tau_z
    1     1.000000     0.000000     1.000000     0.000000     0.000000     0.000000     0.000000     0.000000
 
 Subroutine IBZKPT returns following result:
 ===========================================
 
 Found      4 irreducible k-points:
 
 Following reciprocal coordinates:
            Coordinates               Weight
  0.250000  0.250000  0.250000      2.000000
 -0.250000  0.250000  0.250000      2.000000
  0.250000 -0.250000  0.250000      2.000000
 -0.250000 -0.250000  0.250000      2.000000
 
 Following cartesian coordinates:
            Coordinates               Weight
  0.008333  0.008333  0.008333      2.000000
 -0.008333  0.008333  0.008333      2.000000
  0.008333 -0.008333  0.008333      2.000000
 -0.008333 -0.008333  0.008333      2.000000
 


--------------------------------------------------------------------------------------------------------




 Dimension of arrays:
   k-points           NKPTS =      4   k-points in BZ     NKDIM =      4   number of bands    NBANDS=     12
   number of dos      NEDOS =    301   number of ions     NIONS =      6
   non local maximal  LDIM  =      4   non local SUM 2l+1 LMDIM =      8
   total plane-waves  NPLWV = ******
   max r-space proj   IRMAX =   2395   max aug-charges    IRDMAX=   1738
   dimension x,y,z NGX =   150 NGY =  150 NGZ =  150
   dimension x,y,z NGXF=   300 NGYF=  300 NGZF=  300
   support grid    NGXF=   300 NGYF=  300 NGZF=  300
   ions per type =               3   2   1
 NGX,Y,Z   is equivalent  to a cutoff of   8.31,  8.31,  8.31 a.u.
 NGXF,Y,Z  is equivalent  to a cutoff of  16.62, 16.62, 16.62 a.u.


 I would recommend the setting:
   dimension x,y,z NGX =   147 NGY =  147 NGZ =  147
 SYSTEM =  unknown system                          
 POSCAR =  H3 C2 N1                                

 Startparameter for this run:
   NWRITE =      2    write-flag & timer
   PREC   = normal    normal or accurate (medium, high low for compatibility)
   ISTART =      0    job   : 0-new  1-cont  2-samecut
   ICHARG =      2    charge: 1-file 2-atom 10-const
   ISPIN  =      1    spin polarized calculation?
   LNONCOLLINEAR =      F non collinear calculations
   LSORBIT =      F    spin-orbit coupling
   INIWAV =      1    electr: 0-lowe 1-rand  2-diag
   LASPH  =      F    aspherical Exc in radial PAW
   METAGGA=      F    non-selfconsistent MetaGGA calc.

 Electronic Relaxation 1
   ENCUT  =  400.0 eV  29.40 Ry    5.42 a.u.  48.92 48.92 48.92*2*pi/ulx,y,z
   ENINI  =  400.0     initial cutoff
   ENAUG  =  644.9 eV  augmentation charge cutoff
   NELM   =    500;   NELMIN=  6; NELMDL= -5     # of ELM steps 
   EDIFF  = 0.1E-03   stopping-criterion for ELM
   LREAL  =      T    real-space projection
   NLSPLINE    = F    spline interpolate recip. space projectors
   LCOMPAT=      F    compatible to vasp.4.4
   GGA_COMPAT  = T    GGA compatible to vasp.4.4-vasp.4.6
   LMAXPAW     = -100 max onsite density
   LMAXMIX     =    2 max onsite mixed and CHGCAR
   VOSKOWN=      0    Vosko Wilk Nusair interpolation
   ROPT   =   -0.00050  -0.00050  -0.00050
 Ionic relaxation
   EDIFFG = -.1E+00   stopping-criterion for IOM
   NSW    =    300    number of steps for IOM
   NBLOCK =      1;   KBLOCK =    300    inner block; outer block 
   IBRION =      3    ionic relax: 0-MD 1-quasi-New 2-CG
   NFREE  =      0    steps in history (QN), initial steepest desc. (CG)
   ISIF   =      2    stress and relaxation
   IWAVPR =     11    prediction:  0-non 1-charg 2-wave 3-comb
   ISYM   =      2    0-nonsym 1-usesym 2-fastsym
   LCORR  =      T    Harris-Foulkes like correction to forces

   POTIM  = 0.0000    time-step for ionic-motion
   TEIN   =    0.0    initial temperature
   TEBEG  =    0.0;   TEEND  =   0.0 temperature during run
   SMASS  =   2.00    Nose mass-parameter (am)
   estimated Nose-frequenzy (Omega)   =  0.12E+10 period in steps =  0.00 mass=   0.137E-25a.u.
   SCALEE = 1.0000    scale energy and forces
   NPACO  =    256;   APACO  = 16.0  distance and # of slots for P.C.
   PSTRESS=    0.0 pullay stress

  Mass of Ions in am
   POMASS =   1.00 12.01 14.00
  Ionic Valenz
   ZVAL   =   1.00  4.00  5.00
  Atomic Wigner-Seitz radii
   RWIGS  =  -1.00 -1.00 -1.00
  virtual crystal weights 
   VCA    =   1.00  1.00  1.00
   NELECT =      16.0000    total number of electrons
   NUPDOWN=      -1.0000    fix difference up-down

 DOS related values:
   EMIN   =  10.00;   EMAX   =-10.00  energy-range for DOS
   EFERMI =   0.00
   ISMEAR =     0;   SIGMA  =   0.20  broadening in eV -4-tet -1-fermi 0-gaus

 Electronic relaxation 2 (details)
   IALGO  =     38    algorithm
   LDIAG  =      T    sub-space diagonalisation (order eigenvalues)
   LSUBROT=      F    optimize rotation matrix (better conditioning)
   TURBO    =      0    0=normal 1=particle mesh
   IRESTART =      0    0=no restart 2=restart with 2 vectors
   NREBOOT  =      0    no. of reboots
   NMIN     =      0    reboot dimension
   EREF     =   0.00    reference energy to select bands
   IMIX   =      4    mixing-type and parameters
     AMIX     =   0.40;   BMIX     =  1.00
     AMIX_MAG =   1.60;   BMIX_MAG =  1.00
     AMIN     =   0.10
     WC   =   100.;   INIMIX=   1;  MIXPRE=   1;  MAXMIX= -45

 Intra band minimization:
   WEIMIN = 0.0010     energy-eigenvalue tresh-hold
   EBREAK =  0.21E-05  absolut break condition
   DEPER  =   0.30     relativ break condition  

   TIME   =   0.40     timestep for ELM

  volume/ion in A,a.u.               =    4500.00     30367.50
  Fermi-wavevector in a.u.,A,eV,Ry     =   0.137508  0.259852  0.257264  0.018908
  Thomas-Fermi vector in A             =   0.790710
 
 Write flags
   LWAVE  =      F    write WAVECAR
   LCHARG =      F    write CHGCAR
   LVTOT  =      F    write LOCPOT, total local potential
   LVHAR  =      F    write LOCPOT, Hartree potential only
   LELF   =      F    write electronic localiz. function (ELF)
   LORBIT =      0    0 simple, 1 ext, 2 COOP (PROOUT)


 Dipole corrections
   LMONO  =      F    monopole corrections only (constant potential shift)
   LDIPOL =      F    correct potential (dipole corrections)
   IDIPOL =      0    1-x, 2-y, 3-z, 4-all directions 
   EPSILON=  1.0000000 bulk dielectric constant

 Exchange correlation treatment:
   GGA     =    PE    GGA type
   LEXCH   =     8    internal setting for exchange type
   VOSKOWN=      0    Vosko Wilk Nusair interpolation
   LHFCALC =     F    Hartree Fock is set to
   LHFONE  =     F    Hartree Fock one center treatment
   AEXX    =    0.0000 exact exchange contribution

 Linear response parameters
   LEPSILON=     F    determine dielectric tensor
   LRPA    =     F    only Hartree local field effects (RPA)
   LNABLA  =     F    use nabla operator in PAW spheres
   LVEL    =     F    velocity operator in full k-point grid
   LINTERFAST=   F  fast interpolation
   KINTER  =     0    interpolate to denser k-point grid
   CSHIFT  =0.1000    complex shift for real part using Kramers Kronig
   OMEGAMAX=  -1.0    maximum frequency
   DEG_THRESHOLD= 0.2000000E-02 threshold for treating states as degnerate
   RTIME   =    0.100 relaxation time in fs

 Orbital magnetization related:
   ORBITALMAG=     F  switch on orbital magnetization
   LCHIMAG   =     F  perturbation theory with respect to B field
   DQ        =  0.001000  dq finite difference perturbation B field



--------------------------------------------------------------------------------------------------------


 quickmin algorithm: (dynamic with friction)
 charge density and potential will be updated during run
 non-spin polarized calculation
 Variant of blocked Davidson
 Davidson routine will perform the subspace rotation
 perform sub-space diagonalisation
    after iterative eigenvector-optimisation
 modified Broyden-mixing scheme, WC =      100.0
 initial mixing is a Kerker type mixing with AMIX =  0.4000 and BMIX =      1.0000
 Hartree-type preconditioning will be used
 using additional bands            4
 real space projection scheme for non local part
 use partial core corrections
 calculate Harris-corrections to forces 
   (improved forces if not selfconsistent)
 use gradient corrections 
 use of overlap-Matrix (Vanderbilt PP)
 Gauss-broadening in eV      SIGMA  =   0.20


--------------------------------------------------------------------------------------------------------


  energy-cutoff  :      400.00
  volume of cell :    27000.00
      direct lattice vectors                 reciprocal lattice vectors
    30.000000000  0.000000000  0.000000000     0.033333333  0.000000000  0.000000000
     0.000000000 30.000000000  0.000000000     0.000000000  0.033333333  0.000000000
     0.000000000  0.000000000 30.000000000     0.000000000  0.000000000  0.033333333

  length of vectors
    30.000000000 30.000000000 30.000000000     0.033333333  0.033333333  0.033333333


 
 k-points in units of 2pi/SCALE and weight: Mo2C                                    
   0.00833333  0.00833333  0.00833333       0.250
  -0.00833333  0.00833333  0.00833333       0.250
   0.00833333 -0.00833333  0.00833333       0.250
  -0.00833333 -0.00833333  0.00833333       0.250
 
 k-points in reciprocal lattice and weights: Mo2C                                    
   0.25000000  0.25000000  0.25000000       0.250
  -0.25000000  0.25000000  0.25000000       0.250
   0.25000000 -0.25000000  0.25000000       0.250
  -0.25000000 -0.25000000  0.25000000       0.250
 
 position of ions in fractional coordinates (direct lattice) 
   0.47355722  0.46386187  0.50400265
   0.47400185  0.50815602  0.46425205
   0.46637846  0.52013072  0.52206255
   0.48389126  0.49853451  0.49819851
   0.53183125  0.50291425  0.50358483
   0.57032965  0.50643682  0.50786057
 
 position of ions in cartesian coordinates  (Angst):
  14.20671668 13.91585622 15.12007944
  14.22005548 15.24468066 13.92756149
  13.99135390 15.60392161 15.66187661
  14.51673779 14.95603526 14.94595542
  15.95493760 15.08742752 15.10754485
  17.10988960 15.19310463 15.23581707
 


--------------------------------------------------------------------------------------------------------


 k-point  1 :   0.2500 0.2500 0.2500  plane waves:  490454
 k-point  2 :  -0.2500 0.2500 0.2500  plane waves:  490454
 k-point  3 :   0.2500-0.2500 0.2500  plane waves:  490454
 k-point  4 :  -0.2500-0.2500 0.2500  plane waves:  490454

 maximum and minimum number of plane-waves per node :    490454   490454

 maximum number of plane-waves:    490454
 maximum index in each direction: 
   IXMAX=   49   IYMAX=   49   IZMAX=   48
   IXMIN=  -49   IYMIN=  -49   IZMIN=  -49

 WARNING: aliasing errors must be expected set NGX to 198 to avoid them
 WARNING: aliasing errors must be expected set NGY to 198 to avoid them
 WARNING: aliasing errors must be expected set NGZ to 196 to avoid them
 aliasing errors are usually negligible using standard VASP settings
 and one can safely disregard these warnings

 serial   3D FFT for wavefunctions
 parallel 3D FFT for charge:
    minimum data exchange during FFTs selected (reduces bandwidth)


 total amount of memory used by VASP on root node  3203889. kBytes
========================================================================

   base      :      30000. kBytes
   nonlr-proj:        693. kBytes
   fftplans  :     924480. kBytes
   grid      :    1872000. kBytes
   one-center:         18. kBytes
   wavefun   :     376698. kBytes
 
     INWAV:  cpu time    0.0000: real time    0.0006
 Broyden mixing: mesh for mixing (old mesh)
   NGX = 97   NGY = 97   NGZ = 97
  (NGX  =300   NGY  =300   NGZ  =300)
  gives a total of 912673 points

 initial charge density was supplied:
 charge density of overlapping atoms calculated
 number of electron      16.0000000 magnetization 
 keeping initial charge density in first step


--------------------------------------------------------------------------------------------------------


 Maximum index for non-local projection operator         2274
 Maximum index for augmentation-charges         1489 (set IRDMAX)


--------------------------------------------------------------------------------------------------------


 First call to EWALD:  gamma=   0.059
 Maximum number of real-space cells 3x 3x 3
 Maximum number of reciprocal cells 3x 3x 3

 FEWALD executed in parallel
    FEWALD:  cpu time    0.0030: real time    0.0023


----------------------------------------- Iteration    1(   1)  ---------------------------------------


    POTLOK:  cpu time   30.4634: real time   30.5347
    SETDIJ:  cpu time    0.0060: real time    0.0064
     EDDAV:  cpu time  140.8006: real time  141.1440
       DOS:  cpu time    0.0000: real time    0.0003
    --------------------------------------------
      LOOP:  cpu time  171.2740: real time  171.6914

 eigenvalue-minimisations  :   160
 total energy-change (2. order) : 0.1157432E+03  (-0.2120032E+03)
 number of electron      16.0000000 magnetization 
 augmentation part       16.0000000 magnetization 

 Free energy of the ion-electron system (eV)
  ---------------------------------------------------
  alpha Z        PSCENC =         0.04144063
  Ewald energy   TEWEN  =       672.99543210
  -Hartree energ DENC   =     -1087.08677738
  -exchange      EXHF   =         0.00000000
  -V(xc)+E(xc)   XCENC  =        51.36319928
  PAW double counting   =       428.37890668     -430.73533574
  entropy T*S    EENTRO =        -0.17988553
  eigenvalues    EBANDS =      -115.19916951
  atomic energy  EATOM  =       596.16534815
  Solvation  Ediel_sol  =         0.00000000
  ---------------------------------------------------
  free energy    TOTEN  =       115.74315868 eV

  energy without entropy =      115.92304421  energy(sigma->0) =      115.83310144


--------------------------------------------------------------------------------------------------------




----------------------------------------- Iteration    1(   2)  ---------------------------------------


     EDDAV:  cpu time  164.0021: real time  164.4054
       DOS:  cpu time    0.0000: real time    0.0002
    --------------------------------------------
      LOOP:  cpu time  164.0041: real time  164.4097

 eigenvalue-minimisations  :   192
 total energy-change (2. order) :-0.1160553E+03  (-0.1130921E+03)
 number of electron      16.0000000 magnetization 
 augmentation part       16.0000000 magnetization 

 Free energy of the ion-electron system (eV)
  ---------------------------------------------------
  alpha Z        PSCENC =         0.04144063
  Ewald energy   TEWEN  =       672.99543210
  -Hartree energ DENC   =     -1087.08677738
  -exchange      EXHF   =         0.00000000
  -V(xc)+E(xc)   XCENC  =        51.36319928
  PAW double counting   =       428.37890668     -430.73533574
  entropy T*S    EENTRO =         0.00000000
  eigenvalues    EBANDS =      -231.43432824
  atomic energy  EATOM  =       596.16534815
  Solvation  Ediel_sol  =         0.00000000
  ---------------------------------------------------
  free energy    TOTEN  =        -0.31211453 eV

  energy without entropy =       -0.31211453  energy(sigma->0) =       -0.31211453


--------------------------------------------------------------------------------------------------------




----------------------------------------- Iteration    1(   3)  ---------------------------------------


     EDDAV:  cpu time  114.6126: real time  114.8920
       DOS:  cpu time    0.0000: real time    0.0002
    --------------------------------------------
      LOOP:  cpu time  114.6146: real time  114.8967

 eigenvalue-minimisations  :   120
 total energy-change (2. order) :-0.3671074E+02  (-0.3655940E+02)
 number of electron      16.0000000 magnetization 
 augmentation part       16.0000000 magnetization 

 Free energy of the ion-electron system (eV)
  ---------------------------------------------------
  alpha Z        PSCENC =         0.04144063
  Ewald energy   TEWEN  =       672.99543210
  -Hartree energ DENC   =     -1087.08677738
  -exchange      EXHF   =         0.00000000
  -V(xc)+E(xc)   XCENC  =        51.36319928
  PAW double counting   =       428.37890668     -430.73533574
  entropy T*S    EENTRO =         0.00000000
  eigenvalues    EBANDS =      -268.14506370
  atomic energy  EATOM  =       596.16534815
  Solvation  Ediel_sol  =         0.00000000
  ---------------------------------------------------
  free energy    TOTEN  =       -37.02284998 eV

  energy without entropy =      -37.02284998  energy(sigma->0) =      -37.02284998


--------------------------------------------------------------------------------------------------------




----------------------------------------- Iteration    1(   4)  ---------------------------------------


     EDDAV:  cpu time  117.3282: real time  117.6120
       DOS:  cpu time    0.0000: real time    0.0002
    --------------------------------------------
      LOOP:  cpu time  117.3302: real time  117.6165

 eigenvalue-minimisations  :   128
 total energy-change (2. order) :-0.3719588E+01  (-0.3701999E+01)
 number of electron      16.0000000 magnetization 
 augmentation part       16.0000000 magnetization 

 Free energy of the ion-electron system (eV)
  ---------------------------------------------------
  alpha Z        PSCENC =         0.04144063
  Ewald energy   TEWEN  =       672.99543210
  -Hartree energ DENC   =     -1087.08677738
  -exchange      EXHF   =         0.00000000
  -V(xc)+E(xc)   XCENC  =        51.36319928
  PAW double counting   =       428.37890668     -430.73533574
  entropy T*S    EENTRO =         0.00000000
  eigenvalues    EBANDS =      -271.86465124
  atomic energy  EATOM  =       596.16534815
  Solvation  Ediel_sol  =         0.00000000
  ---------------------------------------------------
  free energy    TOTEN  =       -40.74243753 eV

  energy without entropy =      -40.74243753  energy(sigma->0) =      -40.74243753


--------------------------------------------------------------------------------------------------------




----------------------------------------- Iteration    1(   5)  ---------------------------------------


     EDDAV:  cpu time  117.4621: real time  117.7462
       DOS:  cpu time    0.0000: real time    0.0002
    CHARGE:  cpu time    9.3176: real time    9.3422
    MIXING:  cpu time    0.7849: real time    0.7869
    --------------------------------------------
      LOOP:  cpu time  127.5656: real time  127.8799

 eigenvalue-minimisations  :   128
 total energy-change (2. order) :-0.8565528E-01  (-0.8287067E-01)
 number of electron      16.0000018 magnetization 
 augmentation part        0.5261637 magnetization 

 Broyden mixing:
  rms(total) = 0.10910E+01    rms(broyden)= 0.10902E+01
  rms(prec ) = 0.11341E+01
  weight for this iteration     100.00

 Free energy of the ion-electron system (eV)
  ---------------------------------------------------
  alpha Z        PSCENC =         0.04144063
  Ewald energy   TEWEN  =       672.99543210
  -Hartree energ DENC   =     -1087.08677738
  -exchange      EXHF   =         0.00000000
  -V(xc)+E(xc)   XCENC  =        51.36319928
  PAW double counting   =       428.37890668     -430.73533574
  entropy T*S    EENTRO =         0.00000000
  eigenvalues    EBANDS =      -271.95030653
  atomic energy  EATOM  =       596.16534815
  Solvation  Ediel_sol  =         0.00000000
  ---------------------------------------------------
  free energy    TOTEN  =       -40.82809281 eV

  energy without entropy =      -40.82809281  energy(sigma->0) =      -40.82809281


--------------------------------------------------------------------------------------------------------




----------------------------------------- Iteration    1(   6)  ---------------------------------------


    POTLOK:  cpu time   29.9904: real time   30.0622
    SETDIJ:  cpu time    0.0060: real time    0.0065
     EDDAV:  cpu time  102.5254: real time  102.7664
       DOS:  cpu time    0.0000: real time    0.0002
    CHARGE:  cpu time    9.4756: real time    9.4993
    MIXING:  cpu time    0.8989: real time    0.9017
    --------------------------------------------
      LOOP:  cpu time  142.8983: real time  143.2405

 eigenvalue-minimisations  :   116
 total energy-change (2. order) : 0.3282440E+01  (-0.6634076E+00)
 number of electron      16.0000018 magnetization 
 augmentation part        0.4534674 magnetization 

 Broyden mixing:
  rms(total) = 0.59368E+00    rms(broyden)= 0.59344E+00
  rms(prec ) = 0.60970E+00
  weight for this iteration     100.00

 eigenvalues of (default mixing * dielectric matrix)
  average eigenvalue GAMMA=   1.2632
  1.2632

 Free energy of the ion-electron system (eV)
  ---------------------------------------------------
  alpha Z        PSCENC =         0.04144063
  Ewald energy   TEWEN  =       672.99543210
  -Hartree energ DENC   =     -1119.00323157
  -exchange      EXHF   =         0.00000000
  -V(xc)+E(xc)   XCENC  =        53.15320496
  PAW double counting   =       731.36547571     -734.04899754
  entropy T*S    EENTRO =         0.00000000
  eigenvalues    EBANDS =      -238.21432498
  atomic energy  EATOM  =       596.16534815
  Solvation  Ediel_sol  =         0.00000000
  ---------------------------------------------------
  free energy    TOTEN  =       -37.54565255 eV

  energy without entropy =      -37.54565255  energy(sigma->0) =      -37.54565255


--------------------------------------------------------------------------------------------------------




----------------------------------------- Iteration    1(   7)  ---------------------------------------


    POTLOK:  cpu time   31.3962: real time   31.4741
    SETDIJ:  cpu time    0.0070: real time    0.0068
     EDDAV:  cpu time  116.0654: real time  116.3460
       DOS:  cpu time    0.0000: real time    0.0002
    CHARGE:  cpu time    9.3536: real time    9.3762
    MIXING:  cpu time    1.0228: real time    1.0249
    --------------------------------------------
      LOOP:  cpu time  157.8470: real time  158.2333

 eigenvalue-minimisations  :   120
 total energy-change (2. order) : 0.6619111E+00  (-0.1415497E+00)
 number of electron      16.0000018 magnetization 
 augmentation part        0.4554991 magnetization 

 Broyden mixing:
  rms(total) = 0.30006E+00    rms(broyden)= 0.30001E+00
  rms(prec ) = 0.30814E+00
  weight for this iteration     100.00

 eigenvalues of (default mixing * dielectric matrix)
  average eigenvalue GAMMA=   1.4476
  0.9079  1.9873

 Free energy of the ion-electron system (eV)
  ---------------------------------------------------
  alpha Z        PSCENC =         0.04144063
  Ewald energy   TEWEN  =       672.99543210
  -Hartree energ DENC   =     -1136.01870083
  -exchange      EXHF   =         0.00000000
  -V(xc)+E(xc)   XCENC  =        54.08421456
  PAW double counting   =      1038.15070177    -1040.94599340
  entropy T*S    EENTRO =         0.00000000
  eigenvalues    EBANDS =      -221.35618446
  atomic energy  EATOM  =       596.16534815
  Solvation  Ediel_sol  =         0.00000000
  ---------------------------------------------------
  free energy    TOTEN  =       -36.88374149 eV

  energy without entropy =      -36.88374149  energy(sigma->0) =      -36.88374149


--------------------------------------------------------------------------------------------------------




----------------------------------------- Iteration    1(   8)  ---------------------------------------


    POTLOK:  cpu time   30.9403: real time   31.0134
    SETDIJ:  cpu time    0.0060: real time    0.0067
     EDDAV:  cpu time  122.2964: real time  122.5934
       DOS:  cpu time    0.0000: real time    0.0002
    CHARGE:  cpu time    9.3676: real time    9.3909
    MIXING:  cpu time    1.0938: real time    1.0966
    --------------------------------------------
      LOOP:  cpu time  163.7061: real time  164.1066

 eigenvalue-minimisations  :   128
 total energy-change (2. order) : 0.1726947E+00  (-0.4164565E-01)
 number of electron      16.0000018 magnetization 
 augmentation part        0.4360199 magnetization 

 Broyden mixing:
  rms(total) = 0.10875E+00    rms(broyden)= 0.10871E+00
  rms(prec ) = 0.11326E+00
  weight for this iteration     100.00

 eigenvalues of (default mixing * dielectric matrix)
  average eigenvalue GAMMA=   1.4577
  2.1640  1.4574  0.7517

 Free energy of the ion-electron system (eV)
  ---------------------------------------------------
  alpha Z        PSCENC =         0.04144063
  Ewald energy   TEWEN  =       672.99543210
  -Hartree energ DENC   =     -1146.82152727
  -exchange      EXHF   =         0.00000000
  -V(xc)+E(xc)   XCENC  =        54.77583994
  PAW double counting   =      1294.50170822    -1297.35103690
  entropy T*S    EENTRO =         0.00000000
  eigenvalues    EBANDS =      -211.01825168
  atomic energy  EATOM  =       596.16534815
  Solvation  Ediel_sol  =         0.00000000
  ---------------------------------------------------
  free energy    TOTEN  =       -36.71104680 eV

  energy without entropy =      -36.71104680  energy(sigma->0) =      -36.71104680


--------------------------------------------------------------------------------------------------------




----------------------------------------- Iteration    1(   9)  ---------------------------------------


    POTLOK:  cpu time   30.7623: real time   30.8348
    SETDIJ:  cpu time    0.0070: real time    0.0067
     EDDAV:  cpu time  118.4250: real time  118.7120
       DOS:  cpu time    0.0000: real time    0.0002
    CHARGE:  cpu time    9.6115: real time    9.6364
    MIXING:  cpu time    1.2738: real time    1.2774
    --------------------------------------------
      LOOP:  cpu time  160.0817: real time  160.4731

 eigenvalue-minimisations  :   128
 total energy-change (2. order) : 0.2556214E-01  (-0.3418804E-02)
 number of electron      16.0000018 magnetization 
 augmentation part        0.4372755 magnetization 

 Broyden mixing:
  rms(total) = 0.32822E-01    rms(broyden)= 0.32810E-01
  rms(prec ) = 0.38601E-01
  weight for this iteration     100.00

 eigenvalues of (default mixing * dielectric matrix)
  average eigenvalue GAMMA=   1.4493
  2.2844  1.6719  0.8014  1.0397

 Free energy of the ion-electron system (eV)
  ---------------------------------------------------
  alpha Z        PSCENC =         0.04144063
  Ewald energy   TEWEN  =       672.99543210
  -Hartree energ DENC   =     -1148.59032604
  -exchange      EXHF   =         0.00000000
  -V(xc)+E(xc)   XCENC  =        54.87941179
  PAW double counting   =      1368.81876235    -1371.63926324
  entropy T*S    EENTRO =         0.00000000
  eigenvalues    EBANDS =      -209.35629040
  atomic energy  EATOM  =       596.16534815
  Solvation  Ediel_sol  =         0.00000000
  ---------------------------------------------------
  free energy    TOTEN  =       -36.68548466 eV

  energy without entropy =      -36.68548466  energy(sigma->0) =      -36.68548466


--------------------------------------------------------------------------------------------------------




----------------------------------------- Iteration    1(  10)  ---------------------------------------


    POTLOK:  cpu time   30.4544: real time   30.5294
    SETDIJ:  cpu time    0.0070: real time    0.0067
     EDDAV:  cpu time  122.0424: real time  122.3446
       DOS:  cpu time    0.0000: real time    0.0002
    CHARGE:  cpu time    9.2326: real time    9.2558
    MIXING:  cpu time    1.3418: real time    1.3450
    --------------------------------------------
      LOOP:  cpu time  163.0812: real time  163.4869

 eigenvalue-minimisations  :   128
 total energy-change (2. order) : 0.4383951E-02  (-0.4704956E-03)
 number of electron      16.0000018 magnetization 
 augmentation part        0.4382104 magnetization 

 Broyden mixing:
  rms(total) = 0.14561E-01    rms(broyden)= 0.14556E-01
  rms(prec ) = 0.21052E-01
  weight for this iteration     100.00

 eigenvalues of (default mixing * dielectric matrix)
  average eigenvalue GAMMA=   1.4608
  2.1767  2.1767  1.3362  0.8072  0.8072

 Free energy of the ion-electron system (eV)
  ---------------------------------------------------
  alpha Z        PSCENC =         0.04144063
  Ewald energy   TEWEN  =       672.99543210
  -Hartree energ DENC   =     -1149.81696919
  -exchange      EXHF   =         0.00000000
  -V(xc)+E(xc)   XCENC  =        54.91822837
  PAW double counting   =      1383.60801617    -1386.41684829
  entropy T*S    EENTRO =         0.00000000
  eigenvalues    EBANDS =      -208.17574864
  atomic energy  EATOM  =       596.16534815
  Solvation  Ediel_sol  =         0.00000000
  ---------------------------------------------------
  free energy    TOTEN  =       -36.68110071 eV

  energy without entropy =      -36.68110071  energy(sigma->0) =      -36.68110071


--------------------------------------------------------------------------------------------------------




----------------------------------------- Iteration    1(  11)  ---------------------------------------


    POTLOK:  cpu time   29.1346: real time   29.2090
    SETDIJ:  cpu time    0.0060: real time    0.0065
     EDDAV:  cpu time  121.0796: real time  121.3741
       DOS:  cpu time    0.0000: real time    0.0002
    CHARGE:  cpu time    9.1726: real time    9.1968
    MIXING:  cpu time    1.4948: real time    1.4982
    --------------------------------------------
      LOOP:  cpu time  160.8895: real time  161.2902

 eigenvalue-minimisations  :   128
 total energy-change (2. order) :-0.1083677E-02  (-0.1837115E-03)
 number of electron      16.0000018 magnetization 
 augmentation part        0.4378089 magnetization 

 Broyden mixing:
  rms(total) = 0.95366E-02    rms(broyden)= 0.95353E-02
  rms(prec ) = 0.14684E-01
  weight for this iteration     100.00

 eigenvalues of (default mixing * dielectric matrix)
  average eigenvalue GAMMA=   1.7295
  3.2175  2.4792  1.4947  1.4947  0.8456  0.8456

 Free energy of the ion-electron system (eV)
  ---------------------------------------------------
  alpha Z        PSCENC =         0.04144063
  Ewald energy   TEWEN  =       672.99543210
  -Hartree energ DENC   =     -1150.95439502
  -exchange      EXHF   =         0.00000000
  -V(xc)+E(xc)   XCENC  =        54.94442653
  PAW double counting   =      1380.60619338    -1383.40998507
  entropy T*S    EENTRO =         0.00000000
  eigenvalues    EBANDS =      -207.07064510
  atomic energy  EATOM  =       596.16534815
  Solvation  Ediel_sol  =         0.00000000
  ---------------------------------------------------
  free energy    TOTEN  =       -36.68218439 eV

  energy without entropy =      -36.68218439  energy(sigma->0) =      -36.68218439


--------------------------------------------------------------------------------------------------------




----------------------------------------- Iteration    1(  12)  ---------------------------------------


    POTLOK:  cpu time   30.3964: real time   30.4683
    SETDIJ:  cpu time    0.0060: real time    0.0065
     EDDAV:  cpu time  104.6031: real time  104.8579
       DOS:  cpu time    0.0000: real time    0.0002
    CHARGE:  cpu time    8.9886: real time    9.0099
    MIXING:  cpu time    1.6537: real time    1.6590
    --------------------------------------------
      LOOP:  cpu time  145.6489: real time  146.0066

 eigenvalue-minimisations  :   112
 total energy-change (2. order) :-0.6739839E-02  (-0.4971772E-03)
 number of electron      16.0000018 magnetization 
 augmentation part        0.4371473 magnetization 

 Broyden mixing:
  rms(total) = 0.49397E-02    rms(broyden)= 0.49319E-02
  rms(prec ) = 0.71865E-02
  weight for this iteration     100.00

 eigenvalues of (default mixing * dielectric matrix)
  average eigenvalue GAMMA=   1.7249
  3.7849  2.2623  1.8305  1.4105  0.8109  0.9085  1.0668

 Free energy of the ion-electron system (eV)
  ---------------------------------------------------
  alpha Z        PSCENC =         0.04144063
  Ewald energy   TEWEN  =       672.99543210
  -Hartree energ DENC   =     -1152.75357895
  -exchange      EXHF   =         0.00000000
  -V(xc)+E(xc)   XCENC  =        54.98145885
  PAW double counting   =      1373.82465146    -1376.62372490
  entropy T*S    EENTRO =         0.00000000
  eigenvalues    EBANDS =      -205.31995156
  atomic energy  EATOM  =       596.16534815
  Solvation  Ediel_sol  =         0.00000000
  ---------------------------------------------------
  free energy    TOTEN  =       -36.68892423 eV

  energy without entropy =      -36.68892423  energy(sigma->0) =      -36.68892423


--------------------------------------------------------------------------------------------------------




----------------------------------------- Iteration    1(  13)  ---------------------------------------


    POTLOK:  cpu time   31.6132: real time   31.6915
    SETDIJ:  cpu time    0.0070: real time    0.0068
     EDDAV:  cpu time  141.0736: real time  141.4169
       DOS:  cpu time    0.0000: real time    0.0002
    CHARGE:  cpu time    9.0456: real time    9.0676
    MIXING:  cpu time    1.5108: real time    1.5143
    --------------------------------------------
      LOOP:  cpu time  183.2531: real time  183.7022

 eigenvalue-minimisations  :   160
 total energy-change (2. order) :-0.4287486E-02  (-0.1190195E-03)
 number of electron      16.0000018 magnetization 
 augmentation part        0.4369787 magnetization 

 Broyden mixing:
  rms(total) = 0.35580E-02    rms(broyden)= 0.35553E-02
  rms(prec ) = 0.52159E-02
  weight for this iteration     100.00

 eigenvalues of (default mixing * dielectric matrix)
  average eigenvalue GAMMA=   1.7469
  4.3429  2.3745  1.5605  1.5605  1.5696  0.8740  0.8740  0.8191

 Free energy of the ion-electron system (eV)
  ---------------------------------------------------
  alpha Z        PSCENC =         0.04144063
  Ewald energy   TEWEN  =       672.99543210
  -Hartree energ DENC   =     -1153.15535029
  -exchange      EXHF   =         0.00000000
  -V(xc)+E(xc)   XCENC  =        54.98610083
  PAW double counting   =      1374.91552400    -1377.71538485
  entropy T*S    EENTRO =         0.00000000
  eigenvalues    EBANDS =      -204.92632227
  atomic energy  EATOM  =       596.16534815
  Solvation  Ediel_sol  =         0.00000000
  ---------------------------------------------------
  free energy    TOTEN  =       -36.69321171 eV

  energy without entropy =      -36.69321171  energy(sigma->0) =      -36.69321171


--------------------------------------------------------------------------------------------------------




----------------------------------------- Iteration    1(  14)  ---------------------------------------


    POTLOK:  cpu time   31.2942: real time   31.3696
    SETDIJ:  cpu time    0.0060: real time    0.0067
     EDDAV:  cpu time  116.6093: real time  116.8915
       DOS:  cpu time    0.0000: real time    0.0002
    CHARGE:  cpu time    9.0796: real time    9.1037
    MIXING:  cpu time    1.7197: real time    1.7222
    --------------------------------------------
      LOOP:  cpu time  158.7109: real time  159.0985

 eigenvalue-minimisations  :   128
 total energy-change (2. order) :-0.4254986E-02  (-0.5526304E-04)
 number of electron      16.0000018 magnetization 
 augmentation part        0.4371025 magnetization 

 Broyden mixing:
  rms(total) = 0.24055E-02    rms(broyden)= 0.24051E-02
  rms(prec ) = 0.34255E-02
  weight for this iteration     100.00

 eigenvalues of (default mixing * dielectric matrix)
  average eigenvalue GAMMA=   1.8809
  5.2277  2.8520  2.3301  1.5106  1.4349  0.8411  0.8411  0.9453  0.9453

 Free energy of the ion-electron system (eV)
  ---------------------------------------------------
  alpha Z        PSCENC =         0.04144063
  Ewald energy   TEWEN  =       672.99543210
  -Hartree energ DENC   =     -1153.31627169
  -exchange      EXHF   =         0.00000000
  -V(xc)+E(xc)   XCENC  =        54.97778355
  PAW double counting   =      1373.00472254    -1375.80431705
  entropy T*S    EENTRO =         0.00000000
  eigenvalues    EBANDS =      -204.76160492
  atomic energy  EATOM  =       596.16534815
  Solvation  Ediel_sol  =         0.00000000
  ---------------------------------------------------
  free energy    TOTEN  =       -36.69746670 eV

  energy without entropy =      -36.69746670  energy(sigma->0) =      -36.69746670


--------------------------------------------------------------------------------------------------------




----------------------------------------- Iteration    1(  15)  ---------------------------------------


    POTLOK:  cpu time   31.0563: real time   31.1310
    SETDIJ:  cpu time    0.0070: real time    0.0068
     EDDAV:  cpu time  118.3050: real time  118.5925
       DOS:  cpu time    0.0000: real time    0.0002
    CHARGE:  cpu time    8.9826: real time    9.0042
    MIXING:  cpu time    1.8587: real time    1.8624
    --------------------------------------------
      LOOP:  cpu time  160.2116: real time  160.6019

 eigenvalue-minimisations  :   128
 total energy-change (2. order) :-0.3098336E-02  (-0.3021657E-04)
 number of electron      16.0000018 magnetization 
 augmentation part        0.4370423 magnetization 

 Broyden mixing:
  rms(total) = 0.14950E-02    rms(broyden)= 0.14948E-02
  rms(prec ) = 0.20784E-02
  weight for this iteration     100.00

 eigenvalues of (default mixing * dielectric matrix)
  average eigenvalue GAMMA=   1.9892
  6.1353  3.1740  2.2947  1.6278  1.5159  1.5159  0.8363  0.8585  0.9670  0.9670

 Free energy of the ion-electron system (eV)
  ---------------------------------------------------
  alpha Z        PSCENC =         0.04144063
  Ewald energy   TEWEN  =       672.99543210
  -Hartree energ DENC   =     -1153.42502321
  -exchange      EXHF   =         0.00000000
  -V(xc)+E(xc)   XCENC  =        54.97344468
  PAW double counting   =      1372.91687904    -1375.71716643
  entropy T*S    EENTRO =         0.00000000
  eigenvalues    EBANDS =      -204.65091999
  atomic energy  EATOM  =       596.16534815
  Solvation  Ediel_sol  =         0.00000000
  ---------------------------------------------------
  free energy    TOTEN  =       -36.70056503 eV

  energy without entropy =      -36.70056503  energy(sigma->0) =      -36.70056503


--------------------------------------------------------------------------------------------------------




----------------------------------------- Iteration    1(  16)  ---------------------------------------


    POTLOK:  cpu time   30.9973: real time   31.0714
    SETDIJ:  cpu time    0.0060: real time    0.0065
     EDDAV:  cpu time  115.9074: real time  116.2428
       DOS:  cpu time    0.0000: real time    0.0002
    CHARGE:  cpu time    8.6597: real time    8.6807
    MIXING:  cpu time    2.1807: real time    2.1861
    --------------------------------------------
      LOOP:  cpu time  157.7520: real time  158.1938

 eigenvalue-minimisations  :   128
 total energy-change (2. order) :-0.2217991E-02  (-0.2580982E-04)
 number of electron      16.0000018 magnetization 
 augmentation part        0.4369231 magnetization 

 Broyden mixing:
  rms(total) = 0.10586E-02    rms(broyden)= 0.10576E-02
  rms(prec ) = 0.13137E-02
  weight for this iteration     100.00

 eigenvalues of (default mixing * dielectric matrix)
  average eigenvalue GAMMA=   2.1173
  7.2106  3.6847  2.4308  2.2724  1.4714  1.3018  1.3018  0.8289  0.8630  0.9623
  0.9623

 Free energy of the ion-electron system (eV)
  ---------------------------------------------------
  alpha Z        PSCENC =         0.04144063
  Ewald energy   TEWEN  =       672.99543210
  -Hartree energ DENC   =     -1153.48437574
  -exchange      EXHF   =         0.00000000
  -V(xc)+E(xc)   XCENC  =        54.97064760
  PAW double counting   =      1373.17589469    -1375.97609549
  entropy T*S    EENTRO =         0.00000000
  eigenvalues    EBANDS =      -204.59107497
  atomic energy  EATOM  =       596.16534815
  Solvation  Ediel_sol  =         0.00000000
  ---------------------------------------------------
  free energy    TOTEN  =       -36.70278303 eV

  energy without entropy =      -36.70278303  energy(sigma->0) =      -36.70278303


--------------------------------------------------------------------------------------------------------




----------------------------------------- Iteration    1(  17)  ---------------------------------------


    POTLOK:  cpu time   25.2782: real time   25.3381
    SETDIJ:  cpu time    0.0070: real time    0.0069
     EDDAV:  cpu time   96.3983: real time   96.6286
       DOS:  cpu time    0.0000: real time    0.0002
    CHARGE:  cpu time    7.4279: real time    7.4450
    MIXING:  cpu time    1.9097: real time    1.9156
    --------------------------------------------
      LOOP:  cpu time  131.0241: real time  131.3389

 eigenvalue-minimisations  :    96
 total energy-change (2. order) :-0.9445657E-03  (-0.4621116E-05)
 number of electron      16.0000018 magnetization 
 augmentation part        0.4369717 magnetization 

 Broyden mixing:
  rms(total) = 0.39624E-03    rms(broyden)= 0.39616E-03
  rms(prec ) = 0.56740E-03
  weight for this iteration     100.00

 eigenvalues of (default mixing * dielectric matrix)
  average eigenvalue GAMMA=   2.1609
  7.7893  4.0601  2.5715  1.9899  1.9899  1.3433  1.3433  0.8254  0.8771  0.9862
  1.0775  1.0775

 Free energy of the ion-electron system (eV)
  ---------------------------------------------------
  alpha Z        PSCENC =         0.04144063
  Ewald energy   TEWEN  =       672.99543210
  -Hartree energ DENC   =     -1153.48456365
  -exchange      EXHF   =         0.00000000
  -V(xc)+E(xc)   XCENC  =        54.96808528
  PAW double counting   =      1373.62456731    -1376.42443580
  entropy T*S    EENTRO =         0.00000000
  eigenvalues    EBANDS =      -204.58960161
  atomic energy  EATOM  =       596.16534815
  Solvation  Ediel_sol  =         0.00000000
  ---------------------------------------------------
  free energy    TOTEN  =       -36.70372759 eV

  energy without entropy =      -36.70372759  energy(sigma->0) =      -36.70372759


--------------------------------------------------------------------------------------------------------




----------------------------------------- Iteration    1(  18)  ---------------------------------------


    POTLOK:  cpu time   28.5347: real time   28.6028
    SETDIJ:  cpu time    0.0060: real time    0.0067
     EDDAV:  cpu time   86.3659: real time   86.5706
       DOS:  cpu time    0.0000: real time    0.0002
    CHARGE:  cpu time    8.7457: real time    8.7674
    MIXING:  cpu time    2.4356: real time    2.4409
    --------------------------------------------
      LOOP:  cpu time  126.0908: real time  126.3929

 eigenvalue-minimisations  :    88
 total energy-change (2. order) :-0.4621369E-03  (-0.2718713E-05)
 number of electron      16.0000018 magnetization 
 augmentation part        0.4369590 magnetization 

 Broyden mixing:
  rms(total) = 0.28646E-03    rms(broyden)= 0.28641E-03
  rms(prec ) = 0.37538E-03
  weight for this iteration     100.00

 eigenvalues of (default mixing * dielectric matrix)
  average eigenvalue GAMMA=   2.2651
  8.3032  4.7929  2.9090  2.5838  2.0690  1.5463  1.3083  1.3083  0.8242  0.8912
  0.9265  0.9916  0.9916

 Free energy of the ion-electron system (eV)
  ---------------------------------------------------
  alpha Z        PSCENC =         0.04144063
  Ewald energy   TEWEN  =       672.99543210
  -Hartree energ DENC   =     -1153.48820073
  -exchange      EXHF   =         0.00000000
  -V(xc)+E(xc)   XCENC  =        54.96766248
  PAW double counting   =      1373.59479590    -1376.39477215
  entropy T*S    EENTRO =         0.00000000
  eigenvalues    EBANDS =      -204.58589611
  atomic energy  EATOM  =       596.16534815
  Solvation  Ediel_sol  =         0.00000000
  ---------------------------------------------------
  free energy    TOTEN  =       -36.70418973 eV

  energy without entropy =      -36.70418973  energy(sigma->0) =      -36.70418973


--------------------------------------------------------------------------------------------------------




----------------------------------------- Iteration    1(  19)  ---------------------------------------


    POTLOK:  cpu time   30.2074: real time   30.2810
    SETDIJ:  cpu time    0.0070: real time    0.0067
     EDDAV:  cpu time   65.7440: real time   65.8935
       DOS:  cpu time    0.0000: real time    0.0002
    CHARGE:  cpu time    7.2499: real time    7.2663
    MIXING:  cpu time    2.3027: real time    2.3088
    --------------------------------------------
      LOOP:  cpu time  105.5140: real time  105.7612

 eigenvalue-minimisations  :    68
 total energy-change (2. order) :-0.2709133E-03  (-0.1299303E-05)
 number of electron      16.0000018 magnetization 
 augmentation part        0.4369529 magnetization 

 Broyden mixing:
  rms(total) = 0.16346E-03    rms(broyden)= 0.16334E-03
  rms(prec ) = 0.20314E-03
  weight for this iteration     100.00

 eigenvalues of (default mixing * dielectric matrix)
  average eigenvalue GAMMA=   2.2879
  8.5626  5.1482  3.2205  2.3266  2.2384  1.9549  1.3995  1.2732  1.2732  1.0018
  1.0018  0.8255  0.8814  0.9228

 Free energy of the ion-electron system (eV)
  ---------------------------------------------------
  alpha Z        PSCENC =         0.04144063
  Ewald energy   TEWEN  =       672.99543210
  -Hartree energ DENC   =     -1153.48247704
  -exchange      EXHF   =         0.00000000
  -V(xc)+E(xc)   XCENC  =        54.96704191
  PAW double counting   =      1373.35220444    -1376.15213209
  entropy T*S    EENTRO =         0.00000000
  eigenvalues    EBANDS =      -204.59131874
  atomic energy  EATOM  =       596.16534815
  Solvation  Ediel_sol  =         0.00000000
  ---------------------------------------------------
  free energy    TOTEN  =       -36.70446064 eV

  energy without entropy =      -36.70446064  energy(sigma->0) =      -36.70446064


--------------------------------------------------------------------------------------------------------




----------------------------------------- Iteration    1(  20)  ---------------------------------------


    POTLOK:  cpu time   30.6733: real time   30.7470
    SETDIJ:  cpu time    0.0070: real time    0.0066
     EDDAV:  cpu time   95.2045: real time   95.4293
       DOS:  cpu time    0.0000: real time    0.0002
    CHARGE:  cpu time    8.2437: real time    8.2636
    MIXING:  cpu time    2.4366: real time    2.4420
    --------------------------------------------
      LOOP:  cpu time  136.5672: real time  136.8933

 eigenvalue-minimisations  :    96
 total energy-change (2. order) :-0.1049896E-03  (-0.3273168E-06)
 number of electron      16.0000018 magnetization 
 augmentation part        0.4369551 magnetization 

 Broyden mixing:
  rms(total) = 0.14335E-03    rms(broyden)= 0.14334E-03
  rms(prec ) = 0.16156E-03
  weight for this iteration     100.00

 eigenvalues of (default mixing * dielectric matrix)
  average eigenvalue GAMMA=   2.3296
  8.7277  5.7248  3.4353  2.5846  2.5846  2.0632  1.5906  1.3061  1.3061  1.0167
  1.0167  0.8259  0.8725  0.9442  0.9442

 Free energy of the ion-electron system (eV)
  ---------------------------------------------------
  alpha Z        PSCENC =         0.04144063
  Ewald energy   TEWEN  =       672.99543210
  -Hartree energ DENC   =     -1153.48573110
  -exchange      EXHF   =         0.00000000
  -V(xc)+E(xc)   XCENC  =        54.96699094
  PAW double counting   =      1373.40074006    -1376.20066349
  entropy T*S    EENTRO =         0.00000000
  eigenvalues    EBANDS =      -204.58812292
  atomic energy  EATOM  =       596.16534815
  Solvation  Ediel_sol  =         0.00000000
  ---------------------------------------------------
  free energy    TOTEN  =       -36.70456563 eV

  energy without entropy =      -36.70456563  energy(sigma->0) =      -36.70456563


--------------------------------------------------------------------------------------------------------




----------------------------------------- Iteration    1(  21)  ---------------------------------------


    POTLOK:  cpu time   28.0467: real time   28.1103
    SETDIJ:  cpu time    0.0060: real time    0.0066
     EDDAV:  cpu time   64.4592: real time   64.6064
       DOS:  cpu time    0.0000: real time    0.0002
    --------------------------------------------
      LOOP:  cpu time   92.5149: real time   92.7279

 eigenvalue-minimisations  :    64
 total energy-change (2. order) :-0.4884838E-04  (-0.1315611E-06)
 number of electron      16.0000018 magnetization 
 augmentation part        0.4369551 magnetization 

 Free energy of the ion-electron system (eV)
  ---------------------------------------------------
  alpha Z        PSCENC =         0.04144063
  Ewald energy   TEWEN  =       672.99543210
  -Hartree energ DENC   =     -1153.48662565
  -exchange      EXHF   =         0.00000000
  -V(xc)+E(xc)   XCENC  =        54.96689013
  PAW double counting   =      1373.40206135    -1376.20202236
  entropy T*S    EENTRO =         0.00000000
  eigenvalues    EBANDS =      -204.58713883
  atomic energy  EATOM  =       596.16534815
  Solvation  Ediel_sol  =         0.00000000
  ---------------------------------------------------
  free energy    TOTEN  =       -36.70461448 eV

  energy without entropy =      -36.70461448  energy(sigma->0) =      -36.70461448


--------------------------------------------------------------------------------------------------------




 average (electrostatic) potential at core
  the test charge radii are     0.5201  0.6991  0.7089
  (the norm of the test charge is              1.0000)
       1 -43.1705       2 -43.1690       3 -43.1702       4 -60.0787       5 -60.0737
       6 -73.2261
 
 
 
 E-fermi :  -7.1115     XC(G=0):  -0.0874     alpha+bet : -0.0137


 k-point     1 :       0.2500    0.2500    0.2500
  band No.  band energies     occupation 
      1     -22.5224      2.00000
      2     -19.3787      2.00000
      3     -12.8325      2.00000
      4     -11.4706      2.00000
      5     -11.4690      2.00000
      6      -8.4947      2.00000
      7      -8.0631      2.00000
      8      -8.0625      2.00000
      9      -0.8366      0.00000
     10      -0.4720      0.00000
     11      -0.4718      0.00000
     12      -0.0088      0.00000

 k-point     2 :      -0.2500    0.2500    0.2500
  band No.  band energies     occupation 
      1     -22.5224      2.00000
      2     -19.3787      2.00000
      3     -12.8326      2.00000
      4     -11.4706      2.00000
      5     -11.4690      2.00000
      6      -8.4946      2.00000
      7      -8.0631      2.00000
      8      -8.0625      2.00000
      9      -0.8366      0.00000
     10      -0.4720      0.00000
     11      -0.4718      0.00000
     12      -0.0090      0.00000

 k-point     3 :       0.2500   -0.2500    0.2500
  band No.  band energies     occupation 
      1     -22.5224      2.00000
      2     -19.3787      2.00000
      3     -12.8326      2.00000
      4     -11.4706      2.00000
      5     -11.4690      2.00000
      6      -8.4946      2.00000
      7      -8.0631      2.00000
      8      -8.0625      2.00000
      9      -0.8366      0.00000
     10      -0.4720      0.00000
     11      -0.4718      0.00000
     12      -0.0090      0.00000

 k-point     4 :      -0.2500   -0.2500    0.2500
  band No.  band energies     occupation 
      1     -22.5224      2.00000
      2     -19.3787      2.00000
      3     -12.8326      2.00000
      4     -11.4706      2.00000
      5     -11.4690      2.00000
      6      -8.4946      2.00000
      7      -8.0631      2.00000
      8      -8.0626      2.00000
      9      -0.8366      0.00000
     10      -0.4720      0.00000
     11      -0.4718      0.00000
     12      -0.0091      0.00000


--------------------------------------------------------------------------------------------------------


 soft charge-density along one line, spin component           1
         0         1         2         3         4         5         6         7         8         9
 total charge-density along one line
 
 pseudopotential strength for first ion, spin component:           1
 -2.364  -4.078  -0.002   0.000  -0.001
 -4.078  -6.948  -0.005   0.001  -0.002
 -0.002  -0.005  -0.329  -0.001   0.001
  0.000   0.001  -0.001  -0.334   0.000
 -0.001  -0.002   0.001   0.000  -0.333
 total augmentation occupancy for first ion, spin component:           1
  3.480  -0.627   0.413  -0.069   0.126
 -0.627   0.129  -0.076   0.013  -0.023
  0.413  -0.076   0.050  -0.007   0.013
 -0.069   0.013  -0.007   0.010  -0.002
  0.126  -0.023   0.013  -0.002   0.011


------------------------ aborting loop because EDIFF is reached ----------------------------------------


    CHARGE:  cpu time    8.2607: real time    8.2806
    FORLOC:  cpu time    2.6496: real time    2.6547
    FORNL :  cpu time   22.7995: real time   22.8516
    STRESS:  cpu time   54.3867: real time   54.4969
    FORCOR:  cpu time   18.9651: real time   19.0009
    FORHAR:  cpu time    6.4660: real time    6.4782
    MIXING:  cpu time    1.3128: real time    1.3159
    OFIELD:  cpu time    0.0000: real time    0.0000

  FORCE on cell =-STRESS in cart. coord.  units (eV):
  Direction    XX          YY          ZZ          XY          YZ          ZX
  --------------------------------------------------------------------------------------
  Alpha Z     0.04144     0.04144     0.04144
  Ewald     588.68603    41.02345    43.28571    50.31150     5.63961    61.40882
  Hartree   581.08592   285.58390   286.81787    27.04752     3.02916    33.06472
  E(xc)     -58.98825   -60.31146   -60.30615     0.12209     0.01370     0.14860
  Local   -1312.88100  -499.21654  -502.59738   -74.63649    -8.36115   -91.16940
  n-local   -28.16544   -24.82174   -24.83526    -0.30953    -0.03426    -0.37355
  augment     0.40964     0.39367     0.39492     0.00150     0.00006     0.00230
  Kinetic   228.85439   256.36706   256.25792    -2.53791    -0.28884    -3.08091
  Fock        0.00000     0.00000     0.00000     0.00000     0.00000     0.00000
  -------------------------------------------------------------------------------------
  Total      -0.95727    -0.94021    -0.94093    -0.00133    -0.00172     0.00059
  in kB      -0.05680    -0.05579    -0.05583    -0.00008    -0.00010     0.00004
  external pressure =       -0.06 kB  Pullay stress =        0.00 kB


 VOLUME and BASIS-vectors are now :
 -----------------------------------------------------------------------------
  energy-cutoff  :      400.00
  volume of cell :    27000.00
      direct lattice vectors                 reciprocal lattice vectors
    30.000000000  0.000000000  0.000000000     0.033333333  0.000000000  0.000000000
     0.000000000 30.000000000  0.000000000     0.000000000  0.033333333  0.000000000
     0.000000000  0.000000000 30.000000000     0.000000000  0.000000000  0.033333333

  length of vectors
    30.000000000 30.000000000 30.000000000     0.033333333  0.033333333  0.033333333


 FORCES acting on ions
    electron-ion (+dipol)            ewald-force                    non-local-force                 convergence-correction
 -----------------------------------------------------------------------------------------------
   0.286E+02 0.575E+02 -.813E+01   -.302E+02 -.628E+02 0.901E+01   0.161E+01 0.528E+01 -.880E+00   0.822E-04 0.944E-04 -.210E-05
   0.279E+02 -.146E+02 0.566E+02   -.294E+02 0.161E+02 -.618E+02   0.155E+01 -.146E+01 0.517E+01   0.768E-04 -.191E-04 0.922E-04
   0.403E+02 -.341E+02 -.375E+02   -.430E+02 0.374E+02 0.412E+02   0.271E+01 -.329E+01 -.363E+01   0.994E-04 -.532E-04 -.496E-04
   0.958E+02 0.875E+01 0.107E+02   -.100E+03 -.915E+01 -.112E+02   0.445E+01 0.407E+00 0.500E+00   0.455E-03 0.214E-04 0.113E-03
   0.657E+02 0.603E+01 0.711E+01   -.678E+02 -.622E+01 -.733E+01   0.211E+01 0.193E+00 0.228E+00   -.123E-02 -.118E-03 -.115E-03
   -.231E+03 -.211E+02 -.257E+02   0.271E+03 0.248E+02 0.301E+02   -.401E+02 -.367E+01 -.446E+01   -.362E-03 -.305E-04 -.197E-04
 -----------------------------------------------------------------------------------------------
   0.277E+02 0.254E+01 0.307E+01   0.000E+00 -.355E-14 0.000E+00   -.277E+02 -.254E+01 -.307E+01   -.879E-03 -.105E-03 0.189E-04
 
 
 POSITION                                       TOTAL-FORCE (eV/Angst)
 -----------------------------------------------------------------------------------
     14.20672     13.91586     15.12008         0.000273      0.000097      0.000708
     14.22006     15.24468     13.92756        -0.001305      0.000215      0.000826
     13.99135     15.60392     15.66188         0.000429     -0.000376      0.000945
     14.51674     14.95604     14.94596        -0.003784     -0.000120      0.000234
     15.95494     15.08743     15.10754         0.025854      0.002523      0.002515
     17.10989     15.19310     15.23582        -0.021467     -0.002338     -0.005227
 -----------------------------------------------------------------------------------
    total drift:                               -0.000876      0.002944      0.002156


--------------------------------------------------------------------------------------------------------



  FREE ENERGIE OF THE ION-ELECTRON SYSTEM (eV)
  ---------------------------------------------------
  free  energy   TOTEN  =       -36.70461448 eV

  energy  without entropy=      -36.70461448  energy(sigma->0) =      -36.70461448
 


--------------------------------------------------------------------------------------------------------


    POTLOK:  cpu time   15.9176: real time   15.9475


--------------------------------------------------------------------------------------------------------


 NEB: the previous image is higher in energy: T
 NEB: the next image is higher in energy    : F
 NEB: only prev energy greater

 NEB: Tangent
 ----------------------------------------------
      0.16866      0.06619      0.00823
      0.24569     -0.00589      0.00600
     -0.57606      0.02974     -0.06782
     -0.02418      0.15953      0.15048
     -0.02927      0.20507      0.28689
      0.21125     -0.44922     -0.38602

 NEB: forces: par spring, perp REAL, dneb     0.008825    0.034515    0.000000
 NEB: distance to prev, next image, angle between     0.251250    0.253015   97.275046
 NEB: projections on to tangent (spring, REAL)     0.008825   -0.001458

 stress matrix after NEB project (eV)
     -0.95727     -0.00133      0.00059
     -0.00133     -0.94021     -0.00172
      0.00059     -0.00172     -0.94093
  FORCES: max atom, RMS     0.026538    0.014544
  FORCE total and by dimension    0.035625    0.025553
  Stress total and by dimension    1.638820    0.957272
 
 OPT: Flag T
 OPT: FIRE Step
 OPT: FIRE, TIMESTEP      0.10000
 OPT: FIRE, alpha         0.10000


--------------------------------------------------------------------------------------------------------


    WAVPRE:  cpu time    8.3067: real time    9.0152
 FEWALD executed in parallel
    FEWALD:  cpu time    0.0010: real time    0.0004
    ORTHCH:  cpu time    6.4290: real time    7.1626
     LOOP+:  cpu time 3186.0916: real time 3195.2806


----------------------------------------- Iteration    2(   1)  ---------------------------------------


    POTLOK:  cpu time   21.2158: real time   21.2604
    SETDIJ:  cpu time    0.0060: real time    0.0064
     EDDAV:  cpu time   84.9951: real time   85.1728
       DOS:  cpu time    0.0000: real time    0.0002
    CHARGE:  cpu time    6.5350: real time    6.5490
    MIXING:  cpu time    0.6519: real time    0.6533
    --------------------------------------------
      LOOP:  cpu time  113.4068: real time  113.6456

 eigenvalue-minimisations  :   124
 total energy-change (2. order) :-0.7285377E-04  (-0.5297209E-04)
 number of electron      16.0000018 magnetization 
 augmentation part        0.4371598 magnetization 

 Broyden mixing:
  rms(total) = 0.11052E-02    rms(broyden)= 0.11035E-02
  rms(prec ) = 0.11331E-02
  weight for this iteration     100.00

 Free energy of the ion-electron system (eV)
  ---------------------------------------------------
  alpha Z        PSCENC =         0.04144063
  Ewald energy   TEWEN  =       673.06597361
  -Hartree energ DENC   =     -1153.52605919
  -exchange      EXHF   =         0.00000000
  -V(xc)+E(xc)   XCENC  =        54.96805878
  PAW double counting   =      1373.37827787    -1376.17823720
  entropy T*S    EENTRO =         0.00000000
  eigenvalues    EBANDS =      -204.61944114
  atomic energy  EATOM  =       596.16534815
  Solvation  Ediel_sol  =         0.00000000
  ---------------------------------------------------
  free energy    TOTEN  =       -36.70463849 eV

  energy without entropy =      -36.70463849  energy(sigma->0) =      -36.70463849


--------------------------------------------------------------------------------------------------------




----------------------------------------- Iteration    2(   2)  ---------------------------------------


    POTLOK:  cpu time   21.9597: real time   22.0055
    SETDIJ:  cpu time    0.0070: real time    0.0070
     EDDAV:  cpu time   68.3456: real time   68.4921
       DOS:  cpu time    0.0000: real time    0.0002
    CHARGE:  cpu time    6.8640: real time    6.8796
    MIXING:  cpu time    0.6719: real time    0.6726
    --------------------------------------------
      LOOP:  cpu time   97.8491: real time   98.0608

 eigenvalue-minimisations  :    96
 total energy-change (2. order) :-0.3742590E-05  (-0.8959392E-06)
 number of electron      16.0000018 magnetization 
 augmentation part        0.4371263 magnetization 

 Broyden mixing:
  rms(total) = 0.53760E-03    rms(broyden)= 0.53707E-03
  rms(prec ) = 0.55013E-03
  weight for this iteration     100.00

 eigenvalues of (default mixing * dielectric matrix)
  average eigenvalue GAMMA=   1.2879
  1.2879

 Free energy of the ion-electron system (eV)
  ---------------------------------------------------
  alpha Z        PSCENC =         0.04144063
  Ewald energy   TEWEN  =       673.06597361
  -Hartree energ DENC   =     -1153.54048693
  -exchange      EXHF   =         0.00000000
  -V(xc)+E(xc)   XCENC  =        54.96897281
  PAW double counting   =      1373.61937598    -1376.41959719
  entropy T*S    EENTRO =         0.00000000
  eigenvalues    EBANDS =      -204.60566929
  atomic energy  EATOM  =       596.16534815
  Solvation  Ediel_sol  =         0.00000000
  ---------------------------------------------------
  free energy    TOTEN  =       -36.70464223 eV

  energy without entropy =      -36.70464223  energy(sigma->0) =      -36.70464223


--------------------------------------------------------------------------------------------------------




----------------------------------------- Iteration    2(   3)  ---------------------------------------


    POTLOK:  cpu time   23.6714: real time   23.7231
[...]
  Solvation  Ediel_sol  =         0.00000000
  ---------------------------------------------------
  free energy    TOTEN  =       -36.70449094 eV

  energy without entropy =      -36.70449094  energy(sigma->0) =      -36.70449094


--------------------------------------------------------------------------------------------------------




----------------------------------------- Iteration   74(   2)  ---------------------------------------


    POTLOK:  cpu time   24.0573: real time   24.1173
    SETDIJ:  cpu time    0.0070: real time    0.0064
     EDDAV:  cpu time   37.3313: real time   37.4325
       DOS:  cpu time    0.0000: real time    0.0002
    CHARGE:  cpu time    5.1392: real time    5.1515
    MIXING:  cpu time    0.6379: real time    0.6389
    --------------------------------------------
      LOOP:  cpu time   67.1748: real time   67.3510

 eigenvalue-minimisations  :    48
 total energy-change (2. order) :-0.1576675E-06  (-0.1869758E-06)
 number of electron      16.0000015 magnetization 
 augmentation part        0.4369989 magnetization 

 Broyden mixing:
  rms(total) = 0.80949E-04    rms(broyden)= 0.80850E-04
  rms(prec ) = 0.81978E-04
  weight for this iteration     100.00

 eigenvalues of (default mixing * dielectric matrix)
  average eigenvalue GAMMA=   1.3282
  1.3282

 Free energy of the ion-electron system (eV)
  ---------------------------------------------------
  alpha Z        PSCENC =         0.04144063
  Ewald energy   TEWEN  =       672.97934263
  -Hartree energ DENC   =     -1153.47121459
  -exchange      EXHF   =         0.00000000
  -V(xc)+E(xc)   XCENC  =        54.96695087
  PAW double counting   =      1373.46080122    -1376.26088904
  entropy T*S    EENTRO =         0.00000000
  eigenvalues    EBANDS =      -204.58627097
  atomic energy  EATOM  =       596.16534815
  Solvation  Ediel_sol  =         0.00000000
  ---------------------------------------------------
  free energy    TOTEN  =       -36.70449109 eV

  energy without entropy =      -36.70449109  energy(sigma->0) =      -36.70449109


--------------------------------------------------------------------------------------------------------




----------------------------------------- Iteration   74(   3)  ---------------------------------------


    POTLOK:  cpu time   22.6626: real time   22.7141
    SETDIJ:  cpu time    0.0060: real time    0.0063
     EDDAV:  cpu time   36.1845: real time   36.2755
       DOS:  cpu time    0.0000: real time    0.0002
    CHARGE:  cpu time    4.9123: real time    4.9250
    MIXING:  cpu time    0.7049: real time    0.7065
    --------------------------------------------
      LOOP:  cpu time   64.4712: real time   64.6315

 eigenvalue-minimisations  :    48
 total energy-change (2. order) :-0.2705588E-07  (-0.2149512E-07)
 number of electron      16.0000015 magnetization 
 augmentation part        0.4369988 magnetization 

 Broyden mixing:
  rms(total) = 0.38970E-04    rms(broyden)= 0.38953E-04
  rms(prec ) = 0.39816E-04
  weight for this iteration     100.00

 eigenvalues of (default mixing * dielectric matrix)
  average eigenvalue GAMMA=   1.6343
  1.0127  2.2559

 Free energy of the ion-electron system (eV)
  ---------------------------------------------------
  alpha Z        PSCENC =         0.04144063
  Ewald energy   TEWEN  =       672.97934263
  -Hartree energ DENC   =     -1153.47122716
  -exchange      EXHF   =         0.00000000
  -V(xc)+E(xc)   XCENC  =        54.96695212
  PAW double counting   =      1373.46125192    -1376.26134053
  entropy T*S    EENTRO =         0.00000000
  eigenvalues    EBANDS =      -204.58625888
  atomic energy  EATOM  =       596.16534815
  Solvation  Ediel_sol  =         0.00000000
  ---------------------------------------------------
  free energy    TOTEN  =       -36.70449112 eV

  energy without entropy =      -36.70449112  energy(sigma->0) =      -36.70449112


--------------------------------------------------------------------------------------------------------




----------------------------------------- Iteration   74(   4)  ---------------------------------------


    POTLOK:  cpu time   22.8105: real time   22.8687
    SETDIJ:  cpu time    0.0060: real time    0.0063
     EDDAV:  cpu time   35.5136: real time   35.5994
       DOS:  cpu time    0.0000: real time    0.0002
    CHARGE:  cpu time    5.1182: real time    5.1284
    MIXING:  cpu time    0.6699: real time    0.6703
    --------------------------------------------
      LOOP:  cpu time   64.1193: real time   64.2771

 eigenvalue-minimisations  :    48
 total energy-change (2. order) :-0.5591346E-08  (-0.6093492E-08)
 number of electron      16.0000015 magnetization 
 augmentation part        0.4369988 magnetization 

 Broyden mixing:
  rms(total) = 0.79936E-05    rms(broyden)= 0.79730E-05
  rms(prec ) = 0.83118E-05
  weight for this iteration     100.00

 eigenvalues of (default mixing * dielectric matrix)
  average eigenvalue GAMMA=   1.4593
  2.1365  0.8983  1.3431

 Free energy of the ion-electron system (eV)
  ---------------------------------------------------
  alpha Z        PSCENC =         0.04144063
  Ewald energy   TEWEN  =       672.97934263
  -Hartree energ DENC   =     -1153.47123946
  -exchange      EXHF   =         0.00000000
  -V(xc)+E(xc)   XCENC  =        54.96695249
  PAW double counting   =      1373.46191892    -1376.26200800
  entropy T*S    EENTRO =         0.00000000
  eigenvalues    EBANDS =      -204.58624648
  atomic energy  EATOM  =       596.16534815
  Solvation  Ediel_sol  =         0.00000000
  ---------------------------------------------------
  free energy    TOTEN  =       -36.70449113 eV

  energy without entropy =      -36.70449113  energy(sigma->0) =      -36.70449113


--------------------------------------------------------------------------------------------------------




----------------------------------------- Iteration   74(   5)  ---------------------------------------


    POTLOK:  cpu time   24.5223: real time   24.5709
    SETDIJ:  cpu time    0.0060: real time    0.0063
     EDDAV:  cpu time   35.0957: real time   35.1641
       DOS:  cpu time    0.0000: real time    0.0002
    CHARGE:  cpu time    5.1882: real time    5.1977
    MIXING:  cpu time    0.9958: real time    0.9983
    --------------------------------------------
      LOOP:  cpu time   65.8080: real time   65.9412

 eigenvalue-minimisations  :    48
 total energy-change (2. order) :-0.7785275E-09  (-0.2784525E-08)
 number of electron      16.0000015 magnetization 
 augmentation part        0.4369988 magnetization 

 Broyden mixing:
  rms(total) = 0.73283E-05    rms(broyden)= 0.73204E-05
  rms(prec ) = 0.76491E-05
  weight for this iteration     100.00

 eigenvalues of (default mixing * dielectric matrix)
  average eigenvalue GAMMA=   1.4073
  1.9765  1.9765  1.0093  0.6668

 Free energy of the ion-electron system (eV)
  ---------------------------------------------------
  alpha Z        PSCENC =         0.04144063
  Ewald energy   TEWEN  =       672.97934263
  -Hartree energ DENC   =     -1153.47124576
  -exchange      EXHF   =         0.00000000
  -V(xc)+E(xc)   XCENC  =        54.96695258
  PAW double counting   =      1373.46213929    -1376.26222842
  entropy T*S    EENTRO =         0.00000000
  eigenvalues    EBANDS =      -204.58624023
  atomic energy  EATOM  =       596.16534815
  Solvation  Ediel_sol  =         0.00000000
  ---------------------------------------------------
  free energy    TOTEN  =       -36.70449113 eV

  energy without entropy =      -36.70449113  energy(sigma->0) =      -36.70449113


--------------------------------------------------------------------------------------------------------




----------------------------------------- Iteration   74(   6)  ---------------------------------------


    POTLOK:  cpu time   24.7212: real time   24.7708
    SETDIJ:  cpu time    0.0060: real time    0.0063
     EDDAV:  cpu time   35.4626: real time   35.5322
       DOS:  cpu time    0.0000: real time    0.0002
    --------------------------------------------
      LOOP:  cpu time   60.1918: real time   60.3133

 eigenvalue-minimisations  :    48
 total energy-change (2. order) : 0.4426965E-09  (-0.1711252E-08)
 number of electron      16.0000015 magnetization 
 augmentation part        0.4369988 magnetization 

 Free energy of the ion-electron system (eV)
  ---------------------------------------------------
  alpha Z        PSCENC =         0.04144063
  Ewald energy   TEWEN  =       672.97934263
  -Hartree energ DENC   =     -1153.47125184
  -exchange      EXHF   =         0.00000000
  -V(xc)+E(xc)   XCENC  =        54.96695268
  PAW double counting   =      1373.46226480    -1376.26235393
  entropy T*S    EENTRO =         0.00000000
  eigenvalues    EBANDS =      -204.58623424
  atomic energy  EATOM  =       596.16534815
  Solvation  Ediel_sol  =         0.00000000
  ---------------------------------------------------
  free energy    TOTEN  =       -36.70449113 eV

  energy without entropy =      -36.70449113  energy(sigma->0) =      -36.70449113


--------------------------------------------------------------------------------------------------------




 average (electrostatic) potential at core
  the test charge radii are     0.5201  0.6991  0.7089
  (the norm of the test charge is              1.0000)
       1 -43.1699       2 -43.1686       3 -43.1688       4 -60.0791       5 -60.0735
       6 -73.2259
 
 
 
 E-fermi :  -7.0926     XC(G=0):  -0.0604     alpha+bet : -0.0137


 k-point     1 :       0.2500    0.2500    0.2500
  band No.  band energies     occupation 
      1     -22.5238      2.00000
      2     -19.3772      2.00000
      3     -12.8329      2.00000
      4     -11.4691      2.00000
      5     -11.4677      2.00000
      6      -8.4945      2.00000
      7      -8.0656      2.00000
      8      -8.0623      2.00000
      9      -0.8366      0.00000
     10      -0.4728      0.00000
     11      -0.4692      0.00000
     12       0.0206      0.00000

 k-point     2 :      -0.2500    0.2500    0.2500
  band No.  band energies     occupation 
      1     -22.5238      2.00000
      2     -19.3772      2.00000
      3     -12.8329      2.00000
      4     -11.4691      2.00000
      5     -11.4677      2.00000
      6      -8.4945      2.00000
      7      -8.0657      2.00000
      8      -8.0623      2.00000
      9      -0.8366      0.00000
     10      -0.4728      0.00000
     11      -0.4692      0.00000
     12       0.0205      0.00000

 k-point     3 :       0.2500   -0.2500    0.2500
  band No.  band energies     occupation 
      1     -22.5238      2.00000
      2     -19.3772      2.00000
      3     -12.8329      2.00000
      4     -11.4691      2.00000
      5     -11.4677      2.00000
      6      -8.4945      2.00000
      7      -8.0656      2.00000
      8      -8.0623      2.00000
      9      -0.8366      0.00000
     10      -0.4728      0.00000
     11      -0.4692      0.00000
     12       0.0206      0.00000

 k-point     4 :      -0.2500   -0.2500    0.2500
  band No.  band energies     occupation 
      1     -22.5238      2.00000
      2     -19.3772      2.00000
      3     -12.8329      2.00000
      4     -11.4691      2.00000
      5     -11.4677      2.00000
      6      -8.4945      2.00000
      7      -8.0656      2.00000
      8      -8.0623      2.00000
      9      -0.8366      0.00000
     10      -0.4728      0.00000
     11      -0.4692      0.00000
     12       0.0206      0.00000


--------------------------------------------------------------------------------------------------------


 soft charge-density along one line, spin component           1
         0         1         2         3         4         5         6         7         8         9
 total charge-density along one line
 
 pseudopotential strength for first ion, spin component:           1
 -2.364  -4.078  -0.002   0.000  -0.001
 -4.078  -6.948  -0.005   0.001  -0.002
 -0.002  -0.005  -0.329  -0.001   0.001
  0.000   0.001  -0.001  -0.334   0.000
 -0.001  -0.002   0.001   0.000  -0.333
 total augmentation occupancy for first ion, spin component:           1
  3.480  -0.627   0.414  -0.068   0.125
 -0.627   0.129  -0.076   0.013  -0.023
  0.414  -0.076   0.050  -0.007   0.013
 -0.068   0.013  -0.007   0.010  -0.002
  0.125  -0.023   0.013  -0.002   0.011


------------------------ aborting loop because EDIFF is reached ----------------------------------------


    CHARGE:  cpu time    5.2102: real time    5.2206
    FORLOC:  cpu time    2.3486: real time    2.3525
    FORNL :  cpu time   16.8684: real time   16.9039
    STRESS:  cpu time   51.3592: real time   51.4614
    FORCOR:  cpu time   20.9998: real time   21.0403
    FORHAR:  cpu time    7.2849: real time    7.2986
    MIXING:  cpu time    0.7869: real time    0.7883
    OFIELD:  cpu time    0.0000: real time    0.0000

  FORCE on cell =-STRESS in cart. coord.  units (eV):
  Direction    XX          YY          ZZ          XY          YZ          ZX
  --------------------------------------------------------------------------------------
  Alpha Z     0.04144     0.04144     0.04144
  Ewald     589.73961    40.54054    42.69894    47.76200     5.09084    58.86799
  Hartree   581.53448   285.37254   286.56426    25.93368     2.78661    31.98146
  E(xc)     -58.98489   -60.31315   -60.30817     0.11382     0.01197     0.14013
  Local   -1314.27335  -498.56874  -501.81250   -71.20419    -7.61427   -87.78518
  n-local   -28.18140   -24.81878   -24.82874    -0.27602    -0.02402    -0.33937
  augment     0.40903     0.39417     0.39503     0.00243    -0.00013     0.00367
  Kinetic   228.75545   256.41360   256.31273    -2.31635    -0.25049    -2.85002
  Fock        0.00000     0.00000     0.00000     0.00000     0.00000     0.00000
  -------------------------------------------------------------------------------------
  Total      -0.95963    -0.93839    -0.93702     0.01538     0.00052     0.01869
  in kB      -0.05694    -0.05568    -0.05560     0.00091     0.00003     0.00111
  external pressure =       -0.06 kB  Pullay stress =        0.00 kB


 VOLUME and BASIS-vectors are now :
 -----------------------------------------------------------------------------
  energy-cutoff  :      400.00
  volume of cell :    27000.00
      direct lattice vectors                 reciprocal lattice vectors
    30.000000000  0.000000000  0.000000000     0.033333333  0.000000000  0.000000000
     0.000000000 30.000000000  0.000000000     0.000000000  0.033333333  0.000000000
     0.000000000  0.000000000 30.000000000     0.000000000  0.000000000  0.033333333

  length of vectors
    30.000000000 30.000000000 30.000000000     0.033333333  0.033333333  0.033333333


 FORCES acting on ions
    electron-ion (+dipol)            ewald-force                    non-local-force                 convergence-correction
 -----------------------------------------------------------------------------------------------
   0.285E+02 0.576E+02 -.812E+01   -.301E+02 -.629E+02 0.899E+01   0.160E+01 0.529E+01 -.875E+00   -.520E-05 0.192E-05 0.173E-05
   0.278E+02 -.145E+02 0.567E+02   -.293E+02 0.160E+02 -.618E+02   0.153E+01 -.145E+01 0.518E+01   -.374E-05 0.435E-05 0.836E-06
   0.405E+02 -.340E+02 -.374E+02   -.432E+02 0.373E+02 0.410E+02   0.274E+01 -.328E+01 -.361E+01   0.663E-05 0.479E-05 0.450E-05
   0.958E+02 0.836E+01 0.103E+02   -.100E+03 -.876E+01 -.108E+02   0.445E+01 0.393E+00 0.486E+00   -.180E-05 0.272E-04 0.194E-04
   0.661E+02 0.448E+01 0.543E+01   -.682E+02 -.463E+01 -.561E+01   0.211E+01 0.140E+00 0.170E+00   -.720E-05 0.973E-04 0.507E-04
   -.231E+03 -.196E+02 -.242E+02   0.271E+03 0.230E+02 0.283E+02   -.402E+02 -.334E+01 -.411E+01   -.218E-04 0.161E-03 0.942E-04
 -----------------------------------------------------------------------------------------------
   0.278E+02 0.225E+01 0.276E+01   0.000E+00 0.355E-14 0.000E+00   -.278E+02 -.225E+01 -.276E+01   -.331E-04 0.297E-03 0.171E-03
 
 
 POSITION                                       TOTAL-FORCE (eV/Angst)
 -----------------------------------------------------------------------------------
     14.20877     13.91740     15.12154        -0.006238     -0.001055      0.001190
     14.22280     15.24542     13.92856        -0.007832      0.000769      0.000189
     13.98543     15.60489     15.66165         0.019323      0.000715      0.002169
     14.51632     14.95845     14.94833         0.001026     -0.004347     -0.004352
     15.95485     15.08912     15.10982        -0.002101     -0.007922     -0.010147
     17.11140     15.18591     15.22886        -0.004179      0.011841      0.010951
 -----------------------------------------------------------------------------------
    total drift:                                0.000278      0.004282      0.001600


--------------------------------------------------------------------------------------------------------



  FREE ENERGIE OF THE ION-ELECTRON SYSTEM (eV)
  ---------------------------------------------------
  free  energy   TOTEN  =       -36.70449113 eV

  energy  without entropy=      -36.70449113  energy(sigma->0) =      -36.70449113
 
 d Force =-0.3313790E-05[-0.333E-05,-0.330E-05]  d Energy =-0.3308682E-05-0.511E-08
 d Force = 0.2480360E-03[ 0.250E-03, 0.246E-03]  d Ewald  = 0.2480360E-03 0.689E-10


--------------------------------------------------------------------------------------------------------


    POTLOK:  cpu time   20.3149: real time   20.3525


--------------------------------------------------------------------------------------------------------


 NEB: the previous image is higher in energy: T
 NEB: the next image is higher in energy    : F
 NEB: only prev energy greater

 NEB: Tangent
 ----------------------------------------------
      0.16281      0.07251      0.00282
      0.25740      0.00753      0.00401
     -0.57206      0.03289     -0.07104
     -0.02438      0.16355      0.14817
     -0.02810      0.19464      0.28883
      0.19996     -0.46506     -0.37529

 NEB: forces: par spring, perp REAL, dneb     0.010402    0.006047    0.000000
 NEB: distance to prev, next image, angle between     0.252779    0.254859   95.405789
 NEB: projections on to tangent (spring, REAL)     0.010402   -0.030529

 stress matrix after NEB project (eV)
     -0.95963      0.01538      0.01869
      0.01538     -0.93839      0.00052
      0.01869      0.00052     -0.93702
  FORCES: max atom, RMS     0.009341    0.004912
  FORCE total and by dimension    0.012032    0.007195
  Stress total and by dimension    1.637268    0.959631
 OPT: skip step - force has converged


--------------------------------------------------------------------------------------------------------


  
 reached required accuracy - stopping structural energy minimisation
     LOOP+:  cpu time  579.4239: real time  580.8561
    4ORBIT:  cpu time    0.0000: real time    0.0000

 total amount of memory used by VASP on root node  3203889. kBytes
========================================================================

   base      :      30000. kBytes
   nonlr-proj:        693. kBytes
   fftplans  :     924480. kBytes
   grid      :    1872000. kBytes
   one-center:         18. kBytes
   wavefun   :     376698. kBytes
 
  
  
 General timing and accounting informations for this job:
 ========================================================
  
                  Total CPU time used (sec):    49535.777
                            User time (sec):    48856.971
                          System time (sec):      678.805
                         Elapsed time (sec):    49851.726
  
                   Maximum memory used (kb):     4784760.
                   Average memory used (kb):           0.
  
                          Minor page faults:      6277894
                          Major page faults:            6
                 Voluntary context switches:         9193
