 vasp.5.4.1 24Jun15 (build Jan 13 2020 12:58:22) complex                        
  
 POSCAR found type information on POSCAR  H  C  N 
 14/POSCAR found :  3 types and       6 ions
 scaLAPACK will be used

 ----------------------------------------------------------------------------- 
|                                                                             |
|  ADVICE TO THIS USER RUNNING 'VASP/VAMP'   (HEAR YOUR MASTER'S VOICE ...):  |
|                                                                             |
|      You have a (more or less) 'small supercell' and for smaller cells      |
|      it is recommended  to use the reciprocal-space projection scheme!      |
|      The real space optimization is not  efficient for small cells and it   |
|      is also less accurate ...                                              |
|      Therefore set LREAL=.FALSE. in the  INCAR file                         |
|                                                                             |
 ----------------------------------------------------------------------------- 

 LDA part: xc-table for Pade appr. of Perdew
 POSCAR found type information on POSCAR  H  C  N 
 00/POSCAR found :  3 types and       6 ions
 POSCAR found type information on POSCAR  H  C  N 
 16/POSCAR found :  3 types and       6 ions
 Jacobian:    40.4401846379183     
 POSCAR, INCAR and KPOINTS ok, starting setup
 WARNING: small aliasing (wrap around) errors must be expected
 FFT: planning ...
 WAVECAR not read
 entering main loop
       N       E                     dE             d eps       ncg     rms          rms(c)
DAV:   1     0.115743158678E+03    0.11574E+03   -0.21200E+03   160   0.366E+02
DAV:   2    -0.312114526359E+00   -0.11606E+03   -0.11309E+03   192   0.107E+02
DAV:   3    -0.370228499822E+02   -0.36711E+02   -0.36559E+02   120   0.934E+01
DAV:   4    -0.407424375289E+02   -0.37196E+01   -0.37020E+01   128   0.289E+01
DAV:   5    -0.408280928107E+02   -0.85655E-01   -0.82871E-01   128   0.475E+00    0.109E+01
DAV:   6    -0.375456525451E+02    0.32824E+01   -0.66341E+00   116   0.175E+01    0.594E+00
DAV:   7    -0.368837414938E+02    0.66191E+00   -0.14155E+00   120   0.838E+00    0.300E+00
DAV:   8    -0.367110468034E+02    0.17269E+00   -0.41646E-01   128   0.480E+00    0.109E+00
DAV:   9    -0.366854846620E+02    0.25562E-01   -0.34188E-02   128   0.153E+00    0.328E-01
DAV:  10    -0.366811007105E+02    0.43840E-02   -0.47050E-03   128   0.591E-01    0.146E-01
DAV:  11    -0.366821843872E+02   -0.10837E-02   -0.18371E-03   128   0.328E-01    0.954E-02
DAV:  12    -0.366889242262E+02   -0.67398E-02   -0.49718E-03   112   0.528E-01    0.494E-02
DAV:  13    -0.366932117119E+02   -0.42875E-02   -0.11902E-03   160   0.235E-01    0.356E-02
DAV:  14    -0.366974666982E+02   -0.42550E-02   -0.55263E-04   128   0.145E-01    0.241E-02
DAV:  15    -0.367005650344E+02   -0.30983E-02   -0.30217E-04   128   0.911E-02    0.149E-02
DAV:  16    -0.367027830259E+02   -0.22180E-02   -0.25810E-04   128   0.930E-02    0.106E-02
DAV:  17    -0.367037275916E+02   -0.94457E-03   -0.46211E-05    96   0.498E-02    0.396E-03
DAV:  18    -0.367041897284E+02   -0.46214E-03   -0.27187E-05    88   0.304E-02    0.286E-03
DAV:  19    -0.367044606417E+02   -0.27091E-03   -0.12993E-05    68   0.200E-02    0.163E-03
DAV:  20    -0.367045656313E+02   -0.10499E-03   -0.32732E-06    96   0.125E-02    0.143E-03
DAV:  21    -0.367046144797E+02   -0.48848E-04   -0.13156E-06    64   0.749E-03
   1 F= -.36704614E+02 E0= -.36704614E+02  d E =-.367046E+02
damped:  g(F)=  0.000E+00 g(S)=  0.000E+00 dE (1.order)= 0.000E+00
 bond charge predicted
       N       E                     dE             d eps       ncg     rms          rms(c)
DAV:   1    -0.367046384851E+02   -0.72854E-04   -0.52972E-04   124   0.206E-01    0.111E-02
DAV:   2    -0.367046422277E+02   -0.37426E-05   -0.89594E-06    96   0.290E-02    0.538E-03
DAV:   3    -0.367046473459E+02   -0.51182E-05   -0.29718E-06    76   0.153E-02    0.224E-03
DAV:   4    -0.367046524018E+02   -0.50559E-05   -0.10638E-06    68   0.905E-03    0.891E-04
DAV:   5    -0.367046556288E+02   -0.32271E-05   -0.17110E-07    88   0.389E-03    0.379E-04
DAV:   6    -0.367046587209E+02   -0.30920E-05   -0.54999E-08    64   0.203E-03
   2 F= -.36704659E+02 E0= -.36704659E+02  d E =-.442411E-04
damped:  g(F)=  0.000E+00 g(S)=  0.000E+00 dE (1.order)= 0.000E+00
 bond charge predicted
       N       E                     dE             d eps       ncg     rms          rms(c)
DAV:   1    -0.367046637760E+02   -0.81472E-05   -0.65556E-05    48   0.732E-02    0.355E-03
DAV:   2    -0.367046648006E+02   -0.10245E-05   -0.30490E-06    52   0.171E-02    0.187E-03
DAV:   3    -0.367046657335E+02   -0.93295E-06   -0.30857E-07    60   0.517E-03    0.105E-03
DAV:   4    -0.367046670669E+02   -0.13334E-05   -0.19459E-07    64   0.385E-03    0.359E-04
DAV:   5    -0.367046674501E+02   -0.38318E-06   -0.42238E-08    48   0.170E-03    0.239E-04
DAV:   6    -0.367046680572E+02   -0.60717E-06   -0.19012E-08    96   0.834E-04
   3 F= -.36704668E+02 E0= -.36704668E+02  d E =-.933639E-05
damped:  g(F)=  0.000E+00 g(S)=  0.000E+00 dE (1.order)= 0.000E+00
 bond charge predicted
       N       E                     dE             d eps       ncg     rms          rms(c)
DAV:   1    -0.367046680872E+02   -0.63711E-06   -0.12666E-04    64   0.102E-01    0.480E-03
DAV:   2    -0.367046683677E+02   -0.28054E-06   -0.59127E-06    48   0.239E-02    0.257E-03
DAV:   3    -0.367046684787E+02   -0.11099E-06   -0.60479E-07    48   0.720E-03    0.145E-03
DAV:   4    -0.367046687387E+02   -0.25995E-06   -0.37816E-07    72   0.539E-03    0.496E-04
DAV:   5    -0.367046688297E+02   -0.91000E-07   -0.76935E-08    48   0.238E-03    0.328E-04
DAV:   6    -0.367046689740E+02   -0.14430E-06   -0.28393E-08    48   0.116E-03
   4 F= -.36704669E+02 E0= -.36704669E+02  d E =-.916725E-06
damped:  g(F)=  0.000E+00 g(S)=  0.000E+00 dE (1.order)= 0.000E+00
 bond charge predicted
       N       E                     dE             d eps       ncg     rms          rms(c)
DAV:   1    -0.367046694195E+02   -0.58979E-06   -0.98806E-07    48   0.915E-03    0.380E-04
DAV:   2    -0.367046694865E+02   -0.66986E-07   -0.53456E-08    48   0.216E-03    0.210E-04
DAV:   3    -0.367046695472E+02   -0.60735E-07   -0.11909E-08    48   0.625E-04    0.124E-04
DAV:   4    -0.367046696504E+02   -0.10320E-06   -0.81627E-09    88   0.414E-04    0.331E-05
DAV:   5    -0.367046696834E+02   -0.33051E-07   -0.62887E-09    48   0.181E-04    0.243E-05
DAV:   6    -0.367046697196E+02   -0.36177E-07   -0.55126E-09    48   0.874E-05
   5 F= -.36704670E+02 E0= -.36704670E+02  d E =-.745646E-06
damped:  g(F)=  0.000E+00 g(S)=  0.000E+00 dE (1.order)= 0.000E+00
 bond charge predicted
       N       E                     dE             d eps       ncg     rms          rms(c)
DAV:   1    -0.367046702379E+02   -0.55444E-06   -0.34206E-06    64   0.171E-02    0.723E-04
DAV:   2    -0.367046702707E+02   -0.32864E-07   -0.16506E-07    48   0.398E-03    0.410E-04
DAV:   3    -0.367046702892E+02   -0.18420E-07   -0.22140E-08    48   0.119E-03    0.234E-04
DAV:   4    -0.367046703185E+02   -0.29368E-07   -0.17278E-08    48   0.875E-04    0.782E-05
DAV:   5    -0.367046703260E+02   -0.74454E-08   -0.10273E-08    48   0.386E-04    0.543E-05
DAV:   6    -0.367046703396E+02   -0.13604E-07   -0.10261E-08    48   0.201E-04
   6 F= -.36704670E+02 E0= -.36704670E+02  d E =-.619964E-06
damped:  g(F)=  0.000E+00 g(S)=  0.000E+00 dE (1.order)= 0.000E+00
 bond charge predicted
       N       E                     dE             d eps       ncg     rms          rms(c)
DAV:   1    -0.367046706864E+02   -0.36041E-06   -0.60450E-06    48   0.228E-02    0.917E-04
DAV:   2    -0.367046707133E+02   -0.26937E-07   -0.29347E-07    48   0.530E-03    0.532E-04
DAV:   3    -0.367046707190E+02   -0.57182E-08   -0.40410E-08    48   0.159E-03    0.310E-04
DAV:   4    -0.367046707271E+02   -0.80652E-08   -0.28077E-08    48   0.114E-03    0.101E-04
DAV:   5    -0.367046707276E+02   -0.48021E-09   -0.15418E-08    48   0.502E-04    0.714E-05
DAV:   6    -0.367046707293E+02   -0.17117E-08   -0.13287E-08    48   0.261E-04
   7 F= -.36704671E+02 E0= -.36704671E+02  d E =-.389715E-06
damped:  g(F)=  0.000E+00 g(S)=  0.000E+00 dE (1.order)= 0.000E+00
 bond charge predicted
       N       E                     dE             d eps       ncg     rms          rms(c)
DAV:   1    -0.367046707857E+02   -0.58081E-07   -0.75440E-06    48   0.257E-02    0.928E-04
DAV:   2    -0.367046708127E+02   -0.27058E-07   -0.36289E-07    48   0.593E-03    0.562E-04
DAV:   3    -0.367046708150E+02   -0.23097E-08   -0.48461E-08    48   0.177E-03    0.340E-04
DAV:   4    -0.367046708166E+02   -0.15928E-08   -0.29657E-08    48   0.121E-03    0.107E-04
DAV:   5    -0.367046708159E+02    0.76557E-09   -0.15637E-08    48   0.537E-04    0.776E-05
DAV:   6    -0.367046708157E+02    0.17758E-09   -0.12980E-08    48   0.275E-04
   8 F= -.36704671E+02 E0= -.36704671E+02  d E =-.863870E-07
damped:  g(F)=  0.000E+00 g(S)=  0.000E+00 dE (1.order)= 0.000E+00
 bond charge predicted
       N       E                     dE             d eps       ncg     rms          rms(c)
DAV:   1    -0.367046706573E+02    0.15858E-06   -0.76681E-06    48   0.259E-02    0.766E-04
DAV:   2    -0.367046706860E+02   -0.28738E-07   -0.35744E-07    48   0.591E-03    0.497E-04
DAV:   3    -0.367046706891E+02   -0.31187E-08   -0.49401E-08    48   0.177E-03    0.313E-04
DAV:   4    -0.367046706903E+02   -0.11671E-08   -0.26072E-08    48   0.108E-03    0.910E-05
DAV:   5    -0.367046706898E+02    0.48385E-09   -0.15255E-08    48   0.487E-04    0.695E-05
DAV:   6    -0.367046706897E+02    0.12096E-09   -0.12783E-08    48   0.247E-04
   9 F= -.36704671E+02 E0= -.36704671E+02  d E =0.125980E-06
damped:  g(F)=  0.000E+00 g(S)=  0.000E+00 dE (1.order)= 0.000E+00
 bond charge predicted
       N       E                     dE             d eps       ncg     rms          rms(c)
DAV:   1    -0.367046705321E+02    0.15770E-06   -0.76958E-06    48   0.254E-02    0.606E-04
DAV:   2    -0.367046705609E+02   -0.28782E-07   -0.33719E-07    48   0.575E-03    0.400E-04
DAV:   3    -0.367046705657E+02   -0.47896E-08   -0.48924E-08    48   0.171E-03    0.240E-04
DAV:   4    -0.367046705671E+02   -0.13531E-08   -0.21755E-08    48   0.848E-04    0.670E-05
DAV:   5    -0.367046705672E+02   -0.16689E-09   -0.14843E-08    48   0.404E-04    0.487E-05
DAV:   6    -0.367046705671E+02    0.68667E-10   -0.12693E-08    48   0.216E-04
  10 F= -.36704671E+02 E0= -.36704671E+02  d E =0.122557E-06
damped:  g(F)=  0.000E+00 g(S)=  0.000E+00 dE (1.order)= 0.000E+00
 bond charge predicted
       N       E                     dE             d eps       ncg     rms          rms(c)
DAV:   1    -0.367046705689E+02   -0.16526E-08   -0.11328E-05    48   0.302E-02    0.688E-04
DAV:   2    -0.367046706056E+02   -0.36730E-07   -0.47192E-07    48   0.684E-03    0.427E-04
DAV:   3    -0.367046706123E+02   -0.66912E-08   -0.63846E-08    48   0.201E-03    0.202E-04
DAV:   4    -0.367046706140E+02   -0.16723E-08   -0.24592E-08    48   0.892E-04    0.461E-05
DAV:   5    -0.367046706145E+02   -0.56548E-09   -0.15868E-08    48   0.429E-04    0.364E-05
DAV:   6    -0.367046706147E+02   -0.13711E-09   -0.13149E-08    48   0.236E-04
  11 F= -.36704671E+02 E0= -.36704671E+02  d E =-.475177E-07
damped:  g(F)=  0.000E+00 g(S)=  0.000E+00 dE (1.order)= 0.000E+00
 bond charge predicted
       N       E                     dE             d eps       ncg     rms          rms(c)
DAV:   1    -0.367046707588E+02   -0.14426E-06   -0.19696E-05    48   0.401E-02    0.949E-04
DAV:   2    -0.367046708152E+02   -0.56454E-07   -0.84042E-07    48   0.909E-03    0.610E-04
DAV:   3    -0.367046708230E+02   -0.77632E-08   -0.10472E-07    48   0.267E-03    0.363E-04
DAV:   4    -0.367046708253E+02   -0.22524E-08   -0.36329E-08    48   0.129E-03    0.116E-04
DAV:   5    -0.367046708264E+02   -0.10871E-08   -0.19219E-08    48   0.610E-04    0.784E-05
DAV:   6    -0.367046708269E+02   -0.55275E-09   -0.13984E-08    48   0.320E-04
  12 F= -.36704671E+02 E0= -.36704671E+02  d E =-.212236E-06
damped:  g(F)=  0.000E+00 g(S)=  0.000E+00 dE (1.order)= 0.000E+00
 bond charge predicted
       N       E                     dE             d eps       ncg     rms          rms(c)
DAV:   1    -0.367046708120E+02    0.14398E-07   -0.34040E-05    48   0.530E-02    0.130E-03
DAV:   2    -0.367046709076E+02   -0.95643E-07   -0.14801E-06    48   0.120E-02    0.854E-04
DAV:   3    -0.367046709176E+02   -0.99835E-08   -0.17533E-07    48   0.354E-03    0.541E-04
DAV:   4    -0.367046709206E+02   -0.30075E-08   -0.58135E-08    48   0.183E-03    0.172E-04
DAV:   5    -0.367046709230E+02   -0.24515E-08   -0.25219E-08    48   0.854E-04    0.120E-04
DAV:   6    -0.367046709241E+02   -0.10557E-08   -0.15550E-08    48   0.437E-04
  13 F= -.36704671E+02 E0= -.36704671E+02  d E =-.971910E-07
damped:  g(F)=  0.000E+00 g(S)=  0.000E+00 dE (1.order)= 0.000E+00
 bond charge predicted
       N       E                     dE             d eps       ncg     rms          rms(c)
DAV:   1    -0.367046704649E+02    0.45812E-06   -0.51923E-05    48   0.652E-02    0.156E-03
DAV:   2    -0.367046706197E+02   -0.15478E-06   -0.22162E-06    48   0.148E-02    0.101E-03
DAV:   3    -0.367046706407E+02   -0.21045E-07   -0.25876E-07    48   0.435E-03    0.618E-04
DAV:   4    -0.367046706477E+02   -0.69419E-08   -0.78413E-08    48   0.214E-03    0.197E-04
DAV:   5    -0.367046706504E+02   -0.27333E-08   -0.31815E-08    48   0.101E-03    0.134E-04
DAV:   6    -0.367046706519E+02   -0.15245E-08   -0.17764E-08    48   0.526E-04
  14 F= -.36704671E+02 E0= -.36704671E+02  d E =0.272147E-06
damped:  g(F)=  0.000E+00 g(S)=  0.000E+00 dE (1.order)= 0.000E+00
 bond charge predicted
       N       E                     dE             d eps       ncg     rms          rms(c)
DAV:   1    -0.367046700182E+02    0.63222E-06   -0.72439E-05    48   0.764E-02    0.175E-03
DAV:   2    -0.367046702532E+02   -0.23498E-06   -0.29762E-06    48   0.173E-02    0.109E-03
DAV:   3    -0.367046702976E+02   -0.44389E-07   -0.34597E-07    48   0.508E-03    0.537E-04
DAV:   4    -0.367046703102E+02   -0.12625E-07   -0.94714E-08    48   0.227E-03    0.134E-04
DAV:   5    -0.367046703127E+02   -0.25470E-08   -0.38378E-08    48   0.109E-03    0.104E-04
DAV:   6    -0.367046703139E+02   -0.11291E-08   -0.20765E-08    48   0.592E-04
  15 F= -.36704670E+02 E0= -.36704670E+02  d E =0.338073E-06
damped:  g(F)=  0.000E+00 g(S)=  0.000E+00 dE (1.order)= 0.000E+00
 bond charge predicted
       N       E                     dE             d eps       ncg     rms          rms(c)
DAV:   1    -0.367046701295E+02    0.18326E-06   -0.11166E-04    96   0.937E-02    0.206E-03
DAV:   2    -0.367046701653E+02   -0.35808E-07   -0.12262E-06    48   0.889E-03    0.142E-03
DAV:   3    -0.367046701855E+02   -0.20180E-07   -0.17978E-07    48   0.344E-03    0.511E-04
DAV:   4    -0.367046701955E+02   -0.10015E-07   -0.52105E-08    48   0.159E-03    0.174E-04
DAV:   5    -0.367046701968E+02   -0.13511E-08   -0.22936E-08    48   0.730E-04    0.588E-05
DAV:   6    -0.367046702004E+02   -0.35143E-08   -0.16035E-08    48   0.381E-04
  16 F= -.36704670E+02 E0= -.36704670E+02  d E =0.113518E-06
damped:  g(F)=  0.000E+00 g(S)=  0.000E+00 dE (1.order)= 0.000E+00
 bond charge predicted
       N       E                     dE             d eps       ncg     rms          rms(c)
DAV:   1    -0.367046696010E+02    0.59581E-06   -0.17247E-04    96   0.117E-01    0.266E-03
DAV:   2    -0.367046696575E+02   -0.56452E-07   -0.19689E-06    48   0.114E-02    0.185E-03
DAV:   3    -0.367046696779E+02   -0.20466E-07   -0.28619E-07    48   0.445E-03    0.789E-04
DAV:   4    -0.367046696978E+02   -0.19902E-07   -0.84171E-08    48   0.224E-03    0.264E-04
DAV:   5    -0.367046696991E+02   -0.12906E-08   -0.29940E-08    48   0.100E-03    0.772E-05
DAV:   6    -0.367046697038E+02   -0.46559E-08   -0.18020E-08    48   0.492E-04
  17 F= -.36704670E+02 E0= -.36704670E+02  d E =0.496560E-06
damped:  g(F)=  0.000E+00 g(S)=  0.000E+00 dE (1.order)= 0.000E+00
 bond charge predicted
       N       E                     dE             d eps       ncg     rms          rms(c)
DAV:   1    -0.367046685132E+02    0.11860E-05   -0.23764E-04    96   0.136E-01    0.295E-03
DAV:   2    -0.367046685956E+02   -0.82415E-07   -0.25510E-06    48   0.128E-02    0.204E-03
DAV:   3    -0.367046686411E+02   -0.45497E-07   -0.35011E-07    48   0.488E-03    0.659E-04
DAV:   4    -0.367046686620E+02   -0.20963E-07   -0.90367E-08    48   0.219E-03    0.217E-04
DAV:   5    -0.367046686652E+02   -0.31275E-08   -0.33444E-08    48   0.991E-04    0.813E-05
DAV:   6    -0.367046686715E+02   -0.63080E-08   -0.20400E-08    48   0.521E-04
  18 F= -.36704669E+02 E0= -.36704669E+02  d E =0.103232E-05
damped:  g(F)=  0.000E+00 g(S)=  0.000E+00 dE (1.order)= 0.000E+00
 bond charge predicted
       N       E                     dE             d eps       ncg     rms          rms(c)
DAV:   1    -0.367046673379E+02    0.13273E-05   -0.32628E-04    96   0.159E-01    0.352E-03
DAV:   2    -0.367046674087E+02   -0.70864E-07   -0.35941E-06    48   0.152E-02    0.243E-03
DAV:   3    -0.367046674534E+02   -0.44714E-07   -0.49252E-07    48   0.582E-03    0.937E-04
DAV:   4    -0.367046674934E+02   -0.39935E-07   -0.13321E-07    48   0.280E-03    0.328E-04
DAV:   5    -0.367046675023E+02   -0.88871E-08   -0.42756E-08    48   0.125E-03    0.118E-04
DAV:   6    -0.367046675107E+02   -0.84251E-08   -0.23074E-08    48   0.629E-04
  19 F= -.36704668E+02 E0= -.36704668E+02  d E =0.116079E-05
damped:  g(F)=  0.000E+00 g(S)=  0.000E+00 dE (1.order)= 0.000E+00
 bond charge predicted
       N       E                     dE             d eps       ncg     rms          rms(c)
DAV:   1    -0.367046650263E+02    0.24760E-05   -0.45545E-04    96   0.187E-01    0.411E-03
DAV:   2    -0.367046651548E+02   -0.12847E-06   -0.49965E-06    48   0.178E-02    0.284E-03
DAV:   3    -0.367046652194E+02   -0.64671E-07   -0.66849E-07    48   0.679E-03    0.103E-03
DAV:   4    -0.367046652693E+02   -0.49901E-07   -0.17249E-07    48   0.319E-03    0.355E-04
DAV:   5    -0.367046652812E+02   -0.11820E-07   -0.53144E-08    48   0.142E-03    0.126E-04
DAV:   6    -0.367046652937E+02   -0.12515E-07   -0.27021E-08    48   0.722E-04
  20 F= -.36704665E+02 E0= -.36704665E+02  d E =0.221701E-05
damped:  g(F)=  0.000E+00 g(S)=  0.000E+00 dE (1.order)= 0.000E+00
 bond charge predicted
       N       E                     dE             d eps       ncg     rms          rms(c)
DAV:   1    -0.367046624891E+02    0.27921E-05   -0.58005E-04    96   0.211E-01    0.463E-03
DAV:   2    -0.367046627269E+02   -0.23787E-06   -0.64348E-06    48   0.200E-02    0.321E-03
DAV:   3    -0.367046628075E+02   -0.80588E-07   -0.85112E-07    48   0.767E-03    0.115E-03
DAV:   4    -0.367046628648E+02   -0.57226E-07   -0.21497E-07    48   0.358E-03    0.409E-04
DAV:   5    -0.367046628755E+02   -0.10699E-07   -0.64654E-08    48   0.160E-03    0.135E-04
DAV:   6    -0.367046628912E+02   -0.15777E-07   -0.31409E-08    48   0.812E-04
  21 F= -.36704663E+02 E0= -.36704663E+02  d E =0.240244E-05
damped:  g(F)=  0.000E+00 g(S)=  0.000E+00 dE (1.order)= 0.000E+00
 bond charge predicted
       N       E                     dE             d eps       ncg     rms          rms(c)
DAV:   1    -0.367046589605E+02    0.39149E-05   -0.72633E-04    96   0.233E-01    0.506E-03
DAV:   2    -0.367046592690E+02   -0.30852E-06   -0.79907E-06    48   0.221E-02    0.349E-03
DAV:   3    -0.367046593853E+02   -0.11628E-06   -0.10174E-06    48   0.837E-03    0.104E-03
DAV:   4    -0.367046594473E+02   -0.61955E-07   -0.24773E-07    48   0.374E-03    0.317E-04
DAV:   5    -0.367046594608E+02   -0.13517E-07   -0.73784E-08    48   0.165E-03    0.126E-04
DAV:   6    -0.367046594787E+02   -0.17921E-07   -0.36115E-08    48   0.864E-04
  22 F= -.36704659E+02 E0= -.36704659E+02  d E =0.341253E-05
damped:  g(F)=  0.000E+00 g(S)=  0.000E+00 dE (1.order)= 0.000E+00
 bond charge predicted
       N       E                     dE             d eps       ncg     rms          rms(c)
DAV:   1    -0.367046548132E+02    0.46476E-05   -0.82002E-04    96   0.248E-01    0.551E-03
DAV:   2    -0.367046551225E+02   -0.30929E-06   -0.96808E-06    48   0.242E-02    0.381E-03
DAV:   3    -0.367046551898E+02   -0.67251E-07   -0.12032E-06    48   0.911E-03    0.165E-03
DAV:   4    -0.367046552950E+02   -0.10524E-06   -0.32514E-07    48   0.455E-03    0.573E-04
DAV:   5    -0.367046553212E+02   -0.26200E-07   -0.87689E-08    48   0.201E-03    0.179E-04
DAV:   6    -0.367046553434E+02   -0.22242E-07   -0.37161E-08    48   0.963E-04
  23 F= -.36704655E+02 E0= -.36704655E+02  d E =0.413526E-05
damped:  g(F)=  0.000E+00 g(S)=  0.000E+00 dE (1.order)= 0.000E+00
 bond charge predicted
       N       E                     dE             d eps       ncg     rms          rms(c)
DAV:   1    -0.367046556649E+02   -0.34368E-06   -0.24603E-06    48   0.141E-02    0.642E-04
DAV:   2    -0.367046556959E+02   -0.31026E-07   -0.13168E-07    48   0.335E-03    0.349E-04
DAV:   3    -0.367046557224E+02   -0.26527E-07   -0.25498E-08    48   0.102E-03    0.197E-04
DAV:   4    -0.367046557660E+02   -0.43545E-07   -0.21085E-08    48   0.775E-04    0.686E-05
DAV:   5    -0.367046557792E+02   -0.13188E-07   -0.14582E-08    48   0.360E-04    0.456E-05
DAV:   6    -0.367046558040E+02   -0.24838E-07   -0.13428E-08    48   0.188E-04
  24 F= -.36704656E+02 E0= -.36704656E+02  d E =-.460557E-06
damped:  g(F)=  0.000E+00 g(S)=  0.000E+00 dE (1.order)= 0.000E+00
 bond charge predicted
       N       E                     dE             d eps       ncg     rms          rms(c)
DAV:   1    -0.367046560095E+02   -0.23033E-06   -0.58151E-06    48   0.218E-02    0.101E-03
DAV:   2    -0.367046560391E+02   -0.29662E-07   -0.28573E-07    48   0.516E-03    0.548E-04
DAV:   3    -0.367046560533E+02   -0.14195E-07   -0.39140E-08    48   0.156E-03    0.300E-04
DAV:   4    -0.367046560747E+02   -0.21311E-07   -0.30145E-08    48   0.118E-03    0.108E-04
DAV:   5    -0.367046560782E+02   -0.35420E-08   -0.15655E-08    48   0.530E-04    0.746E-05
DAV:   6    -0.367046560863E+02   -0.81391E-08   -0.13540E-08    48   0.271E-04
  25 F= -.36704656E+02 E0= -.36704656E+02  d E =-.282339E-06
damped:  g(F)=  0.000E+00 g(S)=  0.000E+00 dE (1.order)= 0.000E+00
 bond charge predicted
       N       E                     dE             d eps       ncg     rms          rms(c)
DAV:   1    -0.367046560967E+02   -0.18544E-07   -0.23519E-08    48   0.972E-04    0.297E-05
DAV:   2    -0.367046561005E+02   -0.37910E-08   -0.12916E-08    48   0.243E-04    0.183E-05
DAV:   3    -0.367046561042E+02   -0.36663E-08   -0.12413E-08    48   0.809E-05    0.121E-05
DAV:   4    -0.367046561107E+02   -0.65413E-08   -0.12213E-08    48   0.455E-05    0.396E-06
DAV:   5    -0.367046561143E+02   -0.35704E-08   -0.12083E-08    48   0.270E-05    0.276E-06
DAV:   6    -0.367046561178E+02   -0.34720E-08   -0.11999E-08    48   0.198E-05
  26 F= -.36704656E+02 E0= -.36704656E+02  d E =-.314459E-07
damped:  g(F)=  0.000E+00 g(S)=  0.000E+00 dE (1.order)= 0.000E+00
 bond charge predicted
       N       E                     dE             d eps       ncg     rms          rms(c)
DAV:   1    -0.367046561135E+02    0.83674E-09   -0.65243E-08    48   0.209E-03    0.588E-05
DAV:   2    -0.367046561139E+02   -0.39427E-09   -0.14423E-08    48   0.489E-04    0.382E-05
DAV:   3    -0.367046561142E+02   -0.32378E-09   -0.12150E-08    48   0.143E-04    0.247E-05
DAV:   4    -0.367046561150E+02   -0.78921E-09   -0.11876E-08    48   0.860E-05    0.712E-06
DAV:   5    -0.367046561154E+02   -0.40586E-09   -0.11794E-08    48   0.395E-05    0.548E-06
DAV:   6    -0.367046561160E+02   -0.59799E-09   -0.11742E-08    48   0.199E-05
  27 F= -.36704656E+02 E0= -.36704656E+02  d E =0.179762E-08
damped:  g(F)=  0.000E+00 g(S)=  0.000E+00 dE (1.order)= 0.000E+00
 bond charge predicted
       N       E                     dE             d eps       ncg     rms          rms(c)
DAV:   1    -0.367046560828E+02    0.32584E-07   -0.16156E-07    48   0.346E-03    0.889E-05
DAV:   2    -0.367046560825E+02    0.28263E-09   -0.18566E-08    48   0.803E-04    0.592E-05
DAV:   3    -0.367046560823E+02    0.22646E-09   -0.12421E-08    48   0.233E-04    0.382E-05
DAV:   4    -0.367046560822E+02    0.76852E-10   -0.11863E-08    48   0.132E-04    0.108E-05
DAV:   5    -0.367046560824E+02   -0.15189E-09   -0.11695E-08    48   0.605E-05    0.851E-06
DAV:   6    -0.367046560826E+02   -0.19713E-09   -0.11612E-08    48   0.301E-05
  28 F= -.36704656E+02 E0= -.36704656E+02  d E =0.334189E-07
damped:  g(F)=  0.000E+00 g(S)=  0.000E+00 dE (1.order)= 0.000E+00
 bond charge predicted
       N       E                     dE             d eps       ncg     rms          rms(c)
DAV:   1    -0.367046560095E+02    0.72850E-07   -0.34674E-07    48   0.513E-03    0.123E-04
DAV:   2    -0.367046560094E+02    0.14234E-09   -0.26448E-08    48   0.118E-03    0.818E-05
DAV:   3    -0.367046560091E+02    0.27785E-09   -0.13210E-08    48   0.341E-04    0.517E-05
DAV:   4    -0.367046560085E+02    0.58003E-09   -0.12002E-08    48   0.178E-04    0.150E-05
DAV:   5    -0.367046560088E+02   -0.26716E-09   -0.11680E-08    48   0.824E-05    0.115E-05
DAV:   6    -0.367046560088E+02   -0.63665E-10   -0.11592E-08    48   0.418E-05
  29 F= -.36704656E+02 E0= -.36704656E+02  d E =0.737164E-07
damped:  g(F)=  0.000E+00 g(S)=  0.000E+00 dE (1.order)= 0.000E+00
 bond charge predicted
       N       E                     dE             d eps       ncg     rms          rms(c)
DAV:   1    -0.367046558920E+02    0.11678E-06   -0.61857E-07    48   0.687E-03    0.160E-04
DAV:   2    -0.367046558929E+02   -0.88130E-09   -0.37748E-08    48   0.157E-03    0.104E-04
DAV:   3    -0.367046558925E+02    0.40700E-09   -0.14397E-08    48   0.453E-04    0.623E-05
DAV:   4    -0.367046558920E+02    0.44724E-09   -0.12275E-08    48   0.221E-04    0.185E-05
DAV:   5    -0.367046558922E+02   -0.21328E-09   -0.11746E-08    48   0.103E-04    0.136E-05
DAV:   6    -0.367046558923E+02   -0.65938E-10   -0.11553E-08    48   0.536E-05
  30 F= -.36704656E+02 E0= -.36704656E+02  d E =0.116536E-06
damped:  g(F)=  0.000E+00 g(S)=  0.000E+00 dE (1.order)= 0.000E+00
 bond charge predicted
       N       E                     dE             d eps       ncg     rms          rms(c)
DAV:   1    -0.367046557275E+02    0.16477E-06   -0.99783E-07    48   0.873E-03    0.200E-04
DAV:   2    -0.367046557295E+02   -0.20265E-08   -0.53246E-08    48   0.200E-03    0.127E-04
DAV:   3    -0.367046557294E+02    0.82764E-10   -0.16070E-08    48   0.574E-04    0.697E-05
DAV:   4    -0.367046557291E+02    0.32810E-09   -0.12632E-08    48   0.266E-04    0.197E-05
DAV:   5    -0.367046557292E+02   -0.10527E-09   -0.11842E-08    48   0.126E-04    0.148E-05
DAV:   6    -0.367046557292E+02   -0.28422E-10   -0.11583E-08    48   0.665E-05
  31 F= -.36704656E+02 E0= -.36704656E+02  d E =0.163089E-06
damped:  g(F)=  0.000E+00 g(S)=  0.000E+00 dE (1.order)= 0.000E+00
 bond charge predicted
       N       E                     dE             d eps       ncg     rms          rms(c)
DAV:   1    -0.367046554839E+02    0.24529E-06   -0.19079E-06    48   0.121E-02    0.276E-04
DAV:   2    -0.367046554894E+02   -0.54752E-08   -0.90501E-08    48   0.276E-03    0.173E-04
DAV:   3    -0.367046554897E+02   -0.31014E-09   -0.20168E-08    48   0.795E-04    0.855E-05
DAV:   4    -0.367046554898E+02   -0.11073E-09   -0.13608E-08    48   0.359E-04    0.210E-05
DAV:   5    -0.367046554899E+02   -0.90495E-10   -0.12149E-08    48   0.170E-04    0.171E-05
DAV:   6    -0.367046554897E+02    0.20259E-09   -0.11716E-08    48   0.914E-05
  32 F= -.36704655E+02 E0= -.36704655E+02  d E =0.239531E-06
damped:  g(F)=  0.000E+00 g(S)=  0.000E+00 dE (1.order)= 0.000E+00
 bond charge predicted
       N       E                     dE             d eps       ncg     rms          rms(c)
DAV:   1    -0.367046551322E+02    0.35769E-06   -0.36167E-06    48   0.167E-02    0.380E-04
DAV:   2    -0.367046551437E+02   -0.11471E-07   -0.16074E-07    48   0.381E-03    0.237E-04
DAV:   3    -0.367046551450E+02   -0.12935E-08   -0.27978E-08    48   0.110E-03    0.112E-04
DAV:   4    -0.367046551452E+02   -0.23442E-09   -0.15558E-08    48   0.492E-04    0.252E-05
DAV:   5    -0.367046551452E+02   -0.41609E-10   -0.12839E-08    48   0.234E-04    0.210E-05
DAV:   6    -0.367046551453E+02   -0.48658E-10   -0.11990E-08    48   0.127E-04
  33 F= -.36704655E+02 E0= -.36704655E+02  d E =0.344401E-06
damped:  g(F)=  0.000E+00 g(S)=  0.000E+00 dE (1.order)= 0.000E+00
 bond charge predicted
       N       E                     dE             d eps       ncg     rms          rms(c)
DAV:   1    -0.367046546269E+02    0.51835E-06   -0.68205E-06    48   0.231E-02    0.526E-04
DAV:   2    -0.367046546492E+02   -0.22303E-07   -0.29278E-07    48   0.526E-03    0.327E-04
DAV:   3    -0.367046546530E+02   -0.37712E-08   -0.42816E-08    48   0.153E-03    0.156E-04
DAV:   4    -0.367046546533E+02   -0.36857E-09   -0.19182E-08    48   0.681E-04    0.357E-05
DAV:   5    -0.367046546534E+02   -0.62983E-10   -0.14026E-08    48   0.325E-04    0.289E-05
DAV:   6    -0.367046546533E+02    0.86402E-10   -0.12419E-08    48   0.177E-04
  34 F= -.36704655E+02 E0= -.36704655E+02  d E =0.491978E-06
damped:  g(F)=  0.000E+00 g(S)=  0.000E+00 dE (1.order)= 0.000E+00
 bond charge predicted
       N       E                     dE             d eps       ncg     rms          rms(c)
DAV:   1    -0.367046538963E+02    0.75715E-06   -0.12783E-05    48   0.318E-02    0.724E-04
DAV:   2    -0.367046539390E+02   -0.42744E-07   -0.53849E-07    48   0.723E-03    0.450E-04
DAV:   3    -0.367046539464E+02   -0.73853E-08   -0.70485E-08    48   0.210E-03    0.217E-04
DAV:   4    -0.367046539477E+02   -0.12803E-08   -0.25953E-08    48   0.940E-04    0.509E-05
DAV:   5    -0.367046539479E+02   -0.21032E-09   -0.16216E-08    48   0.450E-04    0.403E-05
DAV:   6    -0.367046539477E+02    0.17621E-09   -0.13141E-08    48   0.245E-04
  35 F= -.36704654E+02 E0= -.36704654E+02  d E =0.705617E-06
damped:  g(F)=  0.000E+00 g(S)=  0.000E+00 dE (1.order)= 0.000E+00
 bond charge predicted
       N       E                     dE             d eps       ncg     rms          rms(c)
DAV:   1    -0.367046528333E+02    0.11146E-05   -0.23770E-05    48   0.434E-02    0.992E-04
DAV:   2    -0.367046529129E+02   -0.79631E-07   -0.98979E-07    48   0.988E-03    0.616E-04
DAV:   3    -0.367046529275E+02   -0.14543E-07   -0.12136E-07    48   0.288E-03    0.297E-04
DAV:   4    -0.367046529305E+02   -0.30686E-08   -0.38445E-08    48   0.129E-03    0.692E-05
DAV:   5    -0.367046529310E+02   -0.41837E-09   -0.20276E-08    48   0.617E-04    0.545E-05
DAV:   6    -0.367046529308E+02    0.18053E-09   -0.14541E-08    48   0.336E-04
  36 F= -.36704653E+02 E0= -.36704653E+02  d E =0.101693E-05
damped:  g(F)=  0.000E+00 g(S)=  0.000E+00 dE (1.order)= 0.000E+00
 bond charge predicted
       N       E                     dE             d eps       ncg     rms          rms(c)
DAV:   1    -0.367046512828E+02    0.16482E-05   -0.43781E-05    48   0.591E-02    0.135E-03
DAV:   2    -0.367046514295E+02   -0.14674E-06   -0.18095E-06    48   0.134E-02    0.837E-04
DAV:   3    -0.367046514566E+02   -0.27049E-07   -0.21391E-07    48   0.393E-03    0.399E-04
DAV:   4    -0.367046514630E+02   -0.64292E-08   -0.61219E-08    48   0.175E-03    0.908E-05
DAV:   5    -0.367046514640E+02   -0.10200E-08   -0.27710E-08    48   0.837E-04    0.723E-05
DAV:   6    -0.367046514634E+02    0.66689E-09   -0.17169E-08    48   0.458E-04
  37 F= -.36704651E+02 E0= -.36704651E+02  d E =0.146741E-05
damped:  g(F)=  0.000E+00 g(S)=  0.000E+00 dE (1.order)= 0.000E+00
 bond charge predicted
       N       E                     dE             d eps       ncg     rms          rms(c)
DAV:   1    -0.367046490301E+02    0.24339E-05   -0.79655E-05    48   0.798E-02    0.182E-03
DAV:   2    -0.367046492963E+02   -0.26615E-06   -0.32777E-06    48   0.182E-02    0.113E-03
DAV:   3    -0.367046493465E+02   -0.50283E-07   -0.37950E-07    48   0.531E-03    0.534E-04
DAV:   4    -0.367046493591E+02   -0.12534E-07   -0.10191E-07    48   0.236E-03    0.119E-04
DAV:   5    -0.367046493607E+02   -0.16636E-08   -0.40958E-08    48   0.113E-03    0.964E-05
DAV:   6    -0.367046493607E+02    0.24329E-10   -0.21791E-08    48   0.618E-04
  38 F= -.36704649E+02 E0= -.36704649E+02  d E =0.210264E-05
damped:  g(F)=  0.000E+00 g(S)=  0.000E+00 dE (1.order)= 0.000E+00
 bond charge predicted
       N       E                     dE             d eps       ncg     rms          rms(c)
DAV:   1    -0.367046463348E+02    0.30259E-05   -0.14223E-04    96   0.105E-01    0.229E-03
DAV:   2    -0.367046463681E+02   -0.33316E-07   -0.15190E-06    48   0.985E-03    0.157E-03
DAV:   3    -0.367046463948E+02   -0.26669E-07   -0.21652E-07    48   0.381E-03    0.452E-04
DAV:   4    -0.367046464048E+02   -0.99715E-08   -0.59357E-08    48   0.168E-03    0.143E-04
DAV:   5    -0.367046464069E+02   -0.20837E-08   -0.24996E-08    48   0.770E-04    0.640E-05
DAV:   6    -0.367046464104E+02   -0.35513E-08   -0.17095E-08    48   0.416E-04
  39 F= -.36704646E+02 E0= -.36704646E+02  d E =0.295029E-05
damped:  g(F)=  0.000E+00 g(S)=  0.000E+00 dE (1.order)= 0.000E+00
 bond charge predicted
       N       E                     dE             d eps       ncg     rms          rms(c)
DAV:   1    -0.367046422288E+02    0.41781E-05   -0.23385E-04    96   0.135E-01    0.293E-03
DAV:   2    -0.367046422926E+02   -0.63803E-07   -0.24684E-06    48   0.126E-02    0.201E-03
DAV:   3    -0.367046423392E+02   -0.46620E-07   -0.34078E-07    48   0.484E-03    0.580E-04
DAV:   4    -0.367046423580E+02   -0.18758E-07   -0.87109E-08    48   0.213E-03    0.181E-04
DAV:   5    -0.367046423616E+02   -0.36353E-08   -0.32321E-08    48   0.965E-04    0.795E-05
DAV:   6    -0.367046423675E+02   -0.58646E-08   -0.19906E-08    48   0.516E-04
  40 F= -.36704642E+02 E0= -.36704642E+02  d E =0.404294E-05
damped:  g(F)=  0.000E+00 g(S)=  0.000E+00 dE (1.order)= 0.000E+00
 bond charge predicted
       N       E                     dE             d eps       ncg     rms          rms(c)
DAV:   1    -0.367046366983E+02    0.56634E-05   -0.36866E-04    96   0.169E-01    0.367E-03
DAV:   2    -0.367046368129E+02   -0.11468E-06   -0.38947E-06    48   0.158E-02    0.253E-03
DAV:   3    -0.367046368868E+02   -0.73857E-07   -0.52962E-07    48   0.606E-03    0.730E-04
DAV:   4    -0.367046369157E+02   -0.28916E-07   -0.13001E-07    48   0.266E-03    0.225E-04
DAV:   5    -0.367046369216E+02   -0.58794E-08   -0.44097E-08    48   0.121E-03    0.965E-05
DAV:   6    -0.367046369296E+02   -0.80411E-08   -0.24541E-08    48   0.645E-04
  41 F= -.36704637E+02 E0= -.36704637E+02  d E =0.543784E-05
damped:  g(F)=  0.000E+00 g(S)=  0.000E+00 dE (1.order)= 0.000E+00
 bond charge predicted
       N       E                     dE             d eps       ncg     rms          rms(c)
DAV:   1    -0.367046293738E+02    0.75478E-05   -0.55767E-04    96   0.208E-01    0.450E-03
DAV:   2    -0.367046295668E+02   -0.19307E-06   -0.59142E-06    48   0.194E-02    0.310E-03
DAV:   3    -0.367046296752E+02   -0.10840E-06   -0.79441E-07    48   0.743E-03    0.901E-04
DAV:   4    -0.367046297196E+02   -0.44366E-07   -0.19062E-07    48   0.327E-03    0.278E-04
DAV:   5    -0.367046297282E+02   -0.85564E-08   -0.60528E-08    48   0.148E-03    0.115E-04
DAV:   6    -0.367046297401E+02   -0.11936E-07   -0.30851E-08    48   0.788E-04
  42 F= -.36704630E+02 E0= -.36704630E+02  d E =0.718954E-05
damped:  g(F)=  0.000E+00 g(S)=  0.000E+00 dE (1.order)= 0.000E+00
 bond charge predicted
       N       E                     dE             d eps       ncg     rms          rms(c)
DAV:   1    -0.367046199437E+02    0.97845E-05   -0.80771E-04    96   0.249E-01    0.540E-03
DAV:   2    -0.367046202381E+02   -0.29441E-06   -0.85987E-06    48   0.234E-02    0.373E-03
DAV:   3    -0.367046203898E+02   -0.15175E-06   -0.11446E-06    48   0.892E-03    0.107E-03
DAV:   4    -0.367046204560E+02   -0.66215E-07   -0.27115E-07    48   0.393E-03    0.327E-04
DAV:   5    -0.367046204683E+02   -0.12259E-07   -0.81826E-08    48   0.176E-03    0.134E-04
DAV:   6    -0.367046204847E+02   -0.16419E-07   -0.39178E-08    48   0.937E-04
  43 F= -.36704620E+02 E0= -.36704620E+02  d E =0.925539E-05
damped:  g(F)=  0.000E+00 g(S)=  0.000E+00 dE (1.order)= 0.000E+00
 bond charge predicted
       N       E                     dE             d eps       ncg     rms          rms(c)
DAV:   1    -0.367046082025E+02    0.12266E-04   -0.11173E-03    96   0.292E-01    0.633E-03
DAV:   2    -0.367046086452E+02   -0.44266E-06   -0.12020E-05    48   0.275E-02    0.437E-03
DAV:   3    -0.367046088412E+02   -0.19602E-06   -0.15770E-06    48   0.105E-02    0.128E-03
DAV:   4    -0.367046089346E+02   -0.93368E-07   -0.37256E-07    48   0.463E-03    0.391E-04
DAV:   5    -0.367046089526E+02   -0.18005E-07   -0.10787E-07    48   0.206E-03    0.153E-04
DAV:   6    -0.367046089743E+02   -0.21739E-07   -0.49125E-08    48   0.109E-03
  44 F= -.36704609E+02 E0= -.36704609E+02  d E =0.115104E-04
damped:  g(F)=  0.000E+00 g(S)=  0.000E+00 dE (1.order)= 0.000E+00
 bond charge predicted
       N       E                     dE             d eps       ncg     rms          rms(c)
DAV:   1    -0.367045945609E+02    0.14392E-04   -0.14363E-03    96   0.328E-01    0.715E-03
DAV:   2    -0.367045952005E+02   -0.63960E-06   -0.15746E-05    48   0.312E-02    0.494E-03
DAV:   3    -0.367045954189E+02   -0.21835E-06   -0.20256E-06    48   0.119E-02    0.149E-03
DAV:   4    -0.367045955385E+02   -0.11960E-06   -0.48295E-07    48   0.530E-03    0.472E-04
DAV:   5    -0.367045955608E+02   -0.22313E-07   -0.13457E-07    48   0.234E-03    0.186E-04
DAV:   6    -0.367045955883E+02   -0.27472E-07   -0.59098E-08    48   0.122E-03
  45 F= -.36704596E+02 E0= -.36704596E+02  d E =0.133860E-04
damped:  g(F)=  0.000E+00 g(S)=  0.000E+00 dE (1.order)= 0.000E+00
 bond charge predicted
       N       E                     dE             d eps       ncg     rms          rms(c)
DAV:   1    -0.367045958043E+02   -0.24354E-06   -0.49783E-07    48   0.644E-03    0.269E-04
DAV:   2    -0.367045958314E+02   -0.27065E-07   -0.46255E-08    48   0.164E-03    0.159E-04
DAV:   3    -0.367045958608E+02   -0.29378E-07   -0.19882E-08    48   0.567E-04    0.969E-05
DAV:   4    -0.367045959195E+02   -0.58752E-07   -0.17084E-08    48   0.418E-04    0.338E-05
DAV:   5    -0.367045959396E+02   -0.20066E-07   -0.14742E-08    48   0.215E-04    0.249E-05
DAV:   6    -0.367045959828E+02   -0.43242E-07   -0.13958E-08    48   0.138E-04
  46 F= -.36704596E+02 E0= -.36704596E+02  d E =-.394570E-06
damped:  g(F)=  0.000E+00 g(S)=  0.000E+00 dE (1.order)= 0.000E+00
 bond charge predicted
       N       E                     dE             d eps       ncg     rms          rms(c)
DAV:   1    -0.367045962526E+02   -0.31303E-06   -0.12460E-06    48   0.104E-02    0.457E-04
DAV:   2    -0.367045962658E+02   -0.13167E-07   -0.71074E-08    48   0.246E-03    0.252E-04
DAV:   3    -0.367045962787E+02   -0.12887E-07   -0.18732E-08    48   0.756E-04    0.137E-04
DAV:   4    -0.367045963011E+02   -0.22405E-07   -0.15959E-08    48   0.527E-04    0.453E-05
DAV:   5    -0.367045963091E+02   -0.79891E-08   -0.13209E-08    48   0.235E-04    0.309E-05
DAV:   6    -0.367045963216E+02   -0.12518E-07   -0.12700E-08    48   0.125E-04
  47 F= -.36704596E+02 E0= -.36704596E+02  d E =-.338754E-06
damped:  g(F)=  0.000E+00 g(S)=  0.000E+00 dE (1.order)= 0.000E+00
 bond charge predicted
       N       E                     dE             d eps       ncg     rms          rms(c)
DAV:   1    -0.367045965734E+02   -0.26437E-06   -0.12339E-06    48   0.105E-02    0.397E-04
DAV:   2    -0.367045965776E+02   -0.41277E-08   -0.69847E-08    48   0.246E-03    0.228E-04
DAV:   3    -0.367045965804E+02   -0.28733E-08   -0.18479E-08    48   0.758E-04    0.126E-04
DAV:   4    -0.367045965869E+02   -0.64767E-08   -0.14725E-08    48   0.481E-04    0.395E-05
DAV:   5    -0.367045965902E+02   -0.33342E-08   -0.12554E-08    48   0.213E-04    0.272E-05
DAV:   6    -0.367045965942E+02   -0.39447E-08   -0.12095E-08    48   0.112E-04
  48 F= -.36704597E+02 E0= -.36704597E+02  d E =-.272606E-06
damped:  g(F)=  0.000E+00 g(S)=  0.000E+00 dE (1.order)= 0.000E+00
 bond charge predicted
       N       E                     dE             d eps       ncg     rms          rms(c)
DAV:   1    -0.367045968434E+02   -0.25320E-06   -0.98952E-07    48   0.923E-03    0.207E-04
DAV:   2    -0.367045968474E+02   -0.39754E-08   -0.58287E-08    48   0.215E-03    0.137E-04
DAV:   3    -0.367045968488E+02   -0.13965E-08   -0.17226E-08    48   0.654E-04    0.824E-05
DAV:   4    -0.367045968506E+02   -0.17963E-08   -0.13019E-08    48   0.326E-04    0.200E-05
DAV:   5    -0.367045968517E+02   -0.11271E-08   -0.12023E-08    48   0.154E-04    0.156E-05
DAV:   6    -0.367045968526E+02   -0.86106E-09   -0.11736E-08    48   0.838E-05
  49 F= -.36704597E+02 E0= -.36704597E+02  d E =-.258411E-06
damped:  g(F)=  0.000E+00 g(S)=  0.000E+00 dE (1.order)= 0.000E+00
 bond charge predicted
       N       E                     dE             d eps       ncg     rms          rms(c)
DAV:   1    -0.367045970610E+02   -0.20924E-06   -0.17648E-06    48   0.120E-02    0.261E-04
DAV:   2    -0.367045970692E+02   -0.81968E-08   -0.93292E-08    48   0.283E-03    0.171E-04
DAV:   3    -0.367045970715E+02   -0.23023E-08   -0.20668E-08    48   0.828E-04    0.103E-04
DAV:   4    -0.367045970729E+02   -0.13847E-08   -0.14019E-08    48   0.432E-04    0.298E-05
DAV:   5    -0.367045970728E+02    0.96634E-10   -0.12207E-08    48   0.203E-04    0.249E-05
DAV:   6    -0.367045970728E+02    0.50022E-11   -0.11648E-08    48   0.106E-04
  50 F= -.36704597E+02 E0= -.36704597E+02  d E =-.220162E-06
damped:  g(F)=  0.000E+00 g(S)=  0.000E+00 dE (1.order)= 0.000E+00
 bond charge predicted
       N       E                     dE             d eps       ncg     rms          rms(c)
DAV:   1    -0.367045971012E+02   -0.28432E-07   -0.34382E-06    48   0.164E-02    0.397E-04
DAV:   2    -0.367045971163E+02   -0.15112E-07   -0.17091E-07    48   0.386E-03    0.262E-04
DAV:   3    -0.367045971194E+02   -0.31023E-08   -0.28755E-08    48   0.112E-03    0.168E-04
DAV:   4    -0.367045971205E+02   -0.11162E-08   -0.16801E-08    48   0.643E-04    0.518E-05
DAV:   5    -0.367045971202E+02    0.36948E-09   -0.12878E-08    48   0.299E-04    0.417E-05
DAV:   6    -0.367045971200E+02    0.11437E-09   -0.11825E-08    48   0.153E-04
  51 F= -.36704597E+02 E0= -.36704597E+02  d E =-.472834E-07
damped:  g(F)=  0.000E+00 g(S)=  0.000E+00 dE (1.order)= 0.000E+00
 bond charge predicted
       N       E                     dE             d eps       ncg     rms          rms(c)
DAV:   1    -0.367045967689E+02    0.35127E-06   -0.70454E-06    48   0.229E-02    0.518E-04
DAV:   2    -0.367045967973E+02   -0.28386E-07   -0.32720E-07    48   0.534E-03    0.343E-04
DAV:   3    -0.367045968019E+02   -0.46582E-08   -0.45527E-08    48   0.153E-03    0.205E-04
DAV:   4    -0.367045968033E+02   -0.13770E-08   -0.20874E-08    48   0.810E-04    0.570E-05
DAV:   5    -0.367045968031E+02    0.23215E-09   -0.14228E-08    48   0.378E-04    0.484E-05
DAV:   6    -0.367045968028E+02    0.28149E-09   -0.12270E-08    48   0.195E-04
  52 F= -.36704597E+02 E0= -.36704597E+02  d E =0.317251E-06
damped:  g(F)=  0.000E+00 g(S)=  0.000E+00 dE (1.order)= 0.000E+00
 bond charge predicted
       N       E                     dE             d eps       ncg     rms          rms(c)
DAV:   1    -0.367045958327E+02    0.97038E-06   -0.15486E-05    48   0.334E-02    0.729E-04
DAV:   2    -0.367045958885E+02   -0.55819E-07   -0.67659E-07    48   0.771E-03    0.472E-04
DAV:   3    -0.367045958975E+02   -0.89801E-08   -0.82560E-08    48   0.217E-03    0.230E-04
DAV:   4    -0.367045958994E+02   -0.19454E-08   -0.28538E-08    48   0.100E-03    0.484E-05
DAV:   5    -0.367045958997E+02   -0.24124E-09   -0.17010E-08    48   0.470E-04    0.444E-05
DAV:   6    -0.367045958994E+02    0.29831E-09   -0.13279E-08    48   0.249E-04
  53 F= -.36704596E+02 E0= -.36704596E+02  d E =0.903409E-06
damped:  g(F)=  0.000E+00 g(S)=  0.000E+00 dE (1.order)= 0.000E+00
 bond charge predicted
       N       E                     dE             d eps       ncg     rms          rms(c)
DAV:   1    -0.367045938734E+02    0.20263E-05   -0.38340E-05    48   0.532E-02    0.119E-03
DAV:   2    -0.367045940031E+02   -0.12972E-06   -0.16377E-06    48   0.122E-02    0.766E-04
DAV:   3    -0.367045940230E+02   -0.19918E-07   -0.18793E-07    48   0.348E-03    0.397E-04
DAV:   4    -0.367045940274E+02   -0.44149E-08   -0.54283E-08    48   0.160E-03    0.983E-05
DAV:   5    -0.367045940286E+02   -0.12151E-08   -0.25215E-08    48   0.750E-04    0.811E-05
DAV:   6    -0.367045940281E+02    0.56502E-09   -0.16008E-08    48   0.394E-04
  54 F= -.36704594E+02 E0= -.36704594E+02  d E =0.187131E-05
damped:  g(F)=  0.000E+00 g(S)=  0.000E+00 dE (1.order)= 0.000E+00
 bond charge predicted
       N       E                     dE             d eps       ncg     rms          rms(c)
DAV:   1    -0.367045901645E+02    0.38641E-05   -0.92148E-05    48   0.835E-02    0.189E-03
DAV:   2    -0.367045904760E+02   -0.31149E-06   -0.38689E-06    48   0.191E-02    0.120E-03
DAV:   3    -0.367045905262E+02   -0.50236E-07   -0.43355E-07    48   0.549E-03    0.606E-04
DAV:   4    -0.367045905394E+02   -0.13185E-07   -0.11453E-07    48   0.249E-03    0.150E-04
DAV:   5    -0.367045905416E+02   -0.22087E-08   -0.44607E-08    48   0.118E-03    0.122E-04
DAV:   6    -0.367045905407E+02    0.88812E-09   -0.22475E-08    48   0.624E-04
  55 F= -.36704591E+02 E0= -.36704591E+02  d E =0.348735E-05
damped:  g(F)=  0.000E+00 g(S)=  0.000E+00 dE (1.order)= 0.000E+00
 bond charge predicted
       N       E                     dE             d eps       ncg     rms          rms(c)
DAV:   1    -0.367045848944E+02    0.56472E-05   -0.20061E-04    96   0.122E-01    0.266E-03
DAV:   2    -0.367045849579E+02   -0.63483E-07   -0.22129E-06    48   0.116E-02    0.183E-03
DAV:   3    -0.367045849857E+02   -0.27808E-07   -0.29317E-07    48   0.443E-03    0.551E-04
DAV:   4    -0.367045849996E+02   -0.13889E-07   -0.77522E-08    48   0.199E-03    0.169E-04
DAV:   5    -0.367045850010E+02   -0.14745E-08   -0.29093E-08    48   0.886E-04    0.704E-05
DAV:   6    -0.367045850044E+02   -0.33722E-08   -0.18374E-08    48   0.463E-04
  56 F= -.36704585E+02 E0= -.36704585E+02  d E =0.553632E-05
damped:  g(F)=  0.000E+00 g(S)=  0.000E+00 dE (1.order)= 0.000E+00
 bond charge predicted
       N       E                     dE             d eps       ncg     rms          rms(c)
DAV:   1    -0.367045765460E+02    0.84551E-05   -0.39069E-04    96   0.172E-01    0.373E-03
DAV:   2    -0.367045766954E+02   -0.14941E-06   -0.42850E-06    48   0.163E-02    0.258E-03
DAV:   3    -0.367045767516E+02   -0.56253E-07   -0.55863E-07    48   0.620E-03    0.848E-04
DAV:   4    -0.367045767842E+02   -0.32579E-07   -0.13913E-07    48   0.281E-03    0.278E-04
DAV:   5    -0.367045767878E+02   -0.35691E-08   -0.45133E-08    48   0.126E-03    0.105E-04
DAV:   6    -0.367045767947E+02   -0.69556E-08   -0.24179E-08    48   0.654E-04
  57 F= -.36704577E+02 E0= -.36704577E+02  d E =0.820967E-05
damped:  g(F)=  0.000E+00 g(S)=  0.000E+00 dE (1.order)= 0.000E+00
 bond charge predicted
       N       E                     dE             d eps       ncg     rms          rms(c)
DAV:   1    -0.367045645035E+02    0.12284E-04   -0.69782E-04    96   0.230E-01    0.497E-03
DAV:   2    -0.367045647694E+02   -0.26583E-06   -0.75575E-06    48   0.217E-02    0.344E-03
DAV:   3    -0.367045648768E+02   -0.10744E-06   -0.97832E-07    48   0.825E-03    0.103E-03
DAV:   4    -0.367045649316E+02   -0.54795E-07   -0.23465E-07    48   0.367E-03    0.312E-04
DAV:   5    -0.367045649394E+02   -0.77796E-08   -0.70678E-08    48   0.164E-03    0.129E-04
DAV:   6    -0.367045649508E+02   -0.11357E-07   -0.34268E-08    48   0.860E-04
  58 F= -.36704565E+02 E0= -.36704565E+02  d E =0.118440E-04
damped:  g(F)=  0.000E+00 g(S)=  0.000E+00 dE (1.order)= 0.000E+00
 bond charge predicted
       N       E                     dE             d eps       ncg     rms          rms(c)
DAV:   1    -0.367045477794E+02    0.17160E-04   -0.11696E-03    96   0.298E-01    0.645E-03
DAV:   2    -0.367045482245E+02   -0.44508E-06   -0.12724E-05    48   0.282E-02    0.446E-03
DAV:   3    -0.367045484002E+02   -0.17569E-06   -0.16403E-06    48   0.107E-02    0.139E-03
DAV:   4    -0.367045485001E+02   -0.99935E-07   -0.39343E-07    48   0.482E-03    0.433E-04
DAV:   5    -0.367045485166E+02   -0.16501E-07   -0.11113E-07    48   0.214E-03    0.176E-04
DAV:   6    -0.367045485354E+02   -0.18728E-07   -0.49384E-08    48   0.112E-03
  59 F= -.36704549E+02 E0= -.36704549E+02  d E =0.164154E-04
damped:  g(F)=  0.000E+00 g(S)=  0.000E+00 dE (1.order)= 0.000E+00
 bond charge predicted
       N       E                     dE             d eps       ncg     rms          rms(c)
DAV:   1    -0.367045256789E+02    0.22838E-04   -0.18244E-03    96   0.371E-01    0.804E-03
DAV:   2    -0.367045264880E+02   -0.80919E-06   -0.20011E-05    48   0.352E-02    0.557E-03
DAV:   3    -0.367045267493E+02   -0.26121E-06   -0.25479E-06    48   0.133E-02    0.176E-03
DAV:   4    -0.367045268992E+02   -0.14998E-06   -0.60182E-07    48   0.599E-03    0.561E-04
DAV:   5    -0.367045269240E+02   -0.24794E-07   -0.16651E-07    48   0.267E-03    0.213E-04
DAV:   6    -0.367045269548E+02   -0.30723E-07   -0.70187E-08    48   0.139E-03
  60 F= -.36704527E+02 E0= -.36704527E+02  d E =0.215806E-04
damped:  g(F)=  0.000E+00 g(S)=  0.000E+00 dE (1.order)= 0.000E+00
 bond charge predicted
       N       E                     dE             d eps       ncg     rms          rms(c)
DAV:   1    -0.367044990235E+02    0.27900E-04   -0.24895E-03    96   0.432E-01    0.942E-03
DAV:   2    -0.367045000933E+02   -0.10698E-05   -0.27952E-05    48   0.413E-02    0.652E-03
DAV:   3    -0.367045003863E+02   -0.29296E-06   -0.34990E-06    48   0.156E-02    0.233E-03
DAV:   4    -0.367045006307E+02   -0.24441E-06   -0.86528E-07    48   0.731E-03    0.780E-04
DAV:   5    -0.367045006813E+02   -0.50627E-07   -0.22470E-07    48   0.323E-03    0.282E-04
DAV:   6    -0.367045007279E+02   -0.46531E-07   -0.88170E-08    48   0.163E-03
  61 F= -.36704501E+02 E0= -.36704501E+02  d E =0.262269E-04
damped:  g(F)=  0.000E+00 g(S)=  0.000E+00 dE (1.order)= 0.000E+00
 bond charge predicted
       N       E                     dE             d eps       ncg     rms          rms(c)
DAV:   1    -0.367045013262E+02   -0.64491E-06   -0.64357E-06    48   0.229E-02    0.103E-03
DAV:   2    -0.367045013883E+02   -0.62081E-07   -0.33484E-07    48   0.548E-03    0.559E-04
DAV:   3    -0.367045014382E+02   -0.49848E-07   -0.49689E-08    48   0.168E-03    0.323E-04
DAV:   4    -0.367045015225E+02   -0.84359E-07   -0.36277E-08    48   0.126E-03    0.112E-04
DAV:   5    -0.367045015488E+02   -0.26307E-07   -0.19152E-08    48   0.582E-04    0.744E-05
DAV:   6    -0.367045015975E+02   -0.48630E-07   -0.15807E-08    48   0.299E-04
  62 F= -.36704502E+02 E0= -.36704502E+02  d E =-.869607E-06
damped:  g(F)=  0.000E+00 g(S)=  0.000E+00 dE (1.order)= 0.000E+00
 bond charge predicted
       N       E                     dE             d eps       ncg     rms          rms(c)
DAV:   1    -0.367045019597E+02   -0.41087E-06   -0.11292E-05    48   0.304E-02    0.131E-03
DAV:   2    -0.367045020194E+02   -0.59705E-07   -0.55958E-07    48   0.729E-03    0.732E-04
DAV:   3    -0.367045020483E+02   -0.28873E-07   -0.67493E-08    48   0.220E-03    0.419E-04
DAV:   4    -0.367045020942E+02   -0.45922E-07   -0.45328E-08    48   0.162E-03    0.148E-04
DAV:   5    -0.367045021036E+02   -0.93619E-08   -0.18884E-08    48   0.720E-04    0.102E-04
DAV:   6    -0.367045021218E+02   -0.18267E-07   -0.14425E-08    48   0.357E-04
  63 F= -.36704502E+02 E0= -.36704502E+02  d E =-.524367E-06
damped:  g(F)=  0.000E+00 g(S)=  0.000E+00 dE (1.order)= 0.000E+00
 bond charge predicted
       N       E                     dE             d eps       ncg     rms          rms(c)
DAV:   1    -0.367045022052E+02   -0.10163E-06   -0.15306E-07    48   0.347E-03    0.148E-04
DAV:   2    -0.367045022131E+02   -0.78539E-08   -0.19061E-08    48   0.823E-04    0.812E-05
DAV:   3    -0.367045022213E+02   -0.82291E-08   -0.13080E-08    48   0.241E-04    0.471E-05
DAV:   4    -0.367045022352E+02   -0.13920E-07   -0.12670E-08    48   0.167E-04    0.134E-05
DAV:   5    -0.367045022393E+02   -0.40504E-08   -0.12420E-08    48   0.761E-05    0.950E-06
DAV:   6    -0.367045022446E+02   -0.53597E-08   -0.12265E-08    48   0.385E-05
  64 F= -.36704502E+02 E0= -.36704502E+02  d E =-.122777E-06
damped:  g(F)=  0.000E+00 g(S)=  0.000E+00 dE (1.order)= 0.000E+00
 bond charge predicted
       N       E                     dE             d eps       ncg     rms          rms(c)
DAV:   1    -0.367045023163E+02   -0.77000E-07   -0.51141E-07    48   0.651E-03    0.281E-04
DAV:   2    -0.367045023170E+02   -0.73760E-09   -0.35910E-08    48   0.155E-03    0.157E-04
DAV:   3    -0.367045023179E+02   -0.90949E-09   -0.14450E-08    48   0.464E-04    0.883E-05
DAV:   4    -0.367045023211E+02   -0.32089E-08   -0.13348E-08    48   0.338E-04    0.290E-05
DAV:   5    -0.367045023226E+02   -0.14661E-08   -0.12192E-08    48   0.149E-04    0.203E-05
DAV:   6    -0.367045023244E+02   -0.18526E-08   -0.11954E-08    48   0.743E-05
  65 F= -.36704502E+02 E0= -.36704502E+02  d E =-.798148E-07
damped:  g(F)=  0.000E+00 g(S)=  0.000E+00 dE (1.order)= 0.000E+00
 bond charge predicted
       N       E                     dE             d eps       ncg     rms          rms(c)
DAV:   1    -0.367045022937E+02    0.28840E-07   -0.92925E-07    48   0.882E-03    0.350E-04
DAV:   2    -0.367045022927E+02    0.10220E-08   -0.55641E-08    48   0.208E-03    0.202E-04
DAV:   3    -0.367045022914E+02    0.13379E-08   -0.16390E-08    48   0.624E-04    0.116E-04
DAV:   4    -0.367045022913E+02    0.40018E-10   -0.14076E-08    48   0.438E-04    0.371E-05
DAV:   5    -0.367045022921E+02   -0.72941E-09   -0.12265E-08    48   0.194E-04    0.267E-05
DAV:   6    -0.367045022929E+02   -0.85538E-09   -0.11865E-08    48   0.969E-05
  66 F= -.36704502E+02 E0= -.36704502E+02  d E =0.315082E-07
damped:  g(F)=  0.000E+00 g(S)=  0.000E+00 dE (1.order)= 0.000E+00
 bond charge predicted
       N       E                     dE             d eps       ncg     rms          rms(c)
DAV:   1    -0.367045020732E+02    0.21890E-06   -0.13046E-06    48   0.104E-02    0.348E-04
DAV:   2    -0.367045020734E+02   -0.27626E-09   -0.73327E-08    48   0.243E-03    0.214E-04
DAV:   3    -0.367045020719E+02    0.15145E-08   -0.18277E-08    48   0.726E-04    0.128E-04
DAV:   4    -0.367045020711E+02    0.78535E-09   -0.14397E-08    48   0.473E-04    0.393E-05
DAV:   5    -0.367045020716E+02   -0.42951E-09   -0.12313E-08    48   0.213E-04    0.294E-05
DAV:   6    -0.367045020721E+02   -0.56002E-09   -0.11794E-08    48   0.106E-04
  67 F= -.36704502E+02 E0= -.36704502E+02  d E =0.220786E-06
damped:  g(F)=  0.000E+00 g(S)=  0.000E+00 dE (1.order)= 0.000E+00
 bond charge predicted
       N       E                     dE             d eps       ncg     rms          rms(c)
DAV:   1    -0.367045016051E+02    0.46650E-06   -0.18142E-06    48   0.120E-02    0.313E-04
DAV:   2    -0.367045016086E+02   -0.34847E-08   -0.94603E-08    48   0.278E-03    0.207E-04
DAV:   3    -0.367045016076E+02    0.91563E-09   -0.20749E-08    48   0.818E-04    0.126E-04
DAV:   4    -0.367045016068E+02    0.80490E-09   -0.14531E-08    48   0.474E-04    0.351E-05
DAV:   5    -0.367045016075E+02   -0.68212E-09   -0.12428E-08    48   0.216E-04    0.284E-05
DAV:   6    -0.367045016078E+02   -0.24602E-09   -0.11839E-08    48   0.109E-04
  68 F= -.36704502E+02 E0= -.36704502E+02  d E =0.464370E-06
damped:  g(F)=  0.000E+00 g(S)=  0.000E+00 dE (1.order)= 0.000E+00
 bond charge predicted
       N       E                     dE             d eps       ncg     rms          rms(c)
DAV:   1    -0.367045009362E+02    0.67129E-06   -0.25599E-06    48   0.139E-02    0.307E-04
DAV:   2    -0.367045009440E+02   -0.77823E-08   -0.12367E-07    48   0.321E-03    0.203E-04
DAV:   3    -0.367045009447E+02   -0.72328E-09   -0.23911E-08    48   0.921E-04    0.115E-04
DAV:   4    -0.367045009446E+02    0.15166E-09   -0.14711E-08    48   0.450E-04    0.287E-05
DAV:   5    -0.367045009449E+02   -0.28012E-09   -0.12573E-08    48   0.211E-04    0.245E-05
DAV:   6    -0.367045009449E+02   -0.45475E-10   -0.11904E-08    48   0.111E-04
  69 F= -.36704501E+02 E0= -.36704501E+02  d E =0.662860E-06
damped:  g(F)=  0.000E+00 g(S)=  0.000E+00 dE (1.order)= 0.000E+00
 bond charge predicted
       N       E                     dE             d eps       ncg     rms          rms(c)
DAV:   1    -0.367044999916E+02    0.95324E-06   -0.47132E-06    48   0.187E-02    0.407E-04
DAV:   2    -0.367045000091E+02   -0.17499E-07   -0.21350E-07    48   0.432E-03    0.263E-04
DAV:   3    -0.367045000117E+02   -0.26100E-08   -0.33484E-08    48   0.123E-03    0.128E-04
DAV:   4    -0.367045000123E+02   -0.54251E-09   -0.16914E-08    48   0.564E-04    0.260E-05
DAV:   5    -0.367045000124E+02   -0.13006E-09   -0.13357E-08    48   0.268E-04    0.243E-05
DAV:   6    -0.367045000124E+02    0.29104E-10   -0.12222E-08    48   0.144E-04
  70 F= -.36704500E+02 E0= -.36704500E+02  d E =0.932533E-06
damped:  g(F)=  0.000E+00 g(S)=  0.000E+00 dE (1.order)= 0.000E+00
 bond charge predicted
       N       E                     dE             d eps       ncg     rms          rms(c)
DAV:   1    -0.367044986861E+02    0.13263E-05   -0.88583E-06    48   0.260E-02    0.575E-04
DAV:   2    -0.367044987201E+02   -0.34006E-07   -0.39403E-07    48   0.597E-03    0.374E-04
DAV:   3    -0.367044987258E+02   -0.57146E-08   -0.53500E-08    48   0.172E-03    0.206E-04
DAV:   4    -0.367044987272E+02   -0.13893E-08   -0.22054E-08    48   0.820E-04    0.516E-05
DAV:   5    -0.367044987269E+02    0.25648E-09   -0.14931E-08    48   0.390E-04    0.436E-05
DAV:   6    -0.367044987267E+02    0.29877E-09   -0.12696E-08    48   0.208E-04
  71 F= -.36704499E+02 E0= -.36704499E+02  d E =0.128572E-05
damped:  g(F)=  0.000E+00 g(S)=  0.000E+00 dE (1.order)= 0.000E+00
 bond charge predicted
       N       E                     dE             d eps       ncg     rms          rms(c)
DAV:   1    -0.367044968562E+02    0.18707E-05   -0.15959E-05    48   0.351E-02    0.787E-04
DAV:   2    -0.367044969169E+02   -0.60700E-07   -0.70329E-07    48   0.806E-03    0.515E-04
DAV:   3    -0.367044969267E+02   -0.97984E-08   -0.87779E-08    48   0.233E-03    0.294E-04
DAV:   4    -0.367044969292E+02   -0.25095E-08   -0.30976E-08    48   0.113E-03    0.766E-05
DAV:   5    -0.367044969290E+02    0.27262E-09   -0.17753E-08    48   0.538E-04    0.632E-05
DAV:   6    -0.367044969285E+02    0.48431E-09   -0.13549E-08    48   0.286E-04
  72 F= -.36704497E+02 E0= -.36704497E+02  d E =0.179816E-05
damped:  g(F)=  0.000E+00 g(S)=  0.000E+00 dE (1.order)= 0.000E+00
 bond charge predicted
       N       E                     dE             d eps       ncg     rms          rms(c)
DAV:   1    -0.367044943153E+02    0.26137E-05   -0.26898E-05    48   0.454E-02    0.101E-03
DAV:   2    -0.367044944154E+02   -0.10015E-06   -0.11663E-06    48   0.104E-02    0.653E-04
DAV:   3    -0.367044944319E+02   -0.16496E-07   -0.13868E-07    48   0.300E-03    0.353E-04
DAV:   4    -0.367044944358E+02   -0.38767E-08   -0.43118E-08    48   0.142E-03    0.877E-05
DAV:   5    -0.367044944357E+02    0.43201E-10   -0.21760E-08    48   0.676E-04    0.733E-05
DAV:   6    -0.367044944352E+02    0.55547E-09   -0.14939E-08    48   0.363E-04
  73 F= -.36704494E+02 E0= -.36704494E+02  d E =0.249331E-05
damped:  g(F)=  0.000E+00 g(S)=  0.000E+00 dE (1.order)= 0.000E+00
 bond charge predicted
       N       E                     dE             d eps       ncg     rms          rms(c)
DAV:   1    -0.367044909359E+02    0.34999E-05   -0.43786E-05    48   0.577E-02    0.127E-03
DAV:   2    -0.367044910935E+02   -0.15767E-06   -0.18698E-06    48   0.132E-02    0.809E-04
DAV:   3    -0.367044911206E+02   -0.27056E-07   -0.21495E-07    48   0.379E-03    0.390E-04
DAV:   4    -0.367044911262E+02   -0.55913E-08   -0.60935E-08    48   0.173E-03    0.799E-05
DAV:   5    -0.367044911269E+02   -0.77853E-09   -0.27845E-08    48   0.826E-04    0.733E-05
DAV:   6    -0.367044911265E+02    0.44270E-09   -0.17113E-08    48   0.448E-04
  74 F= -.36704491E+02 E0= -.36704491E+02  d E =0.330868E-05
damped:  g(F)=  0.000E+00 g(S)=  0.000E+00 dE (1.order)= 0.000E+00
 reached required accuracy - stopping structural energy minimisation
