unknown system                          
           1
    30.000000    0.000000    0.000000
     0.000000   30.000000    0.000000
     0.000000    0.000000   30.000000
   H    C    N 
   3   2   1
Direct configuration=     1
   0.47355789  0.46386213  0.50400291
   0.47400226  0.50815607  0.46425235
   0.46637663  0.52013070  0.52206264
   0.48388992  0.49853502  0.49819911
   0.53183977  0.50291579  0.50358665
   0.57032322  0.50643450  0.50785750
Direct configuration=     2
   0.47355800  0.46386215  0.50400298
   0.47400227  0.50815610  0.46425241
   0.46637645  0.52013069  0.52206270
   0.48389030  0.49853513  0.49819926
   0.53183672  0.50291560  0.50358638
   0.57032596  0.50643453  0.50785741
Direct configuration=     3
   0.47355826  0.46386222  0.50400313
   0.47400235  0.50815615  0.46425254
   0.46637588  0.52013069  0.52206282
   0.48389083  0.49853540  0.49819960
   0.53183254  0.50291547  0.50358616
   0.57032982  0.50643429  0.50785689
Direct configuration=     4
   0.47355830  0.46386224  0.50400315
   0.47400238  0.50815615  0.46425256
   0.46637575  0.52013069  0.52206283
   0.48389078  0.49853544  0.49819965
   0.53183290  0.50291555  0.50358626
   0.57032956  0.50643415  0.50785671
Direct configuration=     5
   0.47355840  0.46386227  0.50400319
   0.47400245  0.50815616  0.46425260
   0.46637548  0.52013070  0.52206284
   0.48389068  0.49853552  0.49819974
   0.53183357  0.50291572  0.50358645
   0.57032910  0.50643386  0.50785634
Direct configuration=     6
   0.47355855  0.46386233  0.50400324
   0.47400257  0.50815618  0.46425266
   0.46637505  0.52013071  0.52206285
   0.48389055  0.49853565  0.49819988
   0.53183442  0.50291597  0.50358674
   0.57032853  0.50643341  0.50785578
Direct configuration=     7
   0.47355876  0.46386241  0.50400332
   0.47400275  0.50815620  0.46425274
   0.46637442  0.52013072  0.52206286
   0.48389041  0.49853584  0.49820009
   0.53183530  0.50291629  0.50358712
   0.57032802  0.50643279  0.50785502
Direct configuration=     8
   0.47355905  0.46386251  0.50400341
   0.47400300  0.50815622  0.46425284
   0.46637360  0.52013073  0.52206287
   0.48389029  0.49853609  0.49820037
   0.53183600  0.50291667  0.50358757
   0.57032774  0.50643202  0.50785408
Direct configuration=     9
   0.47355939  0.46386264  0.50400352
   0.47400331  0.50815625  0.46425296
   0.46637261  0.52013076  0.52206287
   0.48389019  0.49853640  0.49820071
   0.53183639  0.50291708  0.50358807
   0.57032777  0.50643112  0.50785301
Direct configuration=    10
   0.47355984  0.46386281  0.50400366
   0.47400370  0.50815630  0.46425311
   0.46637135  0.52013078  0.52206287
   0.48389014  0.49853681  0.49820116
   0.53183640  0.50291756  0.50358864
   0.57032823  0.50643001  0.50785169
Direct configuration=    11
   0.47356040  0.46386302  0.50400384
   0.47400421  0.50815635  0.46425331
   0.46636977  0.52013081  0.52206288
   0.48389013  0.49853732  0.49820172
   0.53183596  0.50291812  0.50358930
   0.57032917  0.50642866  0.50785007
Direct configuration=    12
   0.47356111  0.46386330  0.50400407
   0.47400486  0.50815642  0.46425357
   0.46636778  0.52013085  0.52206287
   0.48389015  0.49853798  0.49820245
   0.53183514  0.50291880  0.50359010
   0.57033057  0.50642696  0.50784806
Direct configuration=    13
   0.47356203  0.46386366  0.50400437
   0.47400571  0.50815651  0.46425391
   0.46636525  0.52013090  0.52206286
   0.48389016  0.49853881  0.49820337
   0.53183431  0.50291967  0.50359113
   0.57033214  0.50642478  0.50784547
Direct configuration=    14
   0.47356319  0.46386413  0.50400475
   0.47400679  0.50815664  0.46425435
   0.46636209  0.52013095  0.52206283
   0.48389007  0.49853985  0.49820451
   0.53183403  0.50292081  0.50359247
   0.57033342  0.50642199  0.50784218
Direct configuration=    15
   0.47356462  0.46386473  0.50400523
   0.47400812  0.50815679  0.46425493
   0.46635824  0.52013101  0.52206278
   0.48388983  0.49854112  0.49820590
   0.53183462  0.50292227  0.50359418
   0.57033411  0.50641849  0.50783805
Direct configuration=    16
   0.47356638  0.46386549  0.50400585
   0.47400979  0.50815700  0.46425568
   0.46635357  0.52013107  0.52206271
   0.48388949  0.49854266  0.49820762
   0.53183583  0.50292406  0.50359625
   0.57033445  0.50641418  0.50783295
Direct configuration=    17
   0.47356855  0.46386644  0.50400666
   0.47401181  0.50815730  0.46425667
   0.46634807  0.52013114  0.52206265
   0.48388921  0.49854453  0.49820971
   0.53183625  0.50292604  0.50359849
   0.57033558  0.50640908  0.50782685
Direct configuration=    18
   0.47357112  0.46386758  0.50400770
   0.47401418  0.50815769  0.46425792
   0.46634188  0.52013121  0.52206261
   0.48388912  0.49854668  0.49821217
   0.53183498  0.50292815  0.50360072
   0.57033811  0.50640330  0.50781987
Direct configuration=    19
   0.47357426  0.46386898  0.50400911
   0.47401704  0.50815825  0.46425956
   0.46633483  0.52013129  0.52206264
   0.48388897  0.49854918  0.49821510
   0.53183360  0.50293058  0.50360311
   0.57034061  0.50639642  0.50781144
Direct configuration=    20
   0.47357785  0.46387057  0.50401089
   0.47402024  0.50815900  0.46426152
   0.46632718  0.52013143  0.52206278
   0.48388845  0.49855191  0.49821836
   0.53183432  0.50293341  0.50360573
   0.57034120  0.50638851  0.50780162
Direct configuration=    21
   0.47358194  0.46387229  0.50401340
   0.47402368  0.50816017  0.46426395
   0.46631939  0.52013175  0.52206335
   0.48388783  0.49855488  0.49822204
   0.53183380  0.50293608  0.50360772
   0.57034250  0.50637982  0.50779037
Direct configuration=    22
   0.47358615  0.46387394  0.50401662
   0.47402688  0.50816175  0.46426663
   0.46631224  0.52013232  0.52206450
   0.48388724  0.49855786  0.49822591
   0.53183107  0.50293818  0.50360864
   0.57034544  0.50637110  0.50777847
Direct configuration=    23
   0.47358612  0.46387391  0.50401669
   0.47402679  0.50816179  0.46426663
   0.46631234  0.52013236  0.52206457
   0.48388719  0.49855785  0.49822593
   0.53183166  0.50293817  0.50360860
   0.57034491  0.50637107  0.50777835
Direct configuration=    24
   0.47358606  0.46387387  0.50401682
   0.47402665  0.50816188  0.46426664
   0.46631250  0.52013244  0.52206471
   0.48388712  0.49855784  0.49822600
   0.53183256  0.50293815  0.50360849
   0.57034413  0.50637098  0.50777809
Direct configuration=    25
   0.47358606  0.46387387  0.50401684
   0.47402664  0.50816189  0.46426665
   0.46631250  0.52013245  0.52206473
   0.48388712  0.49855785  0.49822601
   0.53183253  0.50293814  0.50360848
   0.57034415  0.50637096  0.50777806
Direct configuration=    26
   0.47358606  0.46387387  0.50401688
   0.47402663  0.50816191  0.46426665
   0.46631248  0.52013247  0.52206475
   0.48388713  0.49855787  0.49822604
   0.53183248  0.50293813  0.50360846
   0.57034421  0.50637092  0.50777799
Direct configuration=    27
   0.47358608  0.46387387  0.50401692
   0.47402664  0.50816194  0.46426667
   0.46631242  0.52013250  0.52206479
   0.48388714  0.49855790  0.49822609
   0.53183242  0.50293813  0.50360844
   0.57034430  0.50637082  0.50777785
Direct configuration=    28
   0.47358612  0.46387388  0.50401699
   0.47402667  0.50816197  0.46426668
   0.46631229  0.52013255  0.52206483
   0.48388715  0.49855796  0.49822617
   0.53183235  0.50293816  0.50360845
   0.57034443  0.50637065  0.50777763
Direct configuration=    29
   0.47358618  0.46387390  0.50401707
   0.47402672  0.50816201  0.46426671
   0.46631208  0.52013261  0.52206487
   0.48388716  0.49855805  0.49822629
   0.53183228  0.50293820  0.50360849
   0.57034458  0.50637040  0.50777734
Direct configuration=    30
   0.47358626  0.46387393  0.50401717
   0.47402681  0.50816207  0.46426673
   0.46631179  0.52013268  0.52206491
   0.48388715  0.49855816  0.49822643
   0.53183222  0.50293827  0.50360856
   0.57034475  0.50637007  0.50777695
Direct configuration=    31
   0.47358639  0.46387398  0.50401729
   0.47402694  0.50816213  0.46426678
   0.46631136  0.52013277  0.52206496
   0.48388714  0.49855833  0.49822662
   0.53183219  0.50293839  0.50360868
   0.57034495  0.50636960  0.50777642
Direct configuration=    32
   0.47358658  0.46387406  0.50401744
   0.47402715  0.50816221  0.46426683
   0.46631074  0.52013289  0.52206501
   0.48388711  0.49855855  0.49822689
   0.53183220  0.50293857  0.50360888
   0.57034519  0.50636893  0.50777568
Direct configuration=    33
   0.47358684  0.46387418  0.50401764
   0.47402747  0.50816231  0.46426692
   0.46630985  0.52013304  0.52206506
   0.48388706  0.49855887  0.49822725
   0.53183226  0.50293883  0.50360920
   0.57034548  0.50636800  0.50777468
Direct configuration=    34
   0.47358722  0.46387435  0.50401789
   0.47402793  0.50816243  0.46426703
   0.46630860  0.52013323  0.52206509
   0.48388698  0.49855931  0.49822773
   0.53183236  0.50293922  0.50360967
   0.57034585  0.50636671  0.50777331
Direct configuration=    35
   0.47358776  0.46387460  0.50401820
   0.47402860  0.50816258  0.46426720
   0.46630684  0.52013348  0.52206510
   0.48388685  0.49855991  0.49822838
   0.53183250  0.50293977  0.50361036
   0.57034637  0.50636494  0.50777148
Direct configuration=    36
   0.47358851  0.46387497  0.50401858
   0.47402957  0.50816276  0.46426742
   0.46630439  0.52013379  0.52206506
   0.48388668  0.49856075  0.49822924
   0.53183264  0.50294054  0.50361135
   0.57034710  0.50636252  0.50776904
Direct configuration=    37
   0.47358954  0.46387549  0.50401906
   0.47403095  0.50816298  0.46426774
   0.46630102  0.52013416  0.52206494
   0.48388644  0.49856192  0.49823038
   0.53183272  0.50294160  0.50361275
   0.57034816  0.50635924  0.50776579
Direct configuration=    38
   0.47359094  0.46387621  0.50401967
   0.47403281  0.50816325  0.46426818
   0.46629658  0.52013461  0.52206474
   0.48388615  0.49856351  0.49823183
   0.53183273  0.50294298  0.50361463
   0.57034957  0.50635491  0.50776157
Direct configuration=    39
   0.47359275  0.46387721  0.50402045
   0.47403527  0.50816358  0.46426879
   0.46629088  0.52013515  0.52206441
   0.48388577  0.49856559  0.49823370
   0.53183273  0.50294473  0.50361705
   0.57035131  0.50634931  0.50775619
Direct configuration=    40
   0.47359507  0.46387858  0.50402144
   0.47403841  0.50816401  0.46426960
   0.46628378  0.52013580  0.52206393
   0.48388532  0.49856820  0.49823607
   0.53183277  0.50294689  0.50362007
   0.57035326  0.50634223  0.50774943
Direct configuration=    41
   0.47359797  0.46388044  0.50402272
   0.47404232  0.50816460  0.46427066
   0.46627519  0.52013657  0.52206327
   0.48388483  0.49857138  0.49823906
   0.53183281  0.50294944  0.50362367
   0.57035537  0.50633344  0.50774109
Direct configuration=    42
   0.47360150  0.46388290  0.50402440
   0.47404708  0.50816542  0.46427202
   0.46626519  0.52013752  0.52206244
   0.48388441  0.49857512  0.49824274
   0.53183237  0.50295235  0.50362776
   0.57035779  0.50632278  0.50773103
Direct configuration=    43
   0.47360565  0.46388604  0.50402671
   0.47405274  0.50816657  0.46427385
   0.46625414  0.52013873  0.52206149
   0.48388404  0.49857937  0.49824708
   0.53183139  0.50295555  0.50363200
   0.57036019  0.50631009  0.50771914
Direct configuration=    44
   0.47361010  0.46388967  0.50403008
   0.47405898  0.50816822  0.46427632
   0.46624313  0.52014044  0.52206068
   0.48388337  0.49858402  0.49825176
   0.53183092  0.50295894  0.50363577
   0.57036140  0.50629542  0.50770550
Direct configuration=    45
   0.47361005  0.46388966  0.50403016
   0.47405894  0.50816827  0.46427635
   0.46624330  0.52014049  0.52206073
   0.48388337  0.49858401  0.49825174
   0.53183065  0.50295885  0.50363562
   0.57036159  0.50629543  0.50770552
Direct configuration=    46
   0.47360997  0.46388965  0.50403034
   0.47405885  0.50816836  0.46427639
   0.46624362  0.52014060  0.52206082
   0.48388336  0.49858401  0.49825170
   0.53183021  0.50295868  0.50363534
   0.57036187  0.50629541  0.50770552
Direct configuration=    47
   0.47360985  0.46388964  0.50403061
   0.47405875  0.50816851  0.46427646
   0.46624406  0.52014078  0.52206096
   0.48388330  0.49858402  0.49825166
   0.53182983  0.50295847  0.50363497
   0.57036208  0.50629531  0.50770545
Direct configuration=    48
   0.47360972  0.46388964  0.50403097
   0.47405864  0.50816870  0.46427654
   0.46624454  0.52014102  0.52206113
   0.48388319  0.49858405  0.49825162
   0.53182966  0.50295826  0.50363458
   0.57036210  0.50629509  0.50770526
Direct configuration=    49
   0.47360960  0.46388968  0.50403138
   0.47405856  0.50816893  0.46427663
   0.46624497  0.52014132  0.52206132
   0.48388302  0.49858410  0.49825163
   0.53182974  0.50295808  0.50363420
   0.57036192  0.50629468  0.50770491
Direct configuration=    50
   0.47360951  0.46388976  0.50403186
   0.47405854  0.50816919  0.46427673
   0.46624528  0.52014168  0.52206152
   0.48388282  0.49858421  0.49825169
   0.53182998  0.50295795  0.50363389
   0.57036167  0.50629405  0.50770437
Direct configuration=    51
   0.47360949  0.46388992  0.50403245
   0.47405864  0.50816951  0.46427685
   0.46624534  0.52014214  0.52206173
   0.48388259  0.49858442  0.49825186
   0.53183020  0.50295789  0.50363366
   0.57036150  0.50629301  0.50770349
Direct configuration=    52
   0.47360959  0.46389020  0.50403315
   0.47405895  0.50816991  0.46427700
   0.46624495  0.52014273  0.52206193
   0.48388234  0.49858480  0.49825222
   0.53183019  0.50295794  0.50363359
   0.57036169  0.50629138  0.50770212
Direct configuration=    53
   0.47360990  0.46389066  0.50403400
   0.47405962  0.50817038  0.46427718
   0.46624376  0.52014349  0.52206207
   0.48388210  0.49858546  0.49825286
   0.53182985  0.50295820  0.50363385
   0.57036242  0.50628885  0.50770002
Direct configuration=    54
   0.47361054  0.46389139  0.50403500
   0.47406087  0.50817095  0.46427743
   0.46624131  0.52014446  0.52206209
   0.48388181  0.49858658  0.49825393
   0.53182940  0.50295883  0.50363470
   0.57036363  0.50628495  0.50769678
Direct configuration=    55
   0.47361162  0.46389250  0.50403620
   0.47406286  0.50817162  0.46427778
   0.46623724  0.52014567  0.52206193
   0.48388139  0.49858831  0.49825553
   0.53182936  0.50295998  0.50363635
   0.57036497  0.50627925  0.50769207
Direct configuration=    56
   0.47361322  0.46389411  0.50403766
   0.47406578  0.50817243  0.46427833
   0.46623119  0.52014719  0.52206151
   0.48388084  0.49859083  0.49825779
   0.53182986  0.50296171  0.50363899
   0.57036638  0.50627128  0.50768549
Direct configuration=    57
   0.47361545  0.46389640  0.50403945
   0.47406982  0.50817339  0.46427919
   0.46622291  0.52014907  0.52206074
   0.48388028  0.49859436  0.49826085
   0.53182987  0.50296394  0.50364262
   0.57036876  0.50626066  0.50767681
Direct configuration=    58
   0.47361836  0.46389960  0.50404169
   0.47407517  0.50817457  0.46428050
   0.46621219  0.52015142  0.52205953
   0.48387974  0.49859905  0.49826483
   0.53182902  0.50296659  0.50364724
   0.57037234  0.50624695  0.50766572
Direct configuration=    59
   0.47362195  0.46390402  0.50404455
   0.47408196  0.50817611  0.46428236
   0.46619903  0.52015443  0.52205782
   0.48387892  0.49860491  0.49826979
   0.53182961  0.50296965  0.50365299
   0.57037501  0.50622953  0.50765180
Direct configuration=    60
   0.47362572  0.46390987  0.50404835
   0.47408977  0.50817831  0.46428480
   0.46618512  0.52015852  0.52205576
   0.48387844  0.49861166  0.49827544
   0.53182704  0.50297181  0.50365871
   0.57037994  0.50620910  0.50763600
Direct configuration=    61
   0.47362561  0.46390997  0.50404849
   0.47408976  0.50817841  0.46428483
   0.46618532  0.52015868  0.52205578
   0.48387831  0.49861168  0.49827542
   0.53182795  0.50297170  0.50365868
   0.57037909  0.50620885  0.50763586
Direct configuration=    62
   0.47362539  0.46391017  0.50404877
   0.47408973  0.50817863  0.46428488
   0.46618575  0.52015902  0.52205581
   0.48387812  0.49861173  0.49827539
   0.53182906  0.50297141  0.50365854
   0.57037797  0.50620836  0.50763564
Direct configuration=    63
   0.47362536  0.46391020  0.50404880
   0.47408972  0.50817865  0.46428489
   0.46618580  0.52015906  0.52205582
   0.48387813  0.49861174  0.49827539
   0.53182891  0.50297135  0.50365849
   0.57037807  0.50620832  0.50763564
Direct configuration=    64
   0.47362531  0.46391025  0.50404887
   0.47408973  0.50817870  0.46428490
   0.46618588  0.52015915  0.52205583
   0.48387815  0.49861177  0.49827540
   0.53182865  0.50297124  0.50365842
   0.57037827  0.50620822  0.50763562
Direct configuration=    65
   0.47362526  0.46391033  0.50404897
   0.47408976  0.50817878  0.46428492
   0.46618595  0.52015928  0.52205583
   0.48387817  0.49861182  0.49827543
   0.53182831  0.50297111  0.50365834
   0.57037854  0.50620802  0.50763554
Direct configuration=    66
   0.47362521  0.46391045  0.50404910
   0.47408984  0.50817889  0.46428494
   0.46618594  0.52015946  0.52205582
   0.48387818  0.49861192  0.49827548
   0.53182797  0.50297097  0.50365830
   0.57037882  0.50620767  0.50763537
Direct configuration=    67
   0.47362518  0.46391061  0.50404926
   0.47408999  0.50817902  0.46428497
   0.46618582  0.52015969  0.52205580
   0.48387817  0.49861207  0.49827558
   0.53182771  0.50297085  0.50365832
   0.57037909  0.50620714  0.50763508
Direct configuration=    68
   0.47362517  0.46391081  0.50404945
   0.47409021  0.50817917  0.46428500
   0.46618558  0.52015995  0.52205576
   0.48387813  0.49861228  0.49827571
   0.53182756  0.50297077  0.50365841
   0.57037928  0.50620644  0.50763466
Direct configuration=    69
   0.47362519  0.46391108  0.50404968
   0.47409053  0.50817936  0.46428505
   0.46618518  0.52016030  0.52205570
   0.48387805  0.49861256  0.49827590
   0.53182756  0.50297070  0.50365860
   0.57037940  0.50620545  0.50763405
Direct configuration=    70
   0.47362523  0.46391143  0.50404998
   0.47409097  0.50817961  0.46428511
   0.46618458  0.52016074  0.52205561
   0.48387793  0.49861294  0.49827616
   0.53182774  0.50297067  0.50365889
   0.57037943  0.50620411  0.50763321
Direct configuration=    71
   0.47362530  0.46391189  0.50405035
   0.47409157  0.50817992  0.46428518
   0.46618373  0.52016130  0.52205548
   0.48387775  0.49861345  0.49827652
   0.53182805  0.50297068  0.50365933
   0.57037943  0.50620233  0.50763207
Direct configuration=    72
   0.47362541  0.46391249  0.50405083
   0.47409238  0.50818031  0.46428528
   0.46618256  0.52016201  0.52205530
   0.48387755  0.49861414  0.49827700
   0.53182834  0.50297070  0.50365991
   0.57037954  0.50620000  0.50763058
Direct configuration=    73
   0.47362556  0.46391325  0.50405142
   0.47409342  0.50818080  0.46428540
   0.46618102  0.52016292  0.52205506
   0.48387734  0.49861503  0.49827763
   0.53182837  0.50297073  0.50366066
   0.57037997  0.50619703  0.50762869
Direct configuration=    74
   0.47362556  0.46391325  0.50405142
   0.47409342  0.50818080  0.46428540
   0.46618102  0.52016292  0.52205506
   0.48387734  0.49861503  0.49827763
   0.53182837  0.50297073  0.50366066
   0.57037997  0.50619703  0.50762869
