Created on Fri Jan 10 14:11:09 2020 

           6 atoms
           5 bonds
           7 angles

           4 atom types
           3 bond types
           3 angle types
           0.000000  30.000000 xlo xhi
           0.000000  30.000000 ylo yhi
           0.000000  30.000000 zlo zhi
           0.000000   0.000000   0.000000 xy xz yz

Masses

    1     1.007940000 # H_
    2    12.010700000 # C_3
    3    12.010700000 # C_1
    4    14.006700000 # N_1

Bond Coeffs

    1      331.069389        1.109401  # H_ C_3
    2      387.667471        1.463000  # C_3 C_1
    3      647.145897        1.356458  # C_1 N_1

Angle Coeffs

    1                      fourier       61.342703        0.343737        0.374972        0.281246 # H_ C_3 H_
    2                      fourier       77.372257        0.343737        0.374972        0.281246 # H_ C_3 C_1
    3              cosine/periodic       72.627943               1               1 # C_3 C_1 N_1

Pair Coeffs

    1        0.044000        2.571134 # H_ H_
    2        0.105000        3.430851 # C_3 C_3
    3        0.105000        3.430851 # C_1 C_1
    4        0.069000        3.260689 # N_1 N_1

Atoms

       1        1        1     0.00000   12.67890   15.03300   15.23040
       2        1        1     0.00000   12.67890   16.34940   13.91400
       3        1        1     0.00000   12.67890   16.83120   15.71220
       4        1        2     0.00000   13.05900   16.07130   14.95200
       5        1        3     0.00000   14.51160   16.06650   14.95230
       6        1        4     0.00000   15.67830   16.06200   14.95260

Bonds

       1        1        1        4
       2        1        2        4
       3        1        3        4
       4        2        4        5
       5        3        5        6

Angles

       1        1        1        4        2
       2        1        1        4        3
       3        2        1        4        5
       4        1        2        4        3
       5        2        2        4        5
       6        2        3        4        5
       7        3        4        5        6
