   6   6   0   0
  0.4500000E+04  0.3000000E-08  0.3000000E-08  0.3000000E-08  0.0000000E+00
  1.000000000000000E-004
  CAR 
 unknown system                          
      2.02280260    -24.52430194  301     -7.09135763      1.00000000
    -24.524  0.0000E+00  0.0000E+00
    -24.436  0.0000E+00  0.0000E+00
    -24.347  0.0000E+00  0.0000E+00
    -24.259  0.0000E+00  0.0000E+00
    -24.170  0.0000E+00  0.0000E+00
    -24.082  0.0000E+00  0.0000E+00
    -23.993  0.0000E+00  0.0000E+00
    -23.905  0.0000E+00  0.0000E+00
    -23.816  0.0000E+00  0.0000E+00
    -23.728  0.0000E+00  0.0000E+00
    -23.639  0.1171E-15  0.1036E-16
    -23.551  0.1455E-13  0.1298E-14
    -23.462  0.1220E-11  0.1093E-12
    -23.374  0.6962E-10  0.6270E-11
    -23.285  0.2703E-08  0.2455E-09
    -23.197  0.7149E-07  0.6572E-08
    -23.108  0.1289E-05  0.1206E-06
    -23.020  0.1584E-04  0.1523E-05
    -22.931  0.1330E-03  0.1329E-04
    -22.843  0.7626E-03  0.8077E-04
    -22.754  0.2989E-02  0.3453E-03
    -22.666  0.8014E-02  0.1054E-02
    -22.578  0.1470E-01  0.2356E-02
    -22.489  0.1847E-01  0.3990E-02
    -22.401  0.1588E-01  0.5395E-02
    -22.312  0.9346E-02  0.6222E-02
    -22.224  0.3764E-02  0.6555E-02
    -22.135  0.1037E-02  0.6647E-02
    -22.047  0.1954E-03  0.6664E-02
    -21.958  0.2515E-04  0.6666E-02
    -21.870  0.2210E-05  0.6667E-02
    -21.781  0.1325E-06  0.6667E-02
    -21.693  0.5416E-08  0.6667E-02
    -21.604  0.1508E-09  0.6667E-02
    -21.516  0.2857E-11  0.6667E-02
    -21.427  0.3683E-13  0.6667E-02
    -21.339  0.3262E-15  0.6667E-02
    -21.250  0.0000E+00  0.6667E-02
    -21.162  0.0000E+00  0.6667E-02
    -21.073  0.0000E+00  0.6667E-02
    -20.985  0.0000E+00  0.6667E-02
    -20.896  0.0000E+00  0.6667E-02
    -20.808  0.0000E+00  0.6667E-02
    -20.719  0.0000E+00  0.6667E-02
    -20.631  0.0000E+00  0.6667E-02
    -20.542  0.8364E-17  0.6667E-02
    -20.454  0.1117E-14  0.6667E-02
    -20.365  0.1155E-12  0.6667E-02
    -20.277  0.8125E-11  0.6667E-02
    -20.188  0.3887E-09  0.6667E-02
    -20.100  0.1266E-07  0.6667E-02
    -20.011  0.2811E-06  0.6667E-02
    -19.923  0.4253E-05  0.6667E-02
    -19.834  0.4392E-04  0.6671E-02
    -19.746  0.3097E-03  0.6698E-02
    -19.657  0.1492E-02  0.6830E-02
    -19.569  0.4917E-02  0.7266E-02
    -19.480  0.1109E-01  0.8247E-02
    -19.392  0.1710E-01  0.9760E-02
    -19.303  0.1807E-01  0.1136E-01
    -19.215  0.1306E-01  0.1251E-01
    -19.126  0.6465E-02  0.1309E-01
    -19.038  0.2189E-02  0.1328E-01
    -18.949  0.5071E-03  0.1333E-01
    -18.861  0.8027E-04  0.1333E-01
    -18.772  0.8680E-05  0.1333E-01
    -18.684  0.6405E-06  0.1333E-01
    -18.595  0.3224E-07  0.1333E-01
    -18.507  0.1106E-08  0.1333E-01
    -18.418  0.2582E-10  0.1333E-01
    -18.330  0.4104E-12  0.1333E-01
    -18.241  0.4433E-14  0.1333E-01
    -18.153  0.3346E-16  0.1333E-01
    -18.065  0.0000E+00  0.1333E-01
    -17.976  0.0000E+00  0.1333E-01
    -17.888  0.0000E+00  0.1333E-01
    -17.799  0.0000E+00  0.1333E-01
    -17.711  0.0000E+00  0.1333E-01
    -17.622  0.0000E+00  0.1333E-01
    -17.534  0.0000E+00  0.1333E-01
    -17.445  0.0000E+00  0.1333E-01
    -17.357  0.0000E+00  0.1333E-01
    -17.268  0.0000E+00  0.1333E-01
    -17.180  0.0000E+00  0.1333E-01
    -17.091  0.0000E+00  0.1333E-01
    -17.003  0.0000E+00  0.1333E-01
    -16.914  0.0000E+00  0.1333E-01
    -16.826  0.0000E+00  0.1333E-01
    -16.737  0.0000E+00  0.1333E-01
    -16.649  0.0000E+00  0.1333E-01
    -16.560  0.0000E+00  0.1333E-01
    -16.472  0.0000E+00  0.1333E-01
    -16.383  0.0000E+00  0.1333E-01
    -16.295  0.0000E+00  0.1333E-01
    -16.206  0.0000E+00  0.1333E-01
    -16.118  0.0000E+00  0.1333E-01
    -16.029  0.0000E+00  0.1333E-01
    -15.941  0.0000E+00  0.1333E-01
    -15.852  0.0000E+00  0.1333E-01
    -15.764  0.0000E+00  0.1333E-01
    -15.675  0.0000E+00  0.1333E-01
    -15.587  0.0000E+00  0.1333E-01
    -15.498  0.0000E+00  0.1333E-01
    -15.410  0.0000E+00  0.1333E-01
    -15.321  0.0000E+00  0.1333E-01
    -15.233  0.0000E+00  0.1333E-01
    -15.144  0.0000E+00  0.1333E-01
    -15.056  0.0000E+00  0.1333E-01
    -14.967  0.0000E+00  0.1333E-01
    -14.879  0.0000E+00  0.1333E-01
    -14.790  0.0000E+00  0.1333E-01
    -14.702  0.0000E+00  0.1333E-01
    -14.613  0.0000E+00  0.1333E-01
    -14.525  0.0000E+00  0.1333E-01
    -14.436  0.0000E+00  0.1333E-01
    -14.348  0.0000E+00  0.1333E-01
    -14.259  0.0000E+00  0.1333E-01
    -14.171  0.0000E+00  0.1333E-01
    -14.082  0.0000E+00  0.1333E-01
    -13.994  0.8364E-17  0.1333E-01
    -13.905  0.1246E-14  0.1333E-01
    -13.817  0.1279E-12  0.1333E-01
    -13.728  0.8917E-11  0.1333E-01
    -13.640  0.4229E-09  0.1333E-01
    -13.551  0.1366E-07  0.1333E-01
    -13.463  0.3004E-06  0.1333E-01
    -13.375  0.4507E-05  0.1333E-01
    -13.286  0.4613E-04  0.1334E-01
    -13.198  0.3224E-03  0.1337E-01
    -13.109  0.1540E-02  0.1350E-01
    -13.021  0.5031E-02  0.1395E-01
    -12.932  0.1124E-01  0.1494E-01
    -12.844  0.1720E-01  0.1646E-01
    -12.755  0.1801E-01  0.1806E-01
    -12.667  0.1291E-01  0.1920E-01
    -12.578  0.6333E-02  0.1976E-01
    -12.490  0.2126E-02  0.1995E-01
    -12.401  0.4882E-03  0.1999E-01
    -12.313  0.7661E-04  0.2000E-01
    -12.224  0.8218E-05  0.2000E-01
    -12.136  0.7831E-06  0.2000E-01
    -12.047  0.3220E-05  0.2000E-01
    -11.959  0.3804E-04  0.2000E-01
    -11.870  0.3097E-03  0.2003E-01
    -11.782  0.1723E-02  0.2018E-01
    -11.693  0.6552E-02  0.2076E-01
    -11.605  0.1705E-01  0.2227E-01
    -11.516  0.3036E-01  0.2496E-01
    -11.428  0.3700E-01  0.2823E-01
    -11.339  0.3088E-01  0.3096E-01
    -11.251  0.1764E-01  0.3253E-01
    -11.162  0.6898E-02  0.3314E-01
    -11.074  0.1845E-02  0.3330E-01
    -10.985  0.3374E-03  0.3333E-01
    -10.897  0.4216E-04  0.3333E-01
    -10.808  0.3597E-05  0.3333E-01
    -10.720  0.2093E-06  0.3333E-01
    -10.631  0.8306E-08  0.3333E-01
    -10.543  0.2245E-09  0.3333E-01
    -10.454  0.4130E-11  0.3333E-01
    -10.366  0.5168E-13  0.3333E-01
    -10.277  0.4517E-15  0.3333E-01
    -10.189  0.0000E+00  0.3333E-01
    -10.100  0.0000E+00  0.3333E-01
    -10.012  0.0000E+00  0.3333E-01
     -9.923  0.0000E+00  0.3333E-01
     -9.835  0.0000E+00  0.3333E-01
     -9.746  0.0000E+00  0.3333E-01
     -9.658  0.8364E-17  0.3333E-01
     -9.569  0.1079E-14  0.3333E-01
     -9.481  0.1121E-12  0.3333E-01
     -9.392  0.7905E-11  0.3333E-01
     -9.304  0.3792E-09  0.3333E-01
     -9.215  0.1239E-07  0.3333E-01
     -9.127  0.2756E-06  0.3333E-01
     -9.038  0.4181E-05  0.3333E-01
     -8.950  0.4329E-04  0.3334E-01
     -8.862  0.3060E-03  0.3336E-01
     -8.773  0.1479E-02  0.3350E-01
     -8.685  0.4885E-02  0.3393E-01
     -8.596  0.1105E-01  0.3491E-01
     -8.508  0.1719E-01  0.3643E-01
     -8.419  0.1886E-01  0.3810E-01
     -8.331  0.1666E-01  0.3957E-01
     -8.242  0.1765E-01  0.4113E-01
     -8.154  0.2615E-01  0.4345E-01
     -8.065  0.3569E-01  0.4660E-01
     -7.977  0.3548E-01  0.4974E-01
     -7.888  0.2440E-01  0.5190E-01
     -7.800  0.1150E-01  0.5292E-01
     -7.711  0.3711E-02  0.5325E-01
     -7.623  0.8189E-03  0.5332E-01
     -7.534  0.1235E-03  0.5333E-01
     -7.446  0.1273E-04  0.5333E-01
     -7.357  0.8948E-06  0.5333E-01
     -7.269  0.4291E-07  0.5333E-01
     -7.180  0.1402E-08  0.5333E-01
     -7.092  0.3120E-10  0.5333E-01
     -7.003  0.4725E-12  0.5333E-01
     -6.915  0.4866E-14  0.5333E-01
     -6.826  0.3346E-16  0.5333E-01
     -6.738  0.0000E+00  0.5333E-01
     -6.649  0.0000E+00  0.5333E-01
     -6.561  0.0000E+00  0.5333E-01
     -6.472  0.0000E+00  0.5333E-01
     -6.384  0.0000E+00  0.5333E-01
     -6.295  0.0000E+00  0.5333E-01
     -6.207  0.0000E+00  0.5333E-01
     -6.118  0.0000E+00  0.5333E-01
     -6.030  0.0000E+00  0.5333E-01
     -5.941  0.0000E+00  0.5333E-01
     -5.853  0.0000E+00  0.5333E-01
     -5.764  0.0000E+00  0.5333E-01
     -5.676  0.0000E+00  0.5333E-01
     -5.587  0.0000E+00  0.5333E-01
     -5.499  0.0000E+00  0.5333E-01
     -5.410  0.0000E+00  0.5333E-01
     -5.322  0.0000E+00  0.5333E-01
     -5.233  0.0000E+00  0.5333E-01
     -5.145  0.0000E+00  0.5333E-01
     -5.056  0.0000E+00  0.5333E-01
     -4.968  0.0000E+00  0.5333E-01
     -4.879  0.0000E+00  0.5333E-01
     -4.791  0.0000E+00  0.5333E-01
     -4.702  0.0000E+00  0.5333E-01
     -4.614  0.0000E+00  0.5333E-01
     -4.525  0.0000E+00  0.5333E-01
     -4.437  0.0000E+00  0.5333E-01
     -4.349  0.0000E+00  0.5333E-01
     -4.260  0.0000E+00  0.5333E-01
     -4.172  0.0000E+00  0.5333E-01
     -4.083  0.0000E+00  0.5333E-01
     -3.995  0.0000E+00  0.5333E-01
     -3.906  0.0000E+00  0.5333E-01
     -3.818  0.0000E+00  0.5333E-01
     -3.729  0.0000E+00  0.5333E-01
     -3.641  0.0000E+00  0.5333E-01
     -3.552  0.0000E+00  0.5333E-01
     -3.464  0.0000E+00  0.5333E-01
     -3.375  0.0000E+00  0.5333E-01
     -3.287  0.0000E+00  0.5333E-01
     -3.198  0.0000E+00  0.5333E-01
     -3.110  0.0000E+00  0.5333E-01
     -3.021  0.0000E+00  0.5333E-01
     -2.933  0.0000E+00  0.5333E-01
     -2.844  0.0000E+00  0.5333E-01
     -2.756  0.0000E+00  0.5333E-01
     -2.667  0.0000E+00  0.5333E-01
     -2.579  0.0000E+00  0.5333E-01
     -2.490  0.0000E+00  0.5333E-01
     -2.402  0.0000E+00  0.5333E-01
     -2.313  0.0000E+00  0.5333E-01
     -2.225  0.0000E+00  0.5333E-01
     -2.136  0.0000E+00  0.5333E-01
     -2.048  0.0000E+00  0.5333E-01
     -1.959  0.7528E-16  0.5333E-01
     -1.871  0.9401E-14  0.5333E-01
     -1.782  0.8177E-12  0.5333E-01
     -1.694  0.4837E-10  0.5333E-01
     -1.605  0.1948E-08  0.5333E-01
     -1.517  0.5340E-07  0.5333E-01
     -1.428  0.9978E-06  0.5333E-01
     -1.340  0.1272E-04  0.5333E-01
     -1.251  0.1107E-03  0.5334E-01
     -1.163  0.6577E-03  0.5340E-01
     -1.074  0.2673E-02  0.5364E-01
     -0.986  0.7442E-02  0.5430E-01
     -0.897  0.1428E-01  0.5556E-01
     -0.809  0.1943E-01  0.5728E-01
     -0.720  0.2090E-01  0.5913E-01
     -0.632  0.2324E-01  0.6119E-01
     -0.543  0.3066E-01  0.6390E-01
     -0.455  0.3747E-01  0.6722E-01
     -0.366  0.3440E-01  0.7026E-01
     -0.278  0.2286E-01  0.7228E-01
     -0.189  0.1334E-01  0.7346E-01
     -0.101  0.1222E-01  0.7455E-01
     -0.012  0.1647E-01  0.7600E-01
      0.076  0.1855E-01  0.7764E-01
      0.165  0.1471E-01  0.7895E-01
      0.253  0.8012E-02  0.7965E-01
      0.341  0.2988E-02  0.7992E-01
      0.430  0.7621E-03  0.7999E-01
      0.518  0.1329E-03  0.8000E-01
      0.607  0.1583E-04  0.8000E-01
      0.695  0.1287E-05  0.8000E-01
      0.784  0.7140E-07  0.8000E-01
      0.872  0.2699E-08  0.8000E-01
      0.961  0.6951E-10  0.8000E-01
      1.049  0.1218E-11  0.8000E-01
      1.138  0.1452E-13  0.8000E-01
      1.226  0.1171E-15  0.8000E-01
      1.315  0.0000E+00  0.8000E-01
      1.403  0.0000E+00  0.8000E-01
      1.492  0.0000E+00  0.8000E-01
      1.580  0.0000E+00  0.8000E-01
      1.669  0.0000E+00  0.8000E-01
      1.757  0.0000E+00  0.8000E-01
      1.846  0.0000E+00  0.8000E-01
      1.934  0.0000E+00  0.8000E-01
      2.023  0.0000E+00  0.8000E-01
