    6    6  300    1
  0.4500000E+04  0.3000000E-08  0.3000000E-08  0.3000000E-08  0.0000000E+00
  1.000000000000000E-004
  CAR 
 unknown system                          
     16      4     12
 
  0.2500000E+00  0.2500000E+00  0.2500000E+00  0.2500000E+00
    1      -22.524302   1.000000
    2      -19.379086   1.000000
    3      -12.832832   1.000000
    4      -11.471910   1.000000
    5      -11.468042   1.000000
    6       -8.494179   1.000000
    7       -8.065817   1.000000
    8       -8.061478   1.000000
    9       -0.835840   0.000000
   10       -0.473029   0.000000
   11       -0.467226   0.000000
   12        0.022803   0.000000
 
 -0.2500000E+00  0.2500000E+00  0.2500000E+00  0.2500000E+00
    1      -22.524301   1.000000
    2      -19.379088   1.000000
    3      -12.832832   1.000000
    4      -11.471910   1.000000
    5      -11.468043   1.000000
    6       -8.494176   1.000000
    7       -8.065818   1.000000
    8       -8.061477   1.000000
    9       -0.835840   0.000000
   10       -0.473025   0.000000
   11       -0.467226   0.000000
   12        0.022769   0.000000
 
  0.2500000E+00 -0.2500000E+00  0.2500000E+00  0.2500000E+00
    1      -22.524302   1.000000
    2      -19.379087   1.000000
    3      -12.832831   1.000000
    4      -11.471916   1.000000
    5      -11.468046   1.000000
    6       -8.494181   1.000000
    7       -8.065798   1.000000
    8       -8.061485   1.000000
    9       -0.835840   0.000000
   10       -0.473026   0.000000
   11       -0.467229   0.000000
   12        0.022781   0.000000
 
 -0.2500000E+00 -0.2500000E+00  0.2500000E+00  0.2500000E+00
    1      -22.524301   1.000000
    2      -19.379087   1.000000
    3      -12.832831   1.000000
    4      -11.471917   1.000000
    5      -11.468045   1.000000
    6       -8.494176   1.000000
    7       -8.065799   1.000000
    8       -8.061494   1.000000
    9       -0.835840   0.000000
   10       -0.473025   0.000000
   11       -0.467218   0.000000
   12        0.022704   0.000000
