 vasp.5.4.1 24Jun15 (build Jan 13 2020 12:58:22) complex                        
  
 executed on           IFC91_ompi date 2020.02.03  02:42:24
 running on   15 total cores
 each image running on    1 cores
 distrk:  each k-point on    1 cores,    1 groups
 distr:  one band on NCORES_PER_BAND=   1 cores,    1 groups


--------------------------------------------------------------------------------------------------------


 INCAR:
 POTCAR:    PAW_PBE H 15Jun2001                   
 POTCAR:    PAW_PBE C 08Apr2002                   
 POTCAR:    PAW_PBE N 08Apr2002                   
 POTCAR:    PAW_PBE H 15Jun2001                   
   VRHFIN =H: ultrasoft test                                                    
   LEXCH  = PE                                                                  
   EATOM  =    12.4884 eV,    0.9179 Ry                                         
                                                                                
   TITEL  = PAW_PBE H 15Jun2001                                                 
   LULTRA =        F    use ultrasoft PP ?                                      
   IUNSCR =        0    unscreen: 0-lin 1-nonlin 2-no                           
   RPACOR =    0.000    partial core radius                                     
   POMASS =    1.000; ZVAL   =    1.000    mass and valenz                      
   RCORE  =    1.100    outmost cutoff radius                                   
   RWIGS  =    0.700; RWIGS  =    0.370    wigner-seitz radius (au A)           
   ENMAX  =  250.000; ENMIN  =  200.000 eV                                      
   RCLOC  =    0.701    cutoff for local pot                                    
   LCOR   =        T    correct aug charges                                     
   LPAW   =        T    paw PP                                                  
   EAUG   =  400.000                                                            
   RMAX   =    1.123    core radius for proj-oper                               
   RAUG   =    1.200    factor for augmentation sphere                          
   RDEP   =    1.112    radius for radial grids                                 
   RDEPT  =    0.926    core radius for aug-charge                              
                                                                                
   Atomic configuration                                                         
    2 entries                                                                   
     n  l   j            E        occ.                                          
     1  0  0.50        -6.4927   1.0000                                         
     2  1  0.50        -3.4015   0.0000                                         
   Description                                                                  
     l       E           TYP  RCUT    TYP  RCUT                                 
     0     -6.4927494     23  1.100                                             
     0      6.8029130     23  1.100                                             
     1     -4.0817478     23  1.100                                             
  local pseudopotential read in
  atomic valenz-charges read in
  non local Contribution for L=           0  read in
    real space projection operators read in
  non local Contribution for L=           0  read in
    real space projection operators read in
  non local Contribution for L=           1  read in
    real space projection operators read in
    PAW grid and wavefunctions read in
 
   number of l-projection  operators is LMAX  =           3
   number of lm-projection operators is LMMAX =           5
 
 POTCAR:    PAW_PBE C 08Apr2002                   
   VRHFIN =C: s2p2                                                              
   LEXCH  = PE                                                                  
   EATOM  =   147.1560 eV,   10.8157 Ry                                         
                                                                                
   TITEL  = PAW_PBE C 08Apr2002                                                 
   LULTRA =        F    use ultrasoft PP ?                                      
   IUNSCR =        1    unscreen: 0-lin 1-nonlin 2-no                           
   RPACOR =    1.200    partial core radius                                     
   POMASS =   12.011; ZVAL   =    4.000    mass and valenz                      
   RCORE  =    1.500    outmost cutoff radius                                   
   RWIGS  =    1.630; RWIGS  =    0.863    wigner-seitz radius (au A)           
   ENMAX  =  400.000; ENMIN  =  300.000 eV                                      
   ICORE  =        2    local potential                                         
   LCOR   =        T    correct aug charges                                     
   LPAW   =        T    paw PP                                                  
   EAUG   =  644.873                                                            
   DEXC   =    0.000                                                            
   RMAX   =    1.529    core radius for proj-oper                               
   RAUG   =    1.300    factor for augmentation sphere                          
   RDEP   =    1.501    radius for radial grids                                 
   RDEPT  =    1.300    core radius for aug-charge                              
                                                                                
   Atomic configuration                                                         
    4 entries                                                                   
     n  l   j            E        occ.                                          
     1  0  0.50      -273.3789   2.0000                                         
     2  0  0.50       -13.7508   2.0000                                         
     2  1  0.50        -5.2854   2.0000                                         
     3  2  1.50        -5.4423   0.0000                                         
   Description                                                                  
     l       E           TYP  RCUT    TYP  RCUT                                 
     0    -13.7508458     23  1.200                                             
     0     -8.2022199     23  1.200                                             
     1     -5.2854383     23  1.500                                             
     1     34.0145650     23  1.500                                             
     2     -5.4423304      7  1.500                                             
  local pseudopotential read in
  partial core-charges read in
  partial kinetic energy density read in
  atomic valenz-charges read in
  non local Contribution for L=           0  read in
    real space projection operators read in
  non local Contribution for L=           0  read in
    real space projection operators read in
  non local Contribution for L=           1  read in
    real space projection operators read in
  non local Contribution for L=           1  read in
    real space projection operators read in
    PAW grid and wavefunctions read in
 
   number of l-projection  operators is LMAX  =           4
   number of lm-projection operators is LMMAX =           8
 
 POTCAR:    PAW_PBE N 08Apr2002                   
   VRHFIN =N: s2p3                                                              
   LEXCH  = PE                                                                  
   EATOM  =   264.5486 eV,   19.4438 Ry                                         
                                                                                
   TITEL  = PAW_PBE N 08Apr2002                                                 
   LULTRA =        F    use ultrasoft PP ?                                      
   IUNSCR =        1    unscreen: 0-lin 1-nonlin 2-no                           
   RPACOR =    1.200    partial core radius                                     
   POMASS =   14.001; ZVAL   =    5.000    mass and valenz                      
   RCORE  =    1.500    outmost cutoff radius                                   
   RWIGS  =    1.400; RWIGS  =    0.741    wigner-seitz radius (au A)           
   ENMAX  =  400.000; ENMIN  =  300.000 eV                                      
   ICORE  =        2    local potential                                         
   LCOR   =        T    correct aug charges                                     
   LPAW   =        T    paw PP                                                  
   EAUG   =  627.112                                                            
   DEXC   =    0.000                                                            
   RMAX   =    1.529    core radius for proj-oper                               
   RAUG   =    1.300    factor for augmentation sphere                          
   RDEP   =    1.514    radius for radial grids                                 
   RDEPT  =    1.338    core radius for aug-charge                              
                                                                                
   Atomic configuration                                                         
    4 entries                                                                   
     n  l   j            E        occ.                                          
     1  0  0.50      -384.7179   2.0000                                         
     2  0  0.50       -18.5828   2.0000                                         
     2  1  0.50        -7.0898   3.0000                                         
     3  2  1.50        -6.8029   0.0000                                         
   Description                                                                  
     l       E           TYP  RCUT    TYP  RCUT                                 
     0    -18.5828119     23  1.200                                             
     0    -13.5018863     23  1.200                                             
     1     -7.0897853     23  1.500                                             
     1      9.5240782     23  1.500                                             
     2     -6.8029130      7  1.500                                             
  local pseudopotential read in
  partial core-charges read in
  partial kinetic energy density read in
  atomic valenz-charges read in
  non local Contribution for L=           0  read in
    real space projection operators read in
  non local Contribution for L=           0  read in
    real space projection operators read in
  non local Contribution for L=           1  read in
    real space projection operators read in
  non local Contribution for L=           1  read in
    real space projection operators read in
    PAW grid and wavefunctions read in
 
   number of l-projection  operators is LMAX  =           4
   number of lm-projection operators is LMMAX =           8
 

 ----------------------------------------------------------------------------- 
|                                                                             |
|  ADVICE TO THIS USER RUNNING 'VASP/VAMP'   (HEAR YOUR MASTER'S VOICE ...):  |
|                                                                             |
|      You have a (more or less) 'small supercell' and for smaller cells      |
|      it is recommended  to use the reciprocal-space projection scheme!      |
|      The real space optimization is not  efficient for small cells and it   |
|      is also less accurate ...                                              |
|      Therefore set LREAL=.FALSE. in the  INCAR file                         |
|                                                                             |
 ----------------------------------------------------------------------------- 

 Optimization of the real space projectors (new method)

 maximal supplied QI-value         = 34.20
 optimisation between [QCUT,QGAM] = [  9.92, 20.18] = [ 27.55,114.04] Ry 
 Optimized for a Real-space Cutoff    1.26 Angstroem

   l    n(q)    QCUT    max X(q) W(low)/X(q) W(high)/X(q)  e(spline) 
   0      8     9.919    19.460    0.50E-03    0.23E-03    0.29E-06
   0      8     9.919    12.209    0.48E-03    0.23E-03    0.28E-06
   1      7     9.919     4.655    0.17E-03    0.75E-03    0.30E-06
 Optimization of the real space projectors (new method)

 maximal supplied QI-value         = 25.13
 optimisation between [QCUT,QGAM] = [ 10.05, 20.36] = [ 28.30,116.06] Ry 
 Optimized for a Real-space Cutoff    1.30 Angstroem

   l    n(q)    QCUT    max X(q) W(low)/X(q) W(high)/X(q)  e(spline) 
   0      8    10.053   115.676    0.49E-03    0.72E-03    0.18E-06
   0      8    10.053    87.132    0.49E-03    0.71E-03    0.18E-06
   1      7    10.053     4.429    0.32E-03    0.31E-03    0.18E-06
   1      7    10.053     2.733    0.23E-03    0.19E-03    0.20E-06
 Optimization of the real space projectors (new method)

 maximal supplied QI-value         = 25.13
 optimisation between [QCUT,QGAM] = [ 10.05, 20.36] = [ 28.30,116.06] Ry 
 Optimized for a Real-space Cutoff    1.65 Angstroem

   l    n(q)    QCUT    max X(q) W(low)/X(q) W(high)/X(q)  e(spline) 
   0     10    10.053    79.467    0.76E-04    0.72E-04    0.56E-06
   0     10    10.053    66.151    0.76E-04    0.72E-04    0.55E-06
   1     10    10.053     8.350    0.25E-03    0.92E-03    0.41E-05
   1     10    10.053     5.531    0.27E-03    0.10E-02    0.45E-05
  PAW_PBE H 15Jun2001                   :
 energy of atom  1       EATOM=  -12.4884
 kinetic energy error for atom=    0.0098 (will be added to EATOM!!)
  PAW_PBE C 08Apr2002                   :
 energy of atom  2       EATOM= -147.1560
 kinetic energy error for atom=    0.0288 (will be added to EATOM!!)
  PAW_PBE N 08Apr2002                   :
 energy of atom  3       EATOM= -264.5486
 kinetic energy error for atom=    0.0736 (will be added to EATOM!!)
 
 
 POSCAR: H3 C2 N1                                
  positions in direct lattice
  velocities in cartesian coordinates
 exchange correlation table for  LEXCH =        8
   RHO(1)=    0.500       N(1)  =     2000
   RHO(2)=  100.500       N(2)  =     4000

 VTST: version 3.2, (02/03/18)

 CHAIN: initializing optimizer
 
 OPT: Using FIRE optimizer
 OPT: FIRE, Init
 OPT: FIRE, MAXMOVE       0.20000
 OPT: FIRE, TIMESTEP      0.10000
 OPT: FIRE, FTIMEMAX      1.00000
 OPT: FIRE, FTIMEINC      1.10000
 OPT: FIRE, FTIMEDEC      0.50000
 OPT: FIRE, FALPHADEC     0.99000
 OPT: FIRE, FALPHA        0.10000
 OPT: FIRE, FNMIN         5
 
 CHAIN: Read ICHAIN            0
 CHAIN: Running the NEB
 NEB:          SPRING     -5.000000
 NEB:          LCLIMB      T
 NEB:     LTANGENTOLD      F
 NEB:           LDNEB      F
 NEB:        LDNEBORG      F
 NEB:        LNEBCELL      F
 NEB:          EFIRST      0.000000
 NEB:           ELAST      0.000000
 
 POSCAR: H3 C2 N1                                
  positions in direct lattice
  No initial velocities read in
 
 POSCAR: H3 C2 N1                                
  positions in direct lattice
  No initial velocities read in
 


--------------------------------------------------------------------------------------------------------


 ion  position               nearest neighbor table
   1  0.471  0.466  0.502-   4 1.10
   2  0.477  0.512  0.465-   4 1.10
   3  0.467  0.521  0.523-   4 1.10
   4  0.484  0.500  0.499-   3 1.10   2 1.10   1 1.10   5 1.45
   5  0.532  0.499  0.505-   6 1.16   4 1.45
   6  0.570  0.496  0.508-   5 1.16
 
  LATTYP: Found a simple cubic cell.
 ALAT       =    30.0000000000
  
  Lattice vectors:
  
 A1 = (  30.0000000000,   0.0000000000,   0.0000000000)
 A2 = (   0.0000000000,  30.0000000000,   0.0000000000)
 A3 = (   0.0000000000,   0.0000000000,  30.0000000000)


Analysis of symmetry for initial positions (statically):
=====================================================================
 Subroutine PRICEL returns:
 Original cell was already a primitive cell.
 

 Routine SETGRP: Setting up the symmetry group for a 
 simple cubic supercell.


 Subroutine GETGRP returns: Found  1 space group operations
 (whereof  1 operations were pure point group operations)
 out of a pool of 48 trial point group operations.


The static configuration has the point symmetry C_1 .


Analysis of symmetry for dynamics (positions and initial velocities):
=====================================================================
 Subroutine PRICEL returns:
 Original cell was already a primitive cell.
 

 Routine SETGRP: Setting up the symmetry group for a 
 simple cubic supercell.


 Subroutine GETGRP returns: Found  1 space group operations
 (whereof  1 operations were pure point group operations)
 out of a pool of 48 trial point group operations.


The dynamic configuration has the point symmetry C_1 .
 
 
 KPOINTS: Mo2C                                    

Automatic generation of k-mesh.
Space group operators:
 irot       det(A)        alpha          n_x          n_y          n_z        tau_x        tau_y        tau_z
    1     1.000000     0.000000     1.000000     0.000000     0.000000     0.000000     0.000000     0.000000
 
 Subroutine IBZKPT returns following result:
 ===========================================
 
 Found      4 irreducible k-points:
 
 Following reciprocal coordinates:
            Coordinates               Weight
  0.250000  0.250000  0.250000      2.000000
 -0.250000  0.250000  0.250000      2.000000
  0.250000 -0.250000  0.250000      2.000000
 -0.250000 -0.250000  0.250000      2.000000
 
 Following cartesian coordinates:
            Coordinates               Weight
  0.008333  0.008333  0.008333      2.000000
 -0.008333  0.008333  0.008333      2.000000
  0.008333 -0.008333  0.008333      2.000000
 -0.008333 -0.008333  0.008333      2.000000
 


--------------------------------------------------------------------------------------------------------




 Dimension of arrays:
   k-points           NKPTS =      4   k-points in BZ     NKDIM =      4   number of bands    NBANDS=     12
   number of dos      NEDOS =    301   number of ions     NIONS =      6
   non local maximal  LDIM  =      4   non local SUM 2l+1 LMDIM =      8
   total plane-waves  NPLWV = ******
   max r-space proj   IRMAX =   2395   max aug-charges    IRDMAX=   1738
   dimension x,y,z NGX =   150 NGY =  150 NGZ =  150
   dimension x,y,z NGXF=   300 NGYF=  300 NGZF=  300
   support grid    NGXF=   300 NGYF=  300 NGZF=  300
   ions per type =               3   2   1
 NGX,Y,Z   is equivalent  to a cutoff of   8.31,  8.31,  8.31 a.u.
 NGXF,Y,Z  is equivalent  to a cutoff of  16.62, 16.62, 16.62 a.u.


 I would recommend the setting:
   dimension x,y,z NGX =   147 NGY =  147 NGZ =  147
 SYSTEM =  unknown system                          
 POSCAR =  H3 C2 N1                                

 Startparameter for this run:
   NWRITE =      2    write-flag & timer
   PREC   = normal    normal or accurate (medium, high low for compatibility)
   ISTART =      0    job   : 0-new  1-cont  2-samecut
   ICHARG =      2    charge: 1-file 2-atom 10-const
   ISPIN  =      1    spin polarized calculation?
   LNONCOLLINEAR =      F non collinear calculations
   LSORBIT =      F    spin-orbit coupling
   INIWAV =      1    electr: 0-lowe 1-rand  2-diag
   LASPH  =      F    aspherical Exc in radial PAW
   METAGGA=      F    non-selfconsistent MetaGGA calc.

 Electronic Relaxation 1
   ENCUT  =  400.0 eV  29.40 Ry    5.42 a.u.  48.92 48.92 48.92*2*pi/ulx,y,z
   ENINI  =  400.0     initial cutoff
   ENAUG  =  644.9 eV  augmentation charge cutoff
   NELM   =    500;   NELMIN=  6; NELMDL= -5     # of ELM steps 
   EDIFF  = 0.1E-03   stopping-criterion for ELM
   LREAL  =      T    real-space projection
   NLSPLINE    = F    spline interpolate recip. space projectors
   LCOMPAT=      F    compatible to vasp.4.4
   GGA_COMPAT  = T    GGA compatible to vasp.4.4-vasp.4.6
   LMAXPAW     = -100 max onsite density
   LMAXMIX     =    2 max onsite mixed and CHGCAR
   VOSKOWN=      0    Vosko Wilk Nusair interpolation
   ROPT   =   -0.00050  -0.00050  -0.00050
 Ionic relaxation
   EDIFFG = -.1E+00   stopping-criterion for IOM
   NSW    =    300    number of steps for IOM
   NBLOCK =      1;   KBLOCK =    300    inner block; outer block 
   IBRION =      3    ionic relax: 0-MD 1-quasi-New 2-CG
   NFREE  =      0    steps in history (QN), initial steepest desc. (CG)
   ISIF   =      2    stress and relaxation
   IWAVPR =     11    prediction:  0-non 1-charg 2-wave 3-comb
   ISYM   =      2    0-nonsym 1-usesym 2-fastsym
   LCORR  =      T    Harris-Foulkes like correction to forces

   POTIM  = 0.0000    time-step for ionic-motion
   TEIN   =    0.0    initial temperature
   TEBEG  =    0.0;   TEEND  =   0.0 temperature during run
   SMASS  =   2.00    Nose mass-parameter (am)
   estimated Nose-frequenzy (Omega)   =  0.12E+10 period in steps =  0.00 mass=   0.137E-25a.u.
   SCALEE = 1.0000    scale energy and forces
   NPACO  =    256;   APACO  = 16.0  distance and # of slots for P.C.
   PSTRESS=    0.0 pullay stress

  Mass of Ions in am
   POMASS =   1.00 12.01 14.00
  Ionic Valenz
   ZVAL   =   1.00  4.00  5.00
  Atomic Wigner-Seitz radii
   RWIGS  =  -1.00 -1.00 -1.00
  virtual crystal weights 
   VCA    =   1.00  1.00  1.00
   NELECT =      16.0000    total number of electrons
   NUPDOWN=      -1.0000    fix difference up-down

 DOS related values:
   EMIN   =  10.00;   EMAX   =-10.00  energy-range for DOS
   EFERMI =   0.00
   ISMEAR =     0;   SIGMA  =   0.20  broadening in eV -4-tet -1-fermi 0-gaus

 Electronic relaxation 2 (details)
   IALGO  =     38    algorithm
   LDIAG  =      T    sub-space diagonalisation (order eigenvalues)
   LSUBROT=      F    optimize rotation matrix (better conditioning)
   TURBO    =      0    0=normal 1=particle mesh
   IRESTART =      0    0=no restart 2=restart with 2 vectors
   NREBOOT  =      0    no. of reboots
   NMIN     =      0    reboot dimension
   EREF     =   0.00    reference energy to select bands
   IMIX   =      4    mixing-type and parameters
     AMIX     =   0.40;   BMIX     =  1.00
     AMIX_MAG =   1.60;   BMIX_MAG =  1.00
     AMIN     =   0.10
     WC   =   100.;   INIMIX=   1;  MIXPRE=   1;  MAXMIX= -45

 Intra band minimization:
   WEIMIN = 0.0010     energy-eigenvalue tresh-hold
   EBREAK =  0.21E-05  absolut break condition
   DEPER  =   0.30     relativ break condition  

   TIME   =   0.40     timestep for ELM

  volume/ion in A,a.u.               =    4500.00     30367.50
  Fermi-wavevector in a.u.,A,eV,Ry     =   0.137508  0.259852  0.257264  0.018908
  Thomas-Fermi vector in A             =   0.790710
 
 Write flags
   LWAVE  =      F    write WAVECAR
   LCHARG =      F    write CHGCAR
   LVTOT  =      F    write LOCPOT, total local potential
   LVHAR  =      F    write LOCPOT, Hartree potential only
   LELF   =      F    write electronic localiz. function (ELF)
   LORBIT =      0    0 simple, 1 ext, 2 COOP (PROOUT)


 Dipole corrections
   LMONO  =      F    monopole corrections only (constant potential shift)
   LDIPOL =      F    correct potential (dipole corrections)
   IDIPOL =      0    1-x, 2-y, 3-z, 4-all directions 
   EPSILON=  1.0000000 bulk dielectric constant

 Exchange correlation treatment:
   GGA     =    PE    GGA type
   LEXCH   =     8    internal setting for exchange type
   VOSKOWN=      0    Vosko Wilk Nusair interpolation
   LHFCALC =     F    Hartree Fock is set to
   LHFONE  =     F    Hartree Fock one center treatment
   AEXX    =    0.0000 exact exchange contribution

 Linear response parameters
   LEPSILON=     F    determine dielectric tensor
   LRPA    =     F    only Hartree local field effects (RPA)
   LNABLA  =     F    use nabla operator in PAW spheres
   LVEL    =     F    velocity operator in full k-point grid
   LINTERFAST=   F  fast interpolation
   KINTER  =     0    interpolate to denser k-point grid
   CSHIFT  =0.1000    complex shift for real part using Kramers Kronig
   OMEGAMAX=  -1.0    maximum frequency
   DEG_THRESHOLD= 0.2000000E-02 threshold for treating states as degnerate
   RTIME   =    0.100 relaxation time in fs

 Orbital magnetization related:
   ORBITALMAG=     F  switch on orbital magnetization
   LCHIMAG   =     F  perturbation theory with respect to B field
   DQ        =  0.001000  dq finite difference perturbation B field



--------------------------------------------------------------------------------------------------------


 quickmin algorithm: (dynamic with friction)
 charge density and potential will be updated during run
 non-spin polarized calculation
 Variant of blocked Davidson
 Davidson routine will perform the subspace rotation
 perform sub-space diagonalisation
    after iterative eigenvector-optimisation
 modified Broyden-mixing scheme, WC =      100.0
 initial mixing is a Kerker type mixing with AMIX =  0.4000 and BMIX =      1.0000
 Hartree-type preconditioning will be used
 using additional bands            4
 real space projection scheme for non local part
 use partial core corrections
 calculate Harris-corrections to forces 
   (improved forces if not selfconsistent)
 use gradient corrections 
 use of overlap-Matrix (Vanderbilt PP)
 Gauss-broadening in eV      SIGMA  =   0.20


--------------------------------------------------------------------------------------------------------


  energy-cutoff  :      400.00
  volume of cell :    27000.00
      direct lattice vectors                 reciprocal lattice vectors
    30.000000000  0.000000000  0.000000000     0.033333333  0.000000000  0.000000000
     0.000000000 30.000000000  0.000000000     0.000000000  0.033333333  0.000000000
     0.000000000  0.000000000 30.000000000     0.000000000  0.000000000  0.033333333

  length of vectors
    30.000000000 30.000000000 30.000000000     0.033333333  0.033333333  0.033333333


 
 k-points in units of 2pi/SCALE and weight: Mo2C                                    
   0.00833333  0.00833333  0.00833333       0.250
  -0.00833333  0.00833333  0.00833333       0.250
   0.00833333 -0.00833333  0.00833333       0.250
  -0.00833333 -0.00833333  0.00833333       0.250
 
 k-points in reciprocal lattice and weights: Mo2C                                    
   0.25000000  0.25000000  0.25000000       0.250
  -0.25000000  0.25000000  0.25000000       0.250
   0.25000000 -0.25000000  0.25000000       0.250
  -0.25000000 -0.25000000  0.25000000       0.250
 
 position of ions in fractional coordinates (direct lattice) 
   0.47071245  0.46573074  0.50203498
   0.47666259  0.51206829  0.46487930
   0.46657573  0.52148447  0.52275305
   0.48375619  0.49984095  0.49870611
   0.53169363  0.49905983  0.50533892
   0.57035532  0.49623489  0.50763819
 
 position of ions in cartesian coordinates  (Angst):
  14.12137350 13.97192221 15.06104935
  14.29987779 15.36204874 13.94637893
  13.99727182 15.64453418 15.68259136
  14.51268567 14.99522859 14.96118341
  15.95080899 14.97179484 15.16016749
  17.11065954 14.88704677 15.22914574
 


--------------------------------------------------------------------------------------------------------


 k-point  1 :   0.2500 0.2500 0.2500  plane waves:  490454
 k-point  2 :  -0.2500 0.2500 0.2500  plane waves:  490454
 k-point  3 :   0.2500-0.2500 0.2500  plane waves:  490454
 k-point  4 :  -0.2500-0.2500 0.2500  plane waves:  490454

 maximum and minimum number of plane-waves per node :    490454   490454

 maximum number of plane-waves:    490454
 maximum index in each direction: 
   IXMAX=   49   IYMAX=   49   IZMAX=   48
   IXMIN=  -49   IYMIN=  -49   IZMIN=  -49

 WARNING: aliasing errors must be expected set NGX to 198 to avoid them
 WARNING: aliasing errors must be expected set NGY to 198 to avoid them
 WARNING: aliasing errors must be expected set NGZ to 196 to avoid them
 aliasing errors are usually negligible using standard VASP settings
 and one can safely disregard these warnings

 serial   3D FFT for wavefunctions
 parallel 3D FFT for charge:
    minimum data exchange during FFTs selected (reduces bandwidth)


 total amount of memory used by VASP on root node  3203889. kBytes
========================================================================

   base      :      30000. kBytes
   nonlr-proj:        693. kBytes
   fftplans  :     924480. kBytes
   grid      :    1872000. kBytes
   one-center:         18. kBytes
   wavefun   :     376698. kBytes
 
     INWAV:  cpu time    0.0000: real time    0.0004
 Broyden mixing: mesh for mixing (old mesh)
   NGX = 97   NGY = 97   NGZ = 97
  (NGX  =300   NGY  =300   NGZ  =300)
  gives a total of 912673 points

 initial charge density was supplied:
 charge density of overlapping atoms calculated
 number of electron      16.0000000 magnetization 
 keeping initial charge density in first step


--------------------------------------------------------------------------------------------------------


 Maximum index for non-local projection operator         2278
 Maximum index for augmentation-charges         1491 (set IRDMAX)


--------------------------------------------------------------------------------------------------------


 First call to EWALD:  gamma=   0.059
 Maximum number of real-space cells 3x 3x 3
 Maximum number of reciprocal cells 3x 3x 3

 FEWALD executed in parallel
    FEWALD:  cpu time    0.0020: real time    0.0018


----------------------------------------- Iteration    1(   1)  ---------------------------------------


    POTLOK:  cpu time   17.3284: real time   17.3648
    SETDIJ:  cpu time    0.0060: real time    0.0064
     EDDAV:  cpu time   83.7473: real time   83.9233
       DOS:  cpu time    0.0000: real time    0.0003
    --------------------------------------------
      LOOP:  cpu time  101.0836: real time  101.2989

 eigenvalue-minimisations  :   160
 total energy-change (2. order) : 0.1162540E+03  (-0.2117016E+03)
 number of electron      16.0000000 magnetization 
 augmentation part       16.0000000 magnetization 

 Free energy of the ion-electron system (eV)
  ---------------------------------------------------
  alpha Z        PSCENC =         0.04144063
  Ewald energy   TEWEN  =       674.02961154
  -Hartree energ DENC   =     -1087.91223154
  -exchange      EXHF   =         0.00000000
  -V(xc)+E(xc)   XCENC  =        51.37406588
  PAW double counting   =       428.37890668     -430.73533574
  entropy T*S    EENTRO =        -0.17665088
  eigenvalues    EBANDS =      -114.91110638
  atomic energy  EATOM  =       596.16534815
  Solvation  Ediel_sol  =         0.00000000
  ---------------------------------------------------
  free energy    TOTEN  =       116.25404833 eV

  energy without entropy =      116.43069921  energy(sigma->0) =      116.34237377


--------------------------------------------------------------------------------------------------------




----------------------------------------- Iteration    1(   2)  ---------------------------------------


     EDDAV:  cpu time   98.9220: real time   99.1331
       DOS:  cpu time    0.0000: real time    0.0002
    --------------------------------------------
      LOOP:  cpu time   98.9230: real time   99.1364

 eigenvalue-minimisations  :   192
 total energy-change (2. order) :-0.1161574E+03  (-0.1133261E+03)
 number of electron      16.0000000 magnetization 
 augmentation part       16.0000000 magnetization 

 Free energy of the ion-electron system (eV)
  ---------------------------------------------------
  alpha Z        PSCENC =         0.04144063
  Ewald energy   TEWEN  =       674.02961154
  -Hartree energ DENC   =     -1087.91223154
  -exchange      EXHF   =         0.00000000
  -V(xc)+E(xc)   XCENC  =        51.37406588
  PAW double counting   =       428.37890668     -430.73533574
  entropy T*S    EENTRO =         0.00000000
  eigenvalues    EBANDS =      -231.24513440
  atomic energy  EATOM  =       596.16534815
  Solvation  Ediel_sol  =         0.00000000
  ---------------------------------------------------
  free energy    TOTEN  =         0.09667120 eV

  energy without entropy =        0.09667120  energy(sigma->0) =        0.09667120


--------------------------------------------------------------------------------------------------------




----------------------------------------- Iteration    1(   3)  ---------------------------------------


     EDDAV:  cpu time   70.1243: real time   70.2738
       DOS:  cpu time    0.0000: real time    0.0002
    --------------------------------------------
      LOOP:  cpu time   70.1253: real time   70.2778

 eigenvalue-minimisations  :   128
 total energy-change (2. order) :-0.3711580E+02  (-0.3701192E+02)
 number of electron      16.0000000 magnetization 
 augmentation part       16.0000000 magnetization 

 Free energy of the ion-electron system (eV)
  ---------------------------------------------------
  alpha Z        PSCENC =         0.04144063
  Ewald energy   TEWEN  =       674.02961154
  -Hartree energ DENC   =     -1087.91223154
  -exchange      EXHF   =         0.00000000
  -V(xc)+E(xc)   XCENC  =        51.37406588
  PAW double counting   =       428.37890668     -430.73533574
  entropy T*S    EENTRO =         0.00000000
  eigenvalues    EBANDS =      -268.36092942
  atomic energy  EATOM  =       596.16534815
  Solvation  Ediel_sol  =         0.00000000
  ---------------------------------------------------
  free energy    TOTEN  =       -37.01912382 eV

  energy without entropy =      -37.01912382  energy(sigma->0) =      -37.01912382


--------------------------------------------------------------------------------------------------------




----------------------------------------- Iteration    1(   4)  ---------------------------------------


     EDDAV:  cpu time   70.4663: real time   70.6178
       DOS:  cpu time    0.0000: real time    0.0002
    --------------------------------------------
      LOOP:  cpu time   70.4683: real time   70.6212

 eigenvalue-minimisations  :   128
 total energy-change (2. order) :-0.3730859E+01  (-0.3708613E+01)
 number of electron      16.0000000 magnetization 
 augmentation part       16.0000000 magnetization 

 Free energy of the ion-electron system (eV)
  ---------------------------------------------------
  alpha Z        PSCENC =         0.04144063
  Ewald energy   TEWEN  =       674.02961154
  -Hartree energ DENC   =     -1087.91223154
  -exchange      EXHF   =         0.00000000
  -V(xc)+E(xc)   XCENC  =        51.37406588
  PAW double counting   =       428.37890668     -430.73533574
  entropy T*S    EENTRO =         0.00000000
  eigenvalues    EBANDS =      -272.09178792
  atomic energy  EATOM  =       596.16534815
  Solvation  Ediel_sol  =         0.00000000
  ---------------------------------------------------
  free energy    TOTEN  =       -40.74998233 eV

  energy without entropy =      -40.74998233  energy(sigma->0) =      -40.74998233


--------------------------------------------------------------------------------------------------------




----------------------------------------- Iteration    1(   5)  ---------------------------------------


     EDDAV:  cpu time   69.5774: real time   69.7273
       DOS:  cpu time    0.0000: real time    0.0002
    CHARGE:  cpu time    4.9932: real time    5.0040
    MIXING:  cpu time    0.5239: real time    0.5249
    --------------------------------------------
      LOOP:  cpu time   75.0956: real time   75.2599

 eigenvalue-minimisations  :   128
 total energy-change (2. order) :-0.8294210E-01  (-0.8043811E-01)
 number of electron      16.0000003 magnetization 
 augmentation part        0.5275655 magnetization 

 Broyden mixing:
  rms(total) = 0.10940E+01    rms(broyden)= 0.10932E+01
  rms(prec ) = 0.11372E+01
  weight for this iteration     100.00

 Free energy of the ion-electron system (eV)
  ---------------------------------------------------
  alpha Z        PSCENC =         0.04144063
  Ewald energy   TEWEN  =       674.02961154
  -Hartree energ DENC   =     -1087.91223154
  -exchange      EXHF   =         0.00000000
  -V(xc)+E(xc)   XCENC  =        51.37406588
  PAW double counting   =       428.37890668     -430.73533574
  entropy T*S    EENTRO =         0.00000000
  eigenvalues    EBANDS =      -272.17473002
  atomic energy  EATOM  =       596.16534815
  Solvation  Ediel_sol  =         0.00000000
  ---------------------------------------------------
  free energy    TOTEN  =       -40.83292442 eV

  energy without entropy =      -40.83292442  energy(sigma->0) =      -40.83292442


--------------------------------------------------------------------------------------------------------




----------------------------------------- Iteration    1(   6)  ---------------------------------------


    POTLOK:  cpu time   16.4575: real time   16.4930
    SETDIJ:  cpu time    0.0060: real time    0.0062
     EDDAV:  cpu time   65.2291: real time   65.3702
       DOS:  cpu time    0.0010: real time    0.0002
    CHARGE:  cpu time    5.1402: real time    5.1524
    MIXING:  cpu time    0.5579: real time    0.5588
    --------------------------------------------
      LOOP:  cpu time   87.3947: real time   87.5863

 eigenvalue-minimisations  :   120
 total energy-change (2. order) : 0.3297103E+01  (-0.6592297E+00)
 number of electron      16.0000001 magnetization 
 augmentation part        0.4546482 magnetization 

 Broyden mixing:
  rms(total) = 0.59486E+00    rms(broyden)= 0.59460E+00
  rms(prec ) = 0.61089E+00
  weight for this iteration     100.00

 eigenvalues of (default mixing * dielectric matrix)
  average eigenvalue GAMMA=   1.2618
  1.2618

 Free energy of the ion-electron system (eV)
  ---------------------------------------------------
  alpha Z        PSCENC =         0.04144063
  Ewald energy   TEWEN  =       674.02961154
  -Hartree energ DENC   =     -1119.94092487
  -exchange      EXHF   =         0.00000000
  -V(xc)+E(xc)   XCENC  =        53.16859178
  PAW double counting   =       732.36117472     -735.04648422
  entropy T*S    EENTRO =         0.00000000
  eigenvalues    EBANDS =      -238.31457898
  atomic energy  EATOM  =       596.16534815
  Solvation  Ediel_sol  =         0.00000000
  ---------------------------------------------------
  free energy    TOTEN  =       -37.53582125 eV

  energy without entropy =      -37.53582125  energy(sigma->0) =      -37.53582125


--------------------------------------------------------------------------------------------------------




----------------------------------------- Iteration    1(   7)  ---------------------------------------


    POTLOK:  cpu time   16.6665: real time   16.7019
    SETDIJ:  cpu time    0.0060: real time    0.0064
     EDDAV:  cpu time   62.9564: real time   63.0911
       DOS:  cpu time    0.0000: real time    0.0002
    CHARGE:  cpu time    5.0182: real time    5.0288
    MIXING:  cpu time    0.5769: real time    0.5779
    --------------------------------------------
      LOOP:  cpu time   85.2260: real time   85.4100

 eigenvalue-minimisations  :   116
 total energy-change (2. order) : 0.6649868E+00  (-0.1406697E+00)
 number of electron      16.0000001 magnetization 
 augmentation part        0.4561686 magnetization 

 Broyden mixing:
  rms(total) = 0.30101E+00    rms(broyden)= 0.30095E+00
  rms(prec ) = 0.30901E+00
  weight for this iteration     100.00

 eigenvalues of (default mixing * dielectric matrix)
  average eigenvalue GAMMA=   1.4511
  0.9137  1.9886

 Free energy of the ion-electron system (eV)
  ---------------------------------------------------
  alpha Z        PSCENC =         0.04144063
  Ewald energy   TEWEN  =       674.02961154
  -Hartree energ DENC   =     -1136.99059778
  -exchange      EXHF   =         0.00000000
  -V(xc)+E(xc)   XCENC  =        54.10031689
  PAW double counting   =      1040.20674368    -1043.00483596
  entropy T*S    EENTRO =         0.00000000
  eigenvalues    EBANDS =      -221.41886157
  atomic energy  EATOM  =       596.16534815
  Solvation  Ediel_sol  =         0.00000000
  ---------------------------------------------------
  free energy    TOTEN  =       -36.87083443 eV

  energy without entropy =      -36.87083443  energy(sigma->0) =      -36.87083443


--------------------------------------------------------------------------------------------------------




----------------------------------------- Iteration    1(   8)  ---------------------------------------


    POTLOK:  cpu time   16.8874: real time   16.9238
    SETDIJ:  cpu time    0.0060: real time    0.0064
     EDDAV:  cpu time   68.4646: real time   68.6109
       DOS:  cpu time    0.0000: real time    0.0002
    CHARGE:  cpu time    4.8613: real time    4.8723
    MIXING:  cpu time    0.6619: real time    0.6625
    --------------------------------------------
      LOOP:  cpu time   90.8832: real time   91.0800

 eigenvalue-minimisations  :   128
 total energy-change (2. order) : 0.1732528E+00  (-0.4183718E-01)
 number of electron      16.0000001 magnetization 
 augmentation part        0.4369242 magnetization 

 Broyden mixing:
  rms(total) = 0.10806E+00    rms(broyden)= 0.10802E+00
  rms(prec ) = 0.11257E+00
  weight for this iteration     100.00

 eigenvalues of (default mixing * dielectric matrix)
  average eigenvalue GAMMA=   1.4580
  2.1598  1.4565  0.7576

 Free energy of the ion-electron system (eV)
  ---------------------------------------------------
  alpha Z        PSCENC =         0.04144063
  Ewald energy   TEWEN  =       674.02961154
  -Hartree energ DENC   =     -1147.83333413
  -exchange      EXHF   =         0.00000000
  -V(xc)+E(xc)   XCENC  =        54.79343302
  PAW double counting   =      1298.56217736    -1301.41448529
  entropy T*S    EENTRO =         0.00000000
  eigenvalues    EBANDS =      -211.04177293
  atomic energy  EATOM  =       596.16534815
  Solvation  Ediel_sol  =         0.00000000
  ---------------------------------------------------
  free energy    TOTEN  =       -36.69758165 eV

  energy without entropy =      -36.69758165  energy(sigma->0) =      -36.69758165


--------------------------------------------------------------------------------------------------------




----------------------------------------- Iteration    1(   9)  ---------------------------------------


    POTLOK:  cpu time   17.0354: real time   17.0716
    SETDIJ:  cpu time    0.0060: real time    0.0062
     EDDAV:  cpu time   69.2215: real time   69.3712
       DOS:  cpu time    0.0000: real time    0.0002
    CHARGE:  cpu time    4.8233: real time    4.8342
    MIXING:  cpu time    0.6609: real time    0.6614
    --------------------------------------------
      LOOP:  cpu time   91.7481: real time   91.9482

 eigenvalue-minimisations  :   128
 total energy-change (2. order) : 0.2534231E-01  (-0.3396035E-02)
 number of electron      16.0000001 magnetization 
 augmentation part        0.4381175 magnetization 

 Broyden mixing:
  rms(total) = 0.33020E-01    rms(broyden)= 0.33007E-01
  rms(prec ) = 0.38769E-01
  weight for this iteration     100.00

 eigenvalues of (default mixing * dielectric matrix)
  average eigenvalue GAMMA=   1.4554
  2.2916  1.6700  0.8074  1.0527

 Free energy of the ion-electron system (eV)
  ---------------------------------------------------
  alpha Z        PSCENC =         0.04144063
  Ewald energy   TEWEN  =       674.02961154
  -Hartree energ DENC   =     -1149.56964832
  -exchange      EXHF   =         0.00000000
  -V(xc)+E(xc)   XCENC  =        54.89556930
  PAW double counting   =      1372.15145578    -1374.97493220
  entropy T*S    EENTRO =         0.00000000
  eigenvalues    EBANDS =      -209.41108421
  atomic energy  EATOM  =       596.16534815
  Solvation  Ediel_sol  =         0.00000000
  ---------------------------------------------------
  free energy    TOTEN  =       -36.67223934 eV

  energy without entropy =      -36.67223934  energy(sigma->0) =      -36.67223934


--------------------------------------------------------------------------------------------------------




----------------------------------------- Iteration    1(  10)  ---------------------------------------


    POTLOK:  cpu time   16.4205: real time   16.4546
    SETDIJ:  cpu time    0.0060: real time    0.0062
     EDDAV:  cpu time   69.3855: real time   69.5347
       DOS:  cpu time    0.0000: real time    0.0002
    CHARGE:  cpu time    4.6703: real time    4.6806
    MIXING:  cpu time    0.7109: real time    0.7120
    --------------------------------------------
      LOOP:  cpu time   91.1951: real time   91.3920

 eigenvalue-minimisations  :   128
 total energy-change (2. order) : 0.4421508E-02  (-0.4798379E-03)
 number of electron      16.0000001 magnetization 
 augmentation part        0.4390335 magnetization 

 Broyden mixing:
  rms(total) = 0.14555E-01    rms(broyden)= 0.14550E-01
  rms(prec ) = 0.20987E-01
  weight for this iteration     100.00

 eigenvalues of (default mixing * dielectric matrix)
  average eigenvalue GAMMA=   1.4609
  2.1717  2.1717  1.3354  0.8129  0.8129

 Free energy of the ion-electron system (eV)
  ---------------------------------------------------
  alpha Z        PSCENC =         0.04144063
  Ewald energy   TEWEN  =       674.02961154
  -Hartree energ DENC   =     -1150.83348859
  -exchange      EXHF   =         0.00000000
  -V(xc)+E(xc)   XCENC  =        54.93631613
  PAW double counting   =      1387.63807564    -1390.44976857
  entropy T*S    EENTRO =         0.00000000
  eigenvalues    EBANDS =      -208.19535275
  atomic energy  EATOM  =       596.16534815
  Solvation  Ediel_sol  =         0.00000000
  ---------------------------------------------------
  free energy    TOTEN  =       -36.66781783 eV

  energy without entropy =      -36.66781783  energy(sigma->0) =      -36.66781783


--------------------------------------------------------------------------------------------------------




----------------------------------------- Iteration    1(  11)  ---------------------------------------


    POTLOK:  cpu time   15.8606: real time   15.8968
    SETDIJ:  cpu time    0.0060: real time    0.0063
     EDDAV:  cpu time   69.5394: real time   69.6892
       DOS:  cpu time    0.0000: real time    0.0002
    CHARGE:  cpu time    4.7193: real time    4.7301
    MIXING:  cpu time    0.7389: real time    0.7399
    --------------------------------------------
      LOOP:  cpu time   90.8682: real time   91.1061

 eigenvalue-minimisations  :   128
 total energy-change (2. order) :-0.1229459E-02  (-0.1784830E-03)
 number of electron      16.0000001 magnetization 
 augmentation part        0.4386354 magnetization 

 Broyden mixing:
  rms(total) = 0.95497E-02    rms(broyden)= 0.95485E-02
  rms(prec ) = 0.14708E-01
  weight for this iteration     100.00

 eigenvalues of (default mixing * dielectric matrix)
  average eigenvalue GAMMA=   1.7304
  3.2160  2.4779  1.4934  1.4934  0.8508  0.8508

 Free energy of the ion-electron system (eV)
  ---------------------------------------------------
  alpha Z        PSCENC =         0.04144063
  Ewald energy   TEWEN  =       674.02961154
  -Hartree energ DENC   =     -1151.94050208
  -exchange      EXHF   =         0.00000000
  -V(xc)+E(xc)   XCENC  =        54.96144434
  PAW double counting   =      1384.33291295    -1387.13975901
  entropy T*S    EENTRO =         0.00000000
  eigenvalues    EBANDS =      -207.11954382
  atomic energy  EATOM  =       596.16534815
  Solvation  Ediel_sol  =         0.00000000
  ---------------------------------------------------
  free energy    TOTEN  =       -36.66904729 eV

  energy without entropy =      -36.66904729  energy(sigma->0) =      -36.66904729


--------------------------------------------------------------------------------------------------------




----------------------------------------- Iteration    1(  12)  ---------------------------------------


    POTLOK:  cpu time   15.9106: real time   15.9450
    SETDIJ:  cpu time    0.0060: real time    0.0062
     EDDAV:  cpu time   62.5645: real time   62.6991
       DOS:  cpu time    0.0000: real time    0.0002
    CHARGE:  cpu time    4.8943: real time    4.9050
    MIXING:  cpu time    0.7999: real time    0.8020
    --------------------------------------------
      LOOP:  cpu time   84.1772: real time   84.3612

 eigenvalue-minimisations  :   112
 total energy-change (2. order) :-0.6795104E-02  (-0.4992658E-03)
 number of electron      16.0000001 magnetization 
 augmentation part        0.4379901 magnetization 

 Broyden mixing:
  rms(total) = 0.49871E-02    rms(broyden)= 0.49796E-02
  rms(prec ) = 0.72240E-02
  weight for this iteration     100.00

 eigenvalues of (default mixing * dielectric matrix)
  average eigenvalue GAMMA=   1.7201
  3.7588  2.2660  1.8236  1.4046  0.8164  0.9218  1.0497

 Free energy of the ion-electron system (eV)
  ---------------------------------------------------
  alpha Z        PSCENC =         0.04144063
  Ewald energy   TEWEN  =       674.02961154
  -Hartree energ DENC   =     -1153.74189515
  -exchange      EXHF   =         0.00000000
  -V(xc)+E(xc)   XCENC  =        54.99853101
  PAW double counting   =      1377.63614108    -1380.43812021
  entropy T*S    EENTRO =         0.00000000
  eigenvalues    EBANDS =      -205.36689944
  atomic energy  EATOM  =       596.16534815
  Solvation  Ediel_sol  =         0.00000000
  ---------------------------------------------------
  free energy    TOTEN  =       -36.67584239 eV

  energy without entropy =      -36.67584239  energy(sigma->0) =      -36.67584239


--------------------------------------------------------------------------------------------------------




----------------------------------------- Iteration    1(  13)  ---------------------------------------


    POTLOK:  cpu time   15.8306: real time   15.8648
    SETDIJ:  cpu time    0.0060: real time    0.0061
     EDDAV:  cpu time   83.3243: real time   83.5022
       DOS:  cpu time    0.0000: real time    0.0002
    CHARGE:  cpu time    4.8113: real time    4.8219
    MIXING:  cpu time    0.8689: real time    0.8702
    --------------------------------------------
      LOOP:  cpu time  104.8431: real time  105.0693

 eigenvalue-minimisations  :   160
 total energy-change (2. order) :-0.4190315E-02  (-0.1190992E-03)
 number of electron      16.0000001 magnetization 
 augmentation part        0.4378235 magnetization 

 Broyden mixing:
  rms(total) = 0.36093E-02    rms(broyden)= 0.36068E-02
  rms(prec ) = 0.52778E-02
  weight for this iteration     100.00

 eigenvalues of (default mixing * dielectric matrix)
  average eigenvalue GAMMA=   1.7409
  4.2996  2.3740  1.5889  1.5442  1.5442  0.8734  0.8734  0.8292

 Free energy of the ion-electron system (eV)
  ---------------------------------------------------
  alpha Z        PSCENC =         0.04144063
  Ewald energy   TEWEN  =       674.02961154
  -Hartree energ DENC   =     -1154.14152218
  -exchange      EXHF   =         0.00000000
  -V(xc)+E(xc)   XCENC  =        55.00334416
  PAW double counting   =      1378.71886452    -1381.52173263
  entropy T*S    EENTRO =         0.00000000
  eigenvalues    EBANDS =      -204.97538690
  atomic energy  EATOM  =       596.16534815
  Solvation  Ediel_sol  =         0.00000000
  ---------------------------------------------------
  free energy    TOTEN  =       -36.68003271 eV

  energy without entropy =      -36.68003271  energy(sigma->0) =      -36.68003271


--------------------------------------------------------------------------------------------------------




----------------------------------------- Iteration    1(  14)  ---------------------------------------


    POTLOK:  cpu time   16.2075: real time   16.2421
    SETDIJ:  cpu time    0.0060: real time    0.0062
     EDDAV:  cpu time   69.7404: real time   69.8917
       DOS:  cpu time    0.0000: real time    0.0002
    CHARGE:  cpu time    4.9412: real time    4.9515
    MIXING:  cpu time    0.9119: real time    0.9147
    --------------------------------------------
      LOOP:  cpu time   91.8100: real time   92.0099

 eigenvalue-minimisations  :   128
 total energy-change (2. order) :-0.4272932E-02  (-0.5735203E-04)
 number of electron      16.0000001 magnetization 
 augmentation part        0.4379459 magnetization 

 Broyden mixing:
  rms(total) = 0.24700E-02    rms(broyden)= 0.24696E-02
  rms(prec ) = 0.34943E-02
  weight for this iteration     100.00

 eigenvalues of (default mixing * dielectric matrix)
  average eigenvalue GAMMA=   1.8776
  5.2170  2.8370  2.3275  1.5107  1.4332  0.8455  0.8455  0.9410  0.9410

 Free energy of the ion-electron system (eV)
  ---------------------------------------------------
  alpha Z        PSCENC =         0.04144063
  Ewald energy   TEWEN  =       674.02961154
  -Hartree energ DENC   =     -1154.30901990
  -exchange      EXHF   =         0.00000000
  -V(xc)+E(xc)   XCENC  =        54.99523257
  PAW double counting   =      1376.87570126    -1379.67835824
  entropy T*S    EENTRO =         0.00000000
  eigenvalues    EBANDS =      -204.80426165
  atomic energy  EATOM  =       596.16534815
  Solvation  Ediel_sol  =         0.00000000
  ---------------------------------------------------
  free energy    TOTEN  =       -36.68430564 eV

  energy without entropy =      -36.68430564  energy(sigma->0) =      -36.68430564


--------------------------------------------------------------------------------------------------------




----------------------------------------- Iteration    1(  15)  ---------------------------------------


    POTLOK:  cpu time   16.2915: real time   16.3259
    SETDIJ:  cpu time    0.0060: real time    0.0062
     EDDAV:  cpu time   69.3375: real time   69.4872
       DOS:  cpu time    0.0000: real time    0.0002
    CHARGE:  cpu time    4.9143: real time    4.9260
    MIXING:  cpu time    0.9139: real time    0.9157
    --------------------------------------------
      LOOP:  cpu time   91.4641: real time   91.6647

 eigenvalue-minimisations  :   128
 total energy-change (2. order) :-0.3106370E-02  (-0.3079667E-04)
 number of electron      16.0000001 magnetization 
 augmentation part        0.4378886 magnetization 

 Broyden mixing:
  rms(total) = 0.15649E-02    rms(broyden)= 0.15647E-02
  rms(prec ) = 0.21402E-02
  weight for this iteration     100.00

 eigenvalues of (default mixing * dielectric matrix)
  average eigenvalue GAMMA=   1.9765
  6.0864  3.1186  2.3099  1.6033  1.5025  1.5025  0.8542  0.8542  0.9667  0.9667

 Free energy of the ion-electron system (eV)
  ---------------------------------------------------
  alpha Z        PSCENC =         0.04144063
  Ewald energy   TEWEN  =       674.02961154
  -Hartree energ DENC   =     -1154.42301971
  -exchange      EXHF   =         0.00000000
  -V(xc)+E(xc)   XCENC  =        54.99089698
  PAW double counting   =      1376.76857854    -1379.57189696
  entropy T*S    EENTRO =         0.00000000
  eigenvalues    EBANDS =      -204.68837118
  atomic energy  EATOM  =       596.16534815
  Solvation  Ediel_sol  =         0.00000000
  ---------------------------------------------------
  free energy    TOTEN  =       -36.68741201 eV

  energy without entropy =      -36.68741201  energy(sigma->0) =      -36.68741201


--------------------------------------------------------------------------------------------------------




----------------------------------------- Iteration    1(  16)  ---------------------------------------


    POTLOK:  cpu time   16.6835: real time   16.7186
    SETDIJ:  cpu time    0.0070: real time    0.0063
     EDDAV:  cpu time   69.1505: real time   69.2992
       DOS:  cpu time    0.0000: real time    0.0002
    CHARGE:  cpu time    4.9013: real time    4.9116
    MIXING:  cpu time    1.0248: real time    1.0283
    --------------------------------------------
      LOOP:  cpu time   91.7680: real time   91.9672

 eigenvalue-minimisations  :   128
 total energy-change (2. order) :-0.2182769E-02  (-0.2634394E-04)
 number of electron      16.0000001 magnetization 
 augmentation part        0.4377586 magnetization 

 Broyden mixing:
  rms(total) = 0.11246E-02    rms(broyden)= 0.11234E-02
  rms(prec ) = 0.13834E-02
  weight for this iteration     100.00

 eigenvalues of (default mixing * dielectric matrix)
  average eigenvalue GAMMA=   2.1040
  7.1600  3.6495  2.3336  2.3336  1.4679  1.2839  1.2839  0.8386  0.8659  0.9633
  0.9633

 Free energy of the ion-electron system (eV)
  ---------------------------------------------------
  alpha Z        PSCENC =         0.04144063
  Ewald energy   TEWEN  =       674.02961154
  -Hartree energ DENC   =     -1154.48548623
  -exchange      EXHF   =         0.00000000
  -V(xc)+E(xc)   XCENC  =        54.98835544
  PAW double counting   =      1377.05378604    -1379.85700107
  entropy T*S    EENTRO =         0.00000000
  eigenvalues    EBANDS =      -204.62564928
  atomic energy  EATOM  =       596.16534815
  Solvation  Ediel_sol  =         0.00000000
  ---------------------------------------------------
  free energy    TOTEN  =       -36.68959478 eV

  energy without entropy =      -36.68959478  energy(sigma->0) =      -36.68959478


--------------------------------------------------------------------------------------------------------




----------------------------------------- Iteration    1(  17)  ---------------------------------------


    POTLOK:  cpu time   16.7085: real time   16.7440
    SETDIJ:  cpu time    0.0060: real time    0.0062
     EDDAV:  cpu time   51.8951: real time   52.0063
       DOS:  cpu time    0.0000: real time    0.0002
    CHARGE:  cpu time    4.9502: real time    4.9610
    MIXING:  cpu time    1.1018: real time    1.1035
    --------------------------------------------
      LOOP:  cpu time   74.6637: real time   74.8244

 eigenvalue-minimisations  :    88
 total energy-change (2. order) :-0.9719440E-03  (-0.4982531E-05)
 number of electron      16.0000001 magnetization 
 augmentation part        0.4378133 magnetization 

 Broyden mixing:
  rms(total) = 0.39542E-03    rms(broyden)= 0.39534E-03
  rms(prec ) = 0.57546E-03
  weight for this iteration     100.00

 eigenvalues of (default mixing * dielectric matrix)
  average eigenvalue GAMMA=   2.1513
  7.7552  4.0484  2.5749  2.0525  1.8803  1.3326  1.3326  0.8333  0.8870  0.9572
  1.0804  1.0804

 Free energy of the ion-electron system (eV)
  ---------------------------------------------------
  alpha Z        PSCENC =         0.04144063
  Ewald energy   TEWEN  =       674.02961154
  -Hartree energ DENC   =     -1154.48263920
  -exchange      EXHF   =         0.00000000
  -V(xc)+E(xc)   XCENC  =        54.98550092
  PAW double counting   =      1377.43365266    -1380.23654104
  entropy T*S    EENTRO =         0.00000000
  eigenvalues    EBANDS =      -204.62694038
  atomic energy  EATOM  =       596.16534815
  Solvation  Ediel_sol  =         0.00000000
  ---------------------------------------------------
  free energy    TOTEN  =       -36.69056672 eV

  energy without entropy =      -36.69056672  energy(sigma->0) =      -36.69056672


--------------------------------------------------------------------------------------------------------




----------------------------------------- Iteration    1(  18)  ---------------------------------------


    POTLOK:  cpu time   16.7265: real time   16.7613
    SETDIJ:  cpu time    0.0060: real time    0.0062
     EDDAV:  cpu time   52.2491: real time   52.3606
       DOS:  cpu time    0.0000: real time    0.0002
    CHARGE:  cpu time    4.7393: real time    4.7494
    MIXING:  cpu time    1.0748: real time    1.0775
    --------------------------------------------
      LOOP:  cpu time   74.7956: real time   74.9587

 eigenvalue-minimisations  :    88
 total energy-change (2. order) :-0.4736664E-03  (-0.2938774E-05)
 number of electron      16.0000001 magnetization 
 augmentation part        0.4378004 magnetization 

 Broyden mixing:
  rms(total) = 0.30230E-03    rms(broyden)= 0.30223E-03
  rms(prec ) = 0.39324E-03
  weight for this iteration     100.00

 eigenvalues of (default mixing * dielectric matrix)
  average eigenvalue GAMMA=   2.2508
  8.2723  4.7253  2.8435  2.5950  2.0713  1.5454  1.2903  1.2903  0.8310  0.9069
  0.9069  0.9912  0.9912

 Free energy of the ion-electron system (eV)
  ---------------------------------------------------
  alpha Z        PSCENC =         0.04144063
  Ewald energy   TEWEN  =       674.02961154
  -Hartree energ DENC   =     -1154.48829035
  -exchange      EXHF   =         0.00000000
  -V(xc)+E(xc)   XCENC  =        54.98514466
  PAW double counting   =      1377.45432099    -1380.25731233
  entropy T*S    EENTRO =         0.00000000
  eigenvalues    EBANDS =      -204.62130368
  atomic energy  EATOM  =       596.16534815
  Solvation  Ediel_sol  =         0.00000000
  ---------------------------------------------------
  free energy    TOTEN  =       -36.69104039 eV

  energy without entropy =      -36.69104039  energy(sigma->0) =      -36.69104039


--------------------------------------------------------------------------------------------------------




----------------------------------------- Iteration    1(  19)  ---------------------------------------


    POTLOK:  cpu time   16.5175: real time   16.5528
    SETDIJ:  cpu time    0.0060: real time    0.0061
     EDDAV:  cpu time   45.9150: real time   46.0261
       DOS:  cpu time    0.0000: real time    0.0002
    CHARGE:  cpu time    4.9033: real time    4.9175
    MIXING:  cpu time    1.1638: real time    1.1670
    --------------------------------------------
      LOOP:  cpu time   68.5066: real time   68.6731

 eigenvalue-minimisations  :    72
 total energy-change (2. order) :-0.2831666E-03  (-0.1352006E-05)
 number of electron      16.0000001 magnetization 
 augmentation part        0.4377953 magnetization 

 Broyden mixing:
  rms(total) = 0.16643E-03    rms(broyden)= 0.16629E-03
  rms(prec ) = 0.20794E-03
  weight for this iteration     100.00

 eigenvalues of (default mixing * dielectric matrix)
  average eigenvalue GAMMA=   2.2756
  8.5403  5.1145  3.1931  2.3724  2.2099  1.8737  1.3731  1.2684  1.2684  1.0053
  1.0053  0.8327  0.9006  0.9006

 Free energy of the ion-electron system (eV)
  ---------------------------------------------------
  alpha Z        PSCENC =         0.04144063
  Ewald energy   TEWEN  =       674.02961154
  -Hartree energ DENC   =     -1154.48193589
  -exchange      EXHF   =         0.00000000
  -V(xc)+E(xc)   XCENC  =        54.98448038
  PAW double counting   =      1377.19205391    -1379.99500021
  entropy T*S    EENTRO =         0.00000000
  eigenvalues    EBANDS =      -204.62732206
  atomic energy  EATOM  =       596.16534815
  Solvation  Ediel_sol  =         0.00000000
  ---------------------------------------------------
  free energy    TOTEN  =       -36.69132356 eV

  energy without entropy =      -36.69132356  energy(sigma->0) =      -36.69132356


--------------------------------------------------------------------------------------------------------




----------------------------------------- Iteration    1(  20)  ---------------------------------------


    POTLOK:  cpu time   15.9416: real time   15.9765
    SETDIJ:  cpu time    0.0060: real time    0.0061
     EDDAV:  cpu time   51.8761: real time   51.9867
       DOS:  cpu time    0.0000: real time    0.0002
    CHARGE:  cpu time    5.0032: real time    5.0144
    MIXING:  cpu time    1.4478: real time    1.4509
    --------------------------------------------
      LOOP:  cpu time   74.2777: real time   74.4388

 eigenvalue-minimisations  :    88
 total energy-change (2. order) :-0.1057619E-03  (-0.3498774E-06)
 number of electron      16.0000001 magnetization 
 augmentation part        0.4377985 magnetization 

 Broyden mixing:
  rms(total) = 0.14664E-03    rms(broyden)= 0.14662E-03
  rms(prec ) = 0.16594E-03
  weight for this iteration     100.00

 eigenvalues of (default mixing * dielectric matrix)
  average eigenvalue GAMMA=   2.3158
  8.7108  5.6749  3.3939  2.5404  2.5404  2.0868  1.5890  1.2869  1.2869  1.0155
  1.0155  0.8339  0.8791  0.9412  0.9412

 Free energy of the ion-electron system (eV)
  ---------------------------------------------------
  alpha Z        PSCENC =         0.04144063
  Ewald energy   TEWEN  =       674.02961154
  -Hartree energ DENC   =     -1154.48476045
  -exchange      EXHF   =         0.00000000
  -V(xc)+E(xc)   XCENC  =        54.98441483
  PAW double counting   =      1377.23809354    -1380.04103377
  entropy T*S    EENTRO =         0.00000000
  eigenvalues    EBANDS =      -204.62454379
  atomic energy  EATOM  =       596.16534815
  Solvation  Ediel_sol  =         0.00000000
  ---------------------------------------------------
  free energy    TOTEN  =       -36.69142932 eV

  energy without entropy =      -36.69142932  energy(sigma->0) =      -36.69142932


--------------------------------------------------------------------------------------------------------




----------------------------------------- Iteration    1(  21)  ---------------------------------------


    POTLOK:  cpu time   15.5236: real time   15.5565
    SETDIJ:  cpu time    0.0060: real time    0.0063
     EDDAV:  cpu time   43.4844: real time   43.5771
       DOS:  cpu time    0.0000: real time    0.0002
    --------------------------------------------
      LOOP:  cpu time   59.0170: real time   59.1439

 eigenvalue-minimisations  :    72
 total energy-change (2. order) :-0.5205594E-04  (-0.1411319E-06)
 number of electron      16.0000001 magnetization 
 augmentation part        0.4377985 magnetization 

 Free energy of the ion-electron system (eV)
  ---------------------------------------------------
  alpha Z        PSCENC =         0.04144063
  Ewald energy   TEWEN  =       674.02961154
  -Hartree energ DENC   =     -1154.48606060
  -exchange      EXHF   =         0.00000000
  -V(xc)+E(xc)   XCENC  =        54.98432799
  PAW double counting   =      1377.24023419    -1380.04321454
  entropy T*S    EENTRO =         0.00000000
  eigenvalues    EBANDS =      -204.62316873
  atomic energy  EATOM  =       596.16534815
  Solvation  Ediel_sol  =         0.00000000
  ---------------------------------------------------
  free energy    TOTEN  =       -36.69148137 eV

  energy without entropy =      -36.69148137  energy(sigma->0) =      -36.69148137


--------------------------------------------------------------------------------------------------------




 average (electrostatic) potential at core
  the test charge radii are     0.5201  0.6991  0.7089
  (the norm of the test charge is              1.0000)
       1 -43.1640       2 -43.1651       3 -43.1659       4 -60.0759       5 -60.0653
       6 -73.2213
 
 
 
 E-fermi :  -7.1185     XC(G=0):  -0.0881     alpha+bet : -0.0137


 k-point     1 :       0.2500    0.2500    0.2500
  band No.  band energies     occupation 
      1     -22.5422      2.00000
      2     -19.3785      2.00000
      3     -12.8162      2.00000
      4     -11.4950      2.00000
      5     -11.4548      2.00000
      6      -8.4952      2.00000
      7      -8.0714      2.00000
      8      -8.0584      2.00000
      9      -0.8670      0.00000
     10      -0.4619      0.00000
     11      -0.4486      0.00000
     12      -0.0100      0.00000

 k-point     2 :      -0.2500    0.2500    0.2500
  band No.  band energies     occupation 
      1     -22.5422      2.00000
      2     -19.3785      2.00000
      3     -12.8162      2.00000
      4     -11.4950      2.00000
      5     -11.4548      2.00000
      6      -8.4952      2.00000
      7      -8.0713      2.00000
      8      -8.0584      2.00000
      9      -0.8670      0.00000
     10      -0.4619      0.00000
     11      -0.4486      0.00000
     12      -0.0091      0.00000

 k-point     3 :       0.2500   -0.2500    0.2500
  band No.  band energies     occupation 
      1     -22.5422      2.00000
      2     -19.3785      2.00000
      3     -12.8162      2.00000
      4     -11.4950      2.00000
      5     -11.4548      2.00000
      6      -8.4952      2.00000
      7      -8.0713      2.00000
      8      -8.0584      2.00000
      9      -0.8670      0.00000
     10      -0.4619      0.00000
     11      -0.4486      0.00000
     12      -0.0093      0.00000

 k-point     4 :      -0.2500   -0.2500    0.2500
  band No.  band energies     occupation 
      1     -22.5422      2.00000
      2     -19.3785      2.00000
      3     -12.8162      2.00000
      4     -11.4950      2.00000
      5     -11.4548      2.00000
      6      -8.4952      2.00000
      7      -8.0713      2.00000
      8      -8.0584      2.00000
      9      -0.8670      0.00000
     10      -0.4619      0.00000
     11      -0.4486      0.00000
     12      -0.0092      0.00000


--------------------------------------------------------------------------------------------------------


 soft charge-density along one line, spin component           1
         0         1         2         3         4         5         6         7         8         9
 total charge-density along one line
 
 pseudopotential strength for first ion, spin component:           1
 -2.364  -4.078  -0.002   0.000  -0.001
 -4.078  -6.948  -0.005   0.001  -0.002
 -0.002  -0.005  -0.330   0.000   0.002
  0.000   0.001   0.000  -0.334   0.000
 -0.001  -0.002   0.002   0.000  -0.333
 total augmentation occupancy for first ion, spin component:           1
  3.475  -0.626   0.405  -0.039   0.157
 -0.626   0.129  -0.075   0.007  -0.029
  0.405  -0.075   0.049  -0.004   0.016
 -0.039   0.007  -0.004   0.009  -0.002
  0.157  -0.029   0.016  -0.002   0.014


------------------------ aborting loop because EDIFF is reached ----------------------------------------


    CHARGE:  cpu time    4.7263: real time    4.7359
    FORLOC:  cpu time    2.2857: real time    2.2904
    FORNL :  cpu time   15.7046: real time   15.7380
    STRESS:  cpu time   47.6588: real time   47.7594
    FORCOR:  cpu time   17.2664: real time   17.3020
    FORHAR:  cpu time    5.9871: real time    5.9988
    MIXING:  cpu time    1.1628: real time    1.1646
    OFIELD:  cpu time    0.0000: real time    0.0000

  FORCE on cell =-STRESS in cart. coord.  units (eV):
  Direction    XX          YY          ZZ          XY          YZ          ZX
  --------------------------------------------------------------------------------------
  Alpha Z     0.04144     0.04144     0.04144
  Ewald     594.06045    38.48632    41.48256   -27.68451    -2.74583    51.17943
  Hartree   583.65302   284.20615   286.62815   -12.80622    -1.40642    30.25674
  E(xc)     -58.99217   -60.33376   -60.33337    -0.08323    -0.00797     0.10276
  Local   -1320.29316  -495.38814  -500.93166    38.21285     4.01768   -79.67664
  n-local   -28.27010   -24.83453   -24.79721     0.32064     0.03830    -0.11526
  augment     0.40514     0.39115     0.39631     0.00862    -0.00327     0.01618
  Kinetic   228.80142   256.42493   256.59934     2.10721     0.13976    -1.61510
  Fock        0.00000     0.00000     0.00000     0.00000     0.00000     0.00000
  -------------------------------------------------------------------------------------
  Total      -0.59396    -1.00643    -0.91443     0.07536     0.03225     0.14812
  in kB      -0.03525    -0.05972    -0.05426     0.00447     0.00191     0.00879
  external pressure =       -0.05 kB  Pullay stress =        0.00 kB


 VOLUME and BASIS-vectors are now :
 -----------------------------------------------------------------------------
  energy-cutoff  :      400.00
  volume of cell :    27000.00
      direct lattice vectors                 reciprocal lattice vectors
    30.000000000  0.000000000  0.000000000     0.033333333  0.000000000  0.000000000
     0.000000000 30.000000000  0.000000000     0.000000000  0.033333333  0.000000000
     0.000000000  0.000000000 30.000000000     0.000000000  0.000000000  0.033333333

  length of vectors
    30.000000000 30.000000000 30.000000000     0.033333333  0.033333333  0.033333333


 FORCES acting on ions
    electron-ion (+dipol)            ewald-force                    non-local-force                 convergence-correction
 -----------------------------------------------------------------------------------------------
   0.335E+02 0.553E+02 -.405E+01   -.356E+02 -.604E+02 0.453E+01   0.201E+01 0.519E+01 -.501E+00   0.805E-04 0.680E-04 -.593E-06
   0.239E+02 -.204E+02 0.567E+02   -.251E+02 0.222E+02 -.618E+02   0.110E+01 -.186E+01 0.515E+01   0.657E-04 -.344E-04 0.766E-04
   0.390E+02 -.354E+02 -.376E+02   -.416E+02 0.387E+02 0.413E+02   0.268E+01 -.330E+01 -.365E+01   0.783E-04 -.462E-04 -.351E-04
   0.969E+02 -.363E+01 0.104E+02   -.101E+03 0.371E+01 -.110E+02   0.449E+01 -.103E+00 0.559E+00   0.445E-03 -.753E-04 0.493E-04
   0.671E+02 -.132E+02 -.748E+01   -.694E+02 0.135E+02 0.762E+01   0.214E+01 -.450E+00 -.283E+00   -.112E-02 0.166E-04 -.117E-03
   -.233E+03 0.147E+02 -.170E+02   0.273E+03 -.178E+02 0.193E+02   -.404E+02 0.314E+01 -.213E+01   -.364E-03 0.242E-04 0.536E-05
 -----------------------------------------------------------------------------------------------
   0.279E+02 -.261E+01 0.858E+00   0.000E+00 -.711E-14 0.000E+00   -.279E+02 0.261E+01 -.859E+00   -.816E-03 -.471E-04 -.215E-04
 
 
 POSITION                                       TOTAL-FORCE (eV/Angst)
 -----------------------------------------------------------------------------------
     14.12137     13.97192     15.06105        -0.066233      0.044065     -0.017705
     14.29988     15.36205     13.94638        -0.067883     -0.023309      0.010557
     13.99727     15.64453     15.68259         0.085771     -0.001509      0.035335
     14.51269     14.99523     14.96118        -0.025244     -0.016932     -0.026643
     15.95081     14.97179     15.16017        -0.136010     -0.077381     -0.142919
     17.11066     14.88705     15.22915         0.209598      0.075066      0.141375
 -----------------------------------------------------------------------------------
    total drift:                               -0.000603     -0.003582     -0.001248


--------------------------------------------------------------------------------------------------------



  FREE ENERGIE OF THE ION-ELECTRON SYSTEM (eV)
  ---------------------------------------------------
  free  energy   TOTEN  =       -36.69148137 eV

  energy  without entropy=      -36.69148137  energy(sigma->0) =      -36.69148137
 


--------------------------------------------------------------------------------------------------------


    POTLOK:  cpu time   14.7228: real time   14.7518


--------------------------------------------------------------------------------------------------------


 NEB: the previous image is higher in energy: F
 NEB: the next image is higher in energy    : F
 NEB: image is at an extrema
 NEB: diff energy (min, max):     0.000565   36.691481

 NEB: Tangent
 ----------------------------------------------
      0.02152     -0.01697      0.47106
     -0.36578     -0.17693      0.03337
      0.29077      0.25551      0.16787
     -0.00281      0.01556      0.08370
      0.02860      0.05599     -0.34738
      0.04346      0.23009     -0.49640

 NEB: forces: par spring, perp REAL, dneb     0.723628    0.366923    0.000000
 NEB: distance to prev, next image, angle between     0.316173    0.460899   88.923829
 NEB: projections on to tangent (spring, REAL)     0.723628    0.044486

 stress matrix after NEB project (eV)
     -0.59396      0.07536      0.14812
      0.07536     -1.00643      0.03225
      0.14812      0.03225     -0.91443
  FORCES: max atom, RMS     0.398323    0.331228
  FORCE total and by dimension    0.811339    0.378840
  Stress total and by dimension    1.503064    1.006434
 
 OPT: Flag T
 OPT: FIRE Step
 OPT: FIRE, TIMESTEP      0.10000
 OPT: FIRE, alpha         0.10000


--------------------------------------------------------------------------------------------------------


    WAVPRE:  cpu time    7.3519: real time    7.4621
 FEWALD executed in parallel
    FEWALD:  cpu time    0.0010: real time    0.0003
    ORTHCH:  cpu time    7.3119: real time    7.6397
     LOOP+:  cpu time 2813.9992: real time 2820.0344


----------------------------------------- Iteration    2(   1)  ---------------------------------------


    POTLOK:  cpu time   24.5363: real time   24.5929
    SETDIJ:  cpu time    0.0070: real time    0.0065
     EDDAV:  cpu time   72.7739: real time   72.9441
       DOS:  cpu time    0.0000: real time    0.0002
    CHARGE:  cpu time    6.1761: real time    6.1902
    MIXING:  cpu time    0.6249: real time    0.6267
    --------------------------------------------
      LOOP:  cpu time  104.1212: real time  104.3631

 eigenvalue-minimisations  :    96
 total energy-change (2. order) :-0.9795067E-03  (-0.1168832E-01)
 number of electron      16.0000001 magnetization 
 augmentation part        0.4362621 magnetization 

 Broyden mixing:
  rms(total) = 0.87895E-02    rms(broyden)= 0.87474E-02
  rms(prec ) = 0.89349E-02
  weight for this iteration     100.00

 Free energy of the ion-electron system (eV)
  ---------------------------------------------------
  alpha Z        PSCENC =         0.04144063
  Ewald energy   TEWEN  =       673.33465600
  -Hartree energ DENC   =     -1154.05580549
  -exchange      EXHF   =         0.00000000
  -V(xc)+E(xc)   XCENC  =        54.97280244
  PAW double counting   =      1377.22006640    -1380.02304799
  entropy T*S    EENTRO =         0.00000000
  eigenvalues    EBANDS =      -204.34786898
  atomic energy  EATOM  =       596.16534815
  Solvation  Ediel_sol  =         0.00000000
  ---------------------------------------------------
  free energy    TOTEN  =       -36.69240883 eV

  energy without entropy =      -36.69240883  energy(sigma->0) =      -36.69240883


--------------------------------------------------------------------------------------------------------




----------------------------------------- Iteration    2(   2)  ---------------------------------------


    POTLOK:  cpu time   24.4183: real time   24.4737
    SETDIJ:  cpu time    0.0070: real time    0.0064
     EDDAV:  cpu time   92.3510: real time   92.5657
       DOS:  cpu time    0.0000: real time    0.0002
    CHARGE:  cpu time    5.9701: real time    5.9842
    MIXING:  cpu time    0.7359: real time    0.7387
    --------------------------------------------
      LOOP:  cpu time  123.4862: real time  123.7734

 eigenvalue-minimisations  :   128
 total energy-change (2. order) :-0.1929900E-04  (-0.1665967E-03)
 number of electron      16.0000001 magnetization 
 augmentation part        0.4364044 magnetization 

 Broyden mixing:
  rms(total) = 0.55739E-02    rms(broyden)= 0.55672E-02
  rms(prec ) = 0.56784E-02
  weight for this iteration     100.00

 eigenvalues of (default mixing * dielectric matrix)
  average eigenvalue GAMMA=   1.2350
  1.2350

 Free energy of the ion-electron system (eV)
  ---------------------------------------------------
  alpha Z        PSCENC =         0.04144063
  Ewald energy   TEWEN  =       673.33465600
  -Hartree energ DENC   =     -1153.94342604
  -exchange      EXHF   =         0.00000000
  -V(xc)+E(xc)   XCENC  =        54.96607613
  PAW double counting   =      1375.43297486    -1378.23385150
  entropy T*S    EENTRO =         0.00000000
  eigenvalues    EBANDS =      -204.45564634
  atomic energy  EATOM  =       596.16534815
  Solvation  Ediel_sol  =         0.00000000
  ---------------------------------------------------
  free energy    TOTEN  =       -36.69242812 eV

  energy without entropy =      -36.69242812  energy(sigma->0) =      -36.69242812


--------------------------------------------------------------------------------------------------------




----------------------------------------- Iteration    2(   3)  ---------------------------------------


[...]
  Solvation  Ediel_sol  =         0.00000000
  ---------------------------------------------------
  free energy    TOTEN  =       -36.70454708 eV

  energy without entropy =      -36.70454708  energy(sigma->0) =      -36.70454708


--------------------------------------------------------------------------------------------------------




----------------------------------------- Iteration   28(   2)  ---------------------------------------


    POTLOK:  cpu time   24.7262: real time   24.7959
    SETDIJ:  cpu time    0.0060: real time    0.0066
     EDDAV:  cpu time   50.6043: real time   50.7544
       DOS:  cpu time    0.0000: real time    0.0002
    CHARGE:  cpu time    6.5140: real time    6.5339
    MIXING:  cpu time    0.7009: real time    0.7022
    --------------------------------------------
      LOOP:  cpu time   82.5525: real time   82.7976

 eigenvalue-minimisations  :    64
 total energy-change (2. order) :-0.3733238E-05  (-0.7000754E-05)
 number of electron      16.0000006 magnetization 
 augmentation part        0.4370732 magnetization 

 Broyden mixing:
  rms(total) = 0.94269E-03    rms(broyden)= 0.94108E-03
  rms(prec ) = 0.95964E-03
  weight for this iteration     100.00

 eigenvalues of (default mixing * dielectric matrix)
  average eigenvalue GAMMA=   1.4438
  1.4438

 Free energy of the ion-electron system (eV)
  ---------------------------------------------------
  alpha Z        PSCENC =         0.04144063
  Ewald energy   TEWEN  =       673.08041132
  -Hartree energ DENC   =     -1153.56380009
  -exchange      EXHF   =         0.00000000
  -V(xc)+E(xc)   XCENC  =        54.96923090
  PAW double counting   =      1373.68281904    -1376.48312259
  entropy T*S    EENTRO =         0.00000000
  eigenvalues    EBANDS =      -204.59687817
  atomic energy  EATOM  =       596.16534815
  Solvation  Ediel_sol  =         0.00000000
  ---------------------------------------------------
  free energy    TOTEN  =       -36.70455081 eV

  energy without entropy =      -36.70455081  energy(sigma->0) =      -36.70455081


--------------------------------------------------------------------------------------------------------




----------------------------------------- Iteration   28(   3)  ---------------------------------------


    POTLOK:  cpu time   24.6533: real time   24.7257
    SETDIJ:  cpu time    0.0070: real time    0.0067
     EDDAV:  cpu time   42.5775: real time   42.7020
       DOS:  cpu time    0.0000: real time    0.0002
    CHARGE:  cpu time    5.6331: real time    5.6504
    MIXING:  cpu time    0.7839: real time    0.7864
    --------------------------------------------
      LOOP:  cpu time   73.6578: real time   73.8764

 eigenvalue-minimisations  :    48
 total energy-change (2. order) :-0.9232258E-07  (-0.8040756E-06)
 number of electron      16.0000006 magnetization 
 augmentation part        0.4370742 magnetization 

 Broyden mixing:
  rms(total) = 0.34488E-03    rms(broyden)= 0.34454E-03
  rms(prec ) = 0.34973E-03
  weight for this iteration     100.00

 eigenvalues of (default mixing * dielectric matrix)
  average eigenvalue GAMMA=   1.5581
  1.0596  2.0566

 Free energy of the ion-electron system (eV)
  ---------------------------------------------------
  alpha Z        PSCENC =         0.04144063
  Ewald energy   TEWEN  =       673.08041132
  -Hartree energ DENC   =     -1153.56485666
  -exchange      EXHF   =         0.00000000
  -V(xc)+E(xc)   XCENC  =        54.96929689
  PAW double counting   =      1373.70832366    -1376.50865584
  entropy T*S    EENTRO =         0.00000000
  eigenvalues    EBANDS =      -204.59585905
  atomic energy  EATOM  =       596.16534815
  Solvation  Ediel_sol  =         0.00000000
  ---------------------------------------------------
  free energy    TOTEN  =       -36.70455091 eV

  energy without entropy =      -36.70455091  energy(sigma->0) =      -36.70455091


--------------------------------------------------------------------------------------------------------




----------------------------------------- Iteration   28(   4)  ---------------------------------------


    POTLOK:  cpu time   24.8092: real time   24.8816
    SETDIJ:  cpu time    0.0070: real time    0.0068
     EDDAV:  cpu time   42.7995: real time   42.9228
       DOS:  cpu time    0.0000: real time    0.0002
    CHARGE:  cpu time    6.0721: real time    6.0907
    MIXING:  cpu time    0.7869: real time    0.7887
    --------------------------------------------
      LOOP:  cpu time   74.4767: real time   74.6957

 eigenvalue-minimisations  :    48
 total energy-change (2. order) :-0.4367710E-06  (-0.2145392E-06)
 number of electron      16.0000006 magnetization 
 augmentation part        0.4370730 magnetization 

 Broyden mixing:
  rms(total) = 0.10372E-03    rms(broyden)= 0.10352E-03
  rms(prec ) = 0.10617E-03
  weight for this iteration     100.00

 eigenvalues of (default mixing * dielectric matrix)
  average eigenvalue GAMMA=   1.6246
  2.2437  1.1315  1.4984

 Free energy of the ion-electron system (eV)
  ---------------------------------------------------
  alpha Z        PSCENC =         0.04144063
  Ewald energy   TEWEN  =       673.08041132
  -Hartree energ DENC   =     -1153.56552552
  -exchange      EXHF   =         0.00000000
  -V(xc)+E(xc)   XCENC  =        54.96933549
  PAW double counting   =      1373.72969563    -1376.53004364
  entropy T*S    EENTRO =         0.00000000
  eigenvalues    EBANDS =      -204.59521340
  atomic energy  EATOM  =       596.16534815
  Solvation  Ediel_sol  =         0.00000000
  ---------------------------------------------------
  free energy    TOTEN  =       -36.70455134 eV

  energy without entropy =      -36.70455134  energy(sigma->0) =      -36.70455134


--------------------------------------------------------------------------------------------------------




----------------------------------------- Iteration   28(   5)  ---------------------------------------


    POTLOK:  cpu time   24.5413: real time   24.6111
    SETDIJ:  cpu time    0.0060: real time    0.0066
     EDDAV:  cpu time   43.2784: real time   43.4017
       DOS:  cpu time    0.0000: real time    0.0002
    CHARGE:  cpu time    5.9621: real time    5.9794
    MIXING:  cpu time    0.8579: real time    0.8609
    --------------------------------------------
      LOOP:  cpu time   74.6477: real time   75.8014

 eigenvalue-minimisations  :    48
 total energy-change (2. order) :-0.9151267E-07  (-0.5031377E-07)
 number of electron      16.0000006 magnetization 
 augmentation part        0.4370741 magnetization 

 Broyden mixing:
  rms(total) = 0.39382E-04    rms(broyden)= 0.39360E-04
  rms(prec ) = 0.42190E-04
  weight for this iteration     100.00

 eigenvalues of (default mixing * dielectric matrix)
  average eigenvalue GAMMA=   1.6096
  2.5279  1.6706  0.9128  1.3271

 Free energy of the ion-electron system (eV)
  ---------------------------------------------------
  alpha Z        PSCENC =         0.04144063
  Ewald energy   TEWEN  =       673.08041132
  -Hartree energ DENC   =     -1153.56535393
  -exchange      EXHF   =         0.00000000
  -V(xc)+E(xc)   XCENC  =        54.96932109
  PAW double counting   =      1373.74185414    -1376.54220318
  entropy T*S    EENTRO =         0.00000000
  eigenvalues    EBANDS =      -204.59536965
  atomic energy  EATOM  =       596.16534815
  Solvation  Ediel_sol  =         0.00000000
  ---------------------------------------------------
  free energy    TOTEN  =       -36.70455143 eV

  energy without entropy =      -36.70455143  energy(sigma->0) =      -36.70455143


--------------------------------------------------------------------------------------------------------




----------------------------------------- Iteration   28(   6)  ---------------------------------------


    POTLOK:  cpu time   25.9301: real time   26.0077
    SETDIJ:  cpu time    0.0070: real time    0.0068
     EDDAV:  cpu time   42.5235: real time   42.6422
       DOS:  cpu time    0.0000: real time    0.0002
    --------------------------------------------
      LOOP:  cpu time   68.4646: real time   69.7601

 eigenvalue-minimisations  :    48
 total energy-change (2. order) :-0.8127699E-07  (-0.1744256E-07)
 number of electron      16.0000006 magnetization 
 augmentation part        0.4370741 magnetization 

 Free energy of the ion-electron system (eV)
  ---------------------------------------------------
  alpha Z        PSCENC =         0.04144063
  Ewald energy   TEWEN  =       673.08041132
  -Hartree energ DENC   =     -1153.56543306
  -exchange      EXHF   =         0.00000000
  -V(xc)+E(xc)   XCENC  =        54.96932507
  PAW double counting   =      1373.74518579    -1376.54553685
  entropy T*S    EENTRO =         0.00000000
  eigenvalues    EBANDS =      -204.59529256
  atomic energy  EATOM  =       596.16534815
  Solvation  Ediel_sol  =         0.00000000
  ---------------------------------------------------
  free energy    TOTEN  =       -36.70455152 eV

  energy without entropy =      -36.70455152  energy(sigma->0) =      -36.70455152


--------------------------------------------------------------------------------------------------------




 average (electrostatic) potential at core
  the test charge radii are     0.5201  0.6991  0.7089
  (the norm of the test charge is              1.0000)
       1 -43.1716       2 -43.1699       3 -43.1690       4 -60.0782       5 -60.0728
       6 -73.2255
 
 
 
 E-fermi :  -7.0914     XC(G=0):  -0.0582     alpha+bet : -0.0137


 k-point     1 :       0.2500    0.2500    0.2500
  band No.  band energies     occupation 
      1     -22.5243      2.00000
      2     -19.3791      2.00000
      3     -12.8328      2.00000
      4     -11.4719      2.00000
      5     -11.4680      2.00000
      6      -8.4942      2.00000
      7      -8.0658      2.00000
      8      -8.0615      2.00000
      9      -0.8358      0.00000
     10      -0.4730      0.00000
     11      -0.4672      0.00000
     12       0.0228      0.00000

 k-point     2 :      -0.2500    0.2500    0.2500
  band No.  band energies     occupation 
      1     -22.5243      2.00000
      2     -19.3791      2.00000
      3     -12.8328      2.00000
      4     -11.4719      2.00000
      5     -11.4680      2.00000
      6      -8.4942      2.00000
      7      -8.0658      2.00000
      8      -8.0615      2.00000
      9      -0.8358      0.00000
     10      -0.4730      0.00000
     11      -0.4672      0.00000
     12       0.0228      0.00000

 k-point     3 :       0.2500   -0.2500    0.2500
  band No.  band energies     occupation 
      1     -22.5243      2.00000
      2     -19.3791      2.00000
      3     -12.8328      2.00000
      4     -11.4719      2.00000
      5     -11.4680      2.00000
      6      -8.4942      2.00000
      7      -8.0658      2.00000
      8      -8.0615      2.00000
      9      -0.8358      0.00000
     10      -0.4730      0.00000
     11      -0.4672      0.00000
     12       0.0228      0.00000

 k-point     4 :      -0.2500   -0.2500    0.2500
  band No.  band energies     occupation 
      1     -22.5243      2.00000
      2     -19.3791      2.00000
      3     -12.8328      2.00000
      4     -11.4719      2.00000
      5     -11.4680      2.00000
      6      -8.4942      2.00000
      7      -8.0658      2.00000
      8      -8.0615      2.00000
      9      -0.8358      0.00000
     10      -0.4730      0.00000
     11      -0.4672      0.00000
     12       0.0227      0.00000


--------------------------------------------------------------------------------------------------------


 soft charge-density along one line, spin component           1
         0         1         2         3         4         5         6         7         8         9
 total charge-density along one line
 
 pseudopotential strength for first ion, spin component:           1
 -2.364  -4.078  -0.002   0.000  -0.001
 -4.078  -6.948  -0.005   0.001  -0.002
 -0.002  -0.005  -0.330  -0.001   0.002
  0.000   0.001  -0.001  -0.334   0.000
 -0.001  -0.002   0.002   0.000  -0.333
 total augmentation occupancy for first ion, spin component:           1
  3.480  -0.627   0.400  -0.063   0.166
 -0.627   0.129  -0.074   0.012  -0.030
  0.400  -0.074   0.048  -0.006   0.016
 -0.063   0.012  -0.006   0.010  -0.003
  0.166  -0.030   0.016  -0.003   0.014


------------------------ aborting loop because EDIFF is reached ----------------------------------------


    CHARGE:  cpu time    6.1291: real time    6.1457
    FORLOC:  cpu time    2.5266: real time    2.5337
    FORNL :  cpu time   18.5922: real time   18.6419
    STRESS:  cpu time   55.6075: real time   55.7579
    FORCOR:  cpu time   22.4956: real time   22.5462
    FORHAR:  cpu time    7.8258: real time    7.8415
    MIXING:  cpu time    0.8139: real time    0.8163
    OFIELD:  cpu time    0.0000: real time    0.0000

  FORCE on cell =-STRESS in cart. coord.  units (eV):
  Direction    XX          YY          ZZ          XY          YZ          ZX
  --------------------------------------------------------------------------------------
  Alpha Z     0.04144     0.04144     0.04144
  Ewald     596.39700    36.72188    39.96127   -13.74758    -1.12357    44.25172
  Hartree   585.20815   283.27760   285.07982    -7.04215    -0.58717    24.13163
  E(xc)     -58.97197   -60.32461   -60.31709    -0.03624    -0.00280     0.10442
  Local   -1324.26896  -492.84369  -497.72668    19.91990     1.64983   -66.11025
  n-local   -28.21725   -24.80555   -24.81456     0.10853     0.01268    -0.25018
  augment     0.40976     0.39290     0.39373     0.00130    -0.00042     0.00271
  Kinetic   228.47584   256.60356   256.44803     0.82314     0.04803    -2.09954
  Fock        0.00000     0.00000     0.00000     0.00000     0.00000     0.00000
  -------------------------------------------------------------------------------------
  Total      -0.92599    -0.93646    -0.93404     0.02689    -0.00341     0.03050
  in kB      -0.05495    -0.05557    -0.05543     0.00160    -0.00020     0.00181
  external pressure =       -0.06 kB  Pullay stress =        0.00 kB


 VOLUME and BASIS-vectors are now :
 -----------------------------------------------------------------------------
  energy-cutoff  :      400.00
  volume of cell :    27000.00
      direct lattice vectors                 reciprocal lattice vectors
    30.000000000  0.000000000  0.000000000     0.033333333  0.000000000  0.000000000
     0.000000000 30.000000000  0.000000000     0.000000000  0.033333333  0.000000000
     0.000000000  0.000000000 30.000000000     0.000000000  0.000000000  0.033333333

  length of vectors
    30.000000000 30.000000000 30.000000000     0.033333333  0.033333333  0.033333333


 FORCES acting on ions
    electron-ion (+dipol)            ewald-force                    non-local-force                 convergence-correction
 -----------------------------------------------------------------------------------------------
   0.343E+02 0.544E+02 -.770E+01   -.364E+02 -.595E+02 0.851E+01   0.213E+01 0.511E+01 -.808E+00   0.232E-04 -.406E-04 -.549E-04
   0.275E+02 -.188E+02 0.555E+02   -.290E+02 0.205E+02 -.607E+02   0.150E+01 -.173E+01 0.511E+01   0.180E-04 -.533E-04 -.421E-04
   0.356E+02 -.372E+02 -.392E+02   -.379E+02 0.406E+02 0.430E+02   0.228E+01 -.345E+01 -.376E+01   -.258E-04 -.380E-04 -.450E-04
   0.965E+02 -.236E+01 0.768E+01   -.101E+03 0.246E+01 -.805E+01   0.448E+01 -.108E+00 0.360E+00   0.434E-05 -.287E-03 -.309E-03
   0.663E+02 -.325E+01 0.373E+01   -.684E+02 0.335E+01 -.385E+01   0.212E+01 -.103E+00 0.118E+00   0.500E-04 -.358E-03 -.365E-03
   -.232E+03 0.622E+01 -.180E+02   0.273E+03 -.738E+01 0.210E+02   -.404E+02 0.118E+01 -.304E+01   0.119E-03 -.542E-03 -.539E-03
 -----------------------------------------------------------------------------------------------
   0.279E+02 -.891E+00 0.202E+01   0.000E+00 -.711E-14 -.711E-14   -.279E+02 0.902E+00 -.202E+01   0.188E-03 -.132E-02 -.136E-02
 
 
 POSITION                                       TOTAL-FORCE (eV/Angst)
 -----------------------------------------------------------------------------------
     14.10172     13.98617     15.12615        -0.014259     -0.006868      0.000281
     14.22552     15.33354     13.96182        -0.013980      0.003207     -0.002977
     14.07168     15.67372     15.70853         0.025491      0.000025     -0.001149
     14.51280     14.99290     14.96655        -0.003916     -0.009491     -0.007514
     15.96054     14.96498     15.08888         0.001957     -0.006755     -0.002573
     17.12337     14.93193     15.17708         0.004706      0.019882      0.013931
 -----------------------------------------------------------------------------------
    total drift:                                0.003016      0.010072      0.001276


--------------------------------------------------------------------------------------------------------



  FREE ENERGIE OF THE ION-ELECTRON SYSTEM (eV)
  ---------------------------------------------------
  free  energy   TOTEN  =       -36.70455152 eV

  energy  without entropy=      -36.70455152  energy(sigma->0) =      -36.70455152
 
 d Force = 0.3599246E-04[ 0.345E-04, 0.375E-04]  d Energy = 0.3614136E-04-0.149E-06
 d Force =-0.5287768E-02[-0.517E-02,-0.541E-02]  d Ewald  =-0.5287776E-02 0.823E-08


--------------------------------------------------------------------------------------------------------


    POTLOK:  cpu time   22.0426: real time   22.0895


--------------------------------------------------------------------------------------------------------


 NEB: the previous image is higher in energy: T
 NEB: the next image is higher in energy    : F
 NEB: only prev energy greater

 NEB: Tangent
 ----------------------------------------------
     -0.14169      0.16830      0.17870
     -0.14604      0.19624      0.21305
      0.23413      0.15485      0.26729
     -0.00914      0.11040      0.14759
      0.03501     -0.18839     -0.19111
      0.08517     -0.50312     -0.54454

 NEB: forces: par spring, perp REAL, dneb     0.107410    0.043212    0.000000
 NEB: distance to prev, next image, angle between     0.330342    0.308860  118.423332
 NEB: projections on to tangent (spring, REAL)    -0.107410   -0.008861

 stress matrix after NEB project (eV)
     -0.92599      0.02689      0.03050
      0.02689     -0.93646     -0.00341
      0.03050     -0.00341     -0.93404
  FORCES: max atom, RMS     0.096996    0.047266
  FORCE total and by dimension    0.115777    0.069465
  Stress total and by dimension    1.615605    0.936456
 OPT: skip step - force has converged


--------------------------------------------------------------------------------------------------------


  
 reached required accuracy - stopping structural energy minimisation
     LOOP+:  cpu time  736.7400: real time  740.6992
    4ORBIT:  cpu time    0.0000: real time    0.0000

 total amount of memory used by VASP on root node  3203889. kBytes
========================================================================

   base      :      30000. kBytes
   nonlr-proj:        693. kBytes
   fftplans  :     924480. kBytes
   grid      :    1872000. kBytes
   one-center:         18. kBytes
   wavefun   :     376698. kBytes
 
  
  
 General timing and accounting informations for this job:
 ========================================================
  
                  Total CPU time used (sec):    22537.463
                            User time (sec):    22247.866
                          System time (sec):      289.598
                         Elapsed time (sec):    22605.993
  
                   Maximum memory used (kb):     4782280.
                   Average memory used (kb):           0.
  
                          Minor page faults:      2636391
                          Major page faults:            8
                 Voluntary context switches:         3948
