 vasp.5.4.1 24Jun15 (build Jan 13 2020 12:58:22) complex                        
  
 POSCAR found type information on POSCAR  H  C  N 
 15/POSCAR found :  3 types and       6 ions
 scaLAPACK will be used

 ----------------------------------------------------------------------------- 
|                                                                             |
|  ADVICE TO THIS USER RUNNING 'VASP/VAMP'   (HEAR YOUR MASTER'S VOICE ...):  |
|                                                                             |
|      You have a (more or less) 'small supercell' and for smaller cells      |
|      it is recommended  to use the reciprocal-space projection scheme!      |
|      The real space optimization is not  efficient for small cells and it   |
|      is also less accurate ...                                              |
|      Therefore set LREAL=.FALSE. in the  INCAR file                         |
|                                                                             |
 ----------------------------------------------------------------------------- 

 LDA part: xc-table for Pade appr. of Perdew
 POSCAR found type information on POSCAR  H  C  N 
 00/POSCAR found :  3 types and       6 ions
 POSCAR found type information on POSCAR  H  C  N 
 16/POSCAR found :  3 types and       6 ions
 Jacobian:    40.4401846379183     
 POSCAR, INCAR and KPOINTS ok, starting setup
 WARNING: small aliasing (wrap around) errors must be expected
 FFT: planning ...
 WAVECAR not read
 entering main loop
       N       E                     dE             d eps       ncg     rms          rms(c)
DAV:   1     0.116254048328E+03    0.11625E+03   -0.21170E+03   160   0.366E+02
DAV:   2     0.966711965143E-01   -0.11616E+03   -0.11333E+03   192   0.108E+02
DAV:   3    -0.370191238233E+02   -0.37116E+02   -0.37012E+02   128   0.935E+01
DAV:   4    -0.407499823276E+02   -0.37309E+01   -0.37086E+01   128   0.277E+01
DAV:   5    -0.408329244228E+02   -0.82942E-01   -0.80438E-01   128   0.465E+00    0.109E+01
DAV:   6    -0.375358212456E+02    0.32971E+01   -0.65923E+00   120   0.177E+01    0.595E+00
DAV:   7    -0.368708344259E+02    0.66499E+00   -0.14067E+00   116   0.843E+00    0.301E+00
DAV:   8    -0.366975816473E+02    0.17325E+00   -0.41837E-01   128   0.480E+00    0.108E+00
DAV:   9    -0.366722393385E+02    0.25342E-01   -0.33960E-02   128   0.152E+00    0.330E-01
DAV:  10    -0.366678178308E+02    0.44215E-02   -0.47984E-03   128   0.598E-01    0.146E-01
DAV:  11    -0.366690472903E+02   -0.12295E-02   -0.17848E-03   128   0.323E-01    0.955E-02
DAV:  12    -0.366758423944E+02   -0.67951E-02   -0.49927E-03   112   0.531E-01    0.499E-02
DAV:  13    -0.366800327090E+02   -0.41903E-02   -0.11910E-03   160   0.235E-01    0.361E-02
DAV:  14    -0.366843056414E+02   -0.42729E-02   -0.57352E-04   128   0.150E-01    0.247E-02
DAV:  15    -0.366874120109E+02   -0.31064E-02   -0.30797E-04   128   0.929E-02    0.156E-02
DAV:  16    -0.366895947797E+02   -0.21828E-02   -0.26344E-04   128   0.955E-02    0.112E-02
DAV:  17    -0.366905667236E+02   -0.97194E-03   -0.49825E-05    88   0.522E-02    0.395E-03
DAV:  18    -0.366910403900E+02   -0.47367E-03   -0.29388E-05    88   0.317E-02    0.302E-03
DAV:  19    -0.366913235566E+02   -0.28317E-03   -0.13520E-05    72   0.207E-02    0.166E-03
DAV:  20    -0.366914293185E+02   -0.10576E-03   -0.34988E-06    88   0.128E-02    0.147E-03
DAV:  21    -0.366914813744E+02   -0.52056E-04   -0.14113E-06    72   0.762E-03
   1 F= -.36691481E+02 E0= -.36691481E+02  d E =-.366915E+02
damped:  g(F)=  0.000E+00 g(S)=  0.000E+00 dE (1.order)= 0.000E+00
 bond charge predicted
       N       E                     dE             d eps       ncg     rms          rms(c)
DAV:   1    -0.366924088252E+02   -0.97951E-03   -0.11688E-01    96   0.310E+00    0.879E-02
DAV:   2    -0.366924281242E+02   -0.19299E-04   -0.16660E-03   128   0.330E-01    0.557E-02
DAV:   3    -0.366924096482E+02    0.18476E-04   -0.10451E-04    96   0.970E-02    0.264E-02
DAV:   4    -0.366924306976E+02   -0.21049E-04   -0.69947E-05    96   0.739E-02    0.837E-03
DAV:   5    -0.366924333677E+02   -0.26701E-05   -0.11999E-05    96   0.332E-02    0.394E-03
DAV:   6    -0.366924378247E+02   -0.44569E-05   -0.33809E-06    64   0.158E-02
   2 F= -.36692438E+02 E0= -.36692438E+02  d E =-.956450E-03
damped:  g(F)=  0.000E+00 g(S)=  0.000E+00 dE (1.order)= 0.000E+00
 bond charge predicted
       N       E                     dE             d eps       ncg     rms          rms(c)
DAV:   1    -0.366925049827E+02   -0.71615E-04   -0.11993E-02    96   0.965E-01    0.274E-02
DAV:   2    -0.366925083975E+02   -0.34147E-05   -0.18517E-04   128   0.107E-01    0.179E-02
DAV:   3    -0.366925067732E+02    0.16243E-05   -0.88038E-06    64   0.284E-02    0.957E-03
DAV:   4    -0.366925108551E+02   -0.40819E-05   -0.78263E-06    96   0.252E-02    0.248E-03
DAV:   5    -0.366925115408E+02   -0.68566E-06   -0.15548E-06    64   0.115E-02    0.113E-03
DAV:   6    -0.366925124133E+02   -0.87248E-06   -0.23461E-07    64   0.418E-03
   3 F= -.36692512E+02 E0= -.36692512E+02  d E =-.745886E-04
damped:  g(F)=  0.000E+00 g(S)=  0.000E+00 dE (1.order)= 0.000E+00
 bond charge predicted
       N       E                     dE             d eps       ncg     rms          rms(c)
DAV:   1    -0.366922736543E+02    0.23789E-03   -0.42069E-02    96   0.178E+00    0.443E-02
DAV:   2    -0.366922931144E+02   -0.19460E-04   -0.61497E-04   112   0.188E-01    0.302E-02
DAV:   3    -0.366922851674E+02    0.79470E-05   -0.22691E-05    96   0.459E-02    0.160E-02
DAV:   4    -0.366922917550E+02   -0.65876E-05   -0.18718E-05    64   0.398E-02    0.386E-03
DAV:   5    -0.366922921892E+02   -0.43421E-06   -0.39870E-06    80   0.182E-02    0.170E-03
DAV:   6    -0.366922926347E+02   -0.44548E-06   -0.52591E-07    64   0.628E-03
   4 F= -.36692293E+02 E0= -.36692293E+02  d E =0.219779E-03
damped:  g(F)=  0.000E+00 g(S)=  0.000E+00 dE (1.order)= 0.000E+00
 bond charge predicted
       N       E                     dE             d eps       ncg     rms          rms(c)
DAV:   1    -0.366923548595E+02   -0.62670E-04   -0.29831E-04    96   0.156E-01    0.354E-03
DAV:   2    -0.366923553009E+02   -0.44135E-06   -0.34368E-06    48   0.154E-02    0.234E-03
DAV:   3    -0.366923558223E+02   -0.52144E-06   -0.48070E-07    56   0.610E-03    0.820E-04
DAV:   4    -0.366923562967E+02   -0.47433E-06   -0.16270E-07    56   0.300E-03    0.282E-04
DAV:   5    -0.366923566376E+02   -0.34097E-06   -0.59226E-08    52   0.151E-03    0.127E-04
DAV:   6    -0.366923569876E+02   -0.34994E-06   -0.38894E-08    56   0.871E-04
   5 F= -.36692357E+02 E0= -.36692357E+02  d E =-.643529E-04
damped:  g(F)=  0.000E+00 g(S)=  0.000E+00 dE (1.order)= 0.000E+00
 bond charge predicted
       N       E                     dE             d eps       ncg     rms          rms(c)
DAV:   1    -0.366924776668E+02   -0.12103E-03   -0.11855E-03    96   0.311E-01    0.688E-03
DAV:   2    -0.366924783244E+02   -0.65755E-06   -0.13317E-05    48   0.304E-02    0.449E-03
DAV:   3    -0.366924786666E+02   -0.34226E-06   -0.17421E-06    80   0.118E-02    0.158E-03
DAV:   4    -0.366924789289E+02   -0.26231E-06   -0.51531E-07    52   0.576E-03    0.517E-04
DAV:   5    -0.366924790439E+02   -0.11492E-06   -0.13737E-07    64   0.276E-03    0.222E-04
DAV:   6    -0.366924791529E+02   -0.10902E-06   -0.57489E-08    48   0.146E-03
   6 F= -.36692479E+02 E0= -.36692479E+02  d E =-.122165E-03
damped:  g(F)=  0.000E+00 g(S)=  0.000E+00 dE (1.order)= 0.000E+00
 bond charge predicted
       N       E                     dE             d eps       ncg     rms          rms(c)
DAV:   1    -0.366926534016E+02   -0.17436E-03   -0.26472E-03    96   0.464E-01    0.102E-02
DAV:   2    -0.366926546694E+02   -0.12678E-05   -0.29562E-05    64   0.453E-02    0.664E-03
DAV:   3    -0.366926550865E+02   -0.41717E-06   -0.38041E-06    68   0.175E-02    0.230E-03
DAV:   4    -0.366926553631E+02   -0.27659E-06   -0.10845E-06    52   0.842E-03    0.737E-04
DAV:   5    -0.366926554245E+02   -0.61386E-07   -0.27482E-07    52   0.404E-03    0.308E-04
DAV:   6    -0.366926554746E+02   -0.50055E-07   -0.10148E-07    48   0.212E-03
   7 F= -.36692655E+02 E0= -.36692655E+02  d E =-.176322E-03
damped:  g(F)=  0.000E+00 g(S)=  0.000E+00 dE (1.order)= 0.000E+00
 bond charge predicted
       N       E                     dE             d eps       ncg     rms          rms(c)
DAV:   1    -0.366928797828E+02   -0.22436E-03   -0.46695E-03    96   0.616E-01    0.133E-02
DAV:   2    -0.366928821159E+02   -0.23331E-05   -0.51813E-05    64   0.599E-02    0.873E-03
DAV:   3    -0.366928828138E+02   -0.69785E-06   -0.65785E-06    64   0.230E-02    0.297E-03
DAV:   4    -0.366928832322E+02   -0.41843E-06   -0.18357E-06    48   0.109E-02    0.924E-04
DAV:   5    -0.366928833119E+02   -0.79686E-07   -0.46714E-07    48   0.527E-03    0.370E-04
DAV:   6    -0.366928833758E+02   -0.63950E-07   -0.16711E-07    48   0.277E-03
   8 F= -.36692883E+02 E0= -.36692883E+02  d E =-.227901E-03
damped:  g(F)=  0.000E+00 g(S)=  0.000E+00 dE (1.order)= 0.000E+00
 bond charge predicted
       N       E                     dE             d eps       ncg     rms          rms(c)
DAV:   1    -0.366931563102E+02   -0.27300E-03   -0.72593E-03    96   0.767E-01    0.165E-02
DAV:   2    -0.366931601723E+02   -0.38621E-05   -0.80134E-05    64   0.744E-02    0.108E-02
DAV:   3    -0.366931612654E+02   -0.10931E-05   -0.10061E-05    64   0.284E-02    0.363E-03
DAV:   4    -0.366931619069E+02   -0.64146E-06   -0.27674E-06    48   0.134E-02    0.110E-03
DAV:   5    -0.366931620369E+02   -0.13006E-06   -0.70926E-07    48   0.648E-03    0.416E-04
DAV:   6    -0.366931621338E+02   -0.96845E-07   -0.24949E-07    48   0.340E-03
   9 F= -.36693162E+02 E0= -.36693162E+02  d E =-.278758E-03
damped:  g(F)=  0.000E+00 g(S)=  0.000E+00 dE (1.order)= 0.000E+00
 bond charge predicted
       N       E                     dE             d eps       ncg     rms          rms(c)
DAV:   1    -0.366934808258E+02   -0.31879E-03   -0.10447E-02    96   0.919E-01    0.196E-02
DAV:   2    -0.366934866119E+02   -0.57861E-05   -0.11502E-04    96   0.890E-02    0.129E-02
DAV:   3    -0.366934881902E+02   -0.15782E-05   -0.14343E-05    64   0.339E-02    0.435E-03
DAV:   4    -0.366934891058E+02   -0.91563E-06   -0.39259E-06    48   0.159E-02    0.128E-03
DAV:   5    -0.366934892969E+02   -0.19107E-06   -0.10090E-06    48   0.772E-03    0.470E-04
DAV:   6    -0.366934894354E+02   -0.13856E-06   -0.35115E-07    48   0.404E-03
  10 F= -.36693489E+02 E0= -.36693489E+02  d E =-.327302E-03
damped:  g(F)=  0.000E+00 g(S)=  0.000E+00 dE (1.order)= 0.000E+00
 bond charge predicted
       N       E                     dE             d eps       ncg     rms          rms(c)
DAV:   1    -0.366938913560E+02   -0.40206E-03   -0.17723E-02    96   0.120E+00    0.255E-02
DAV:   2    -0.366939038757E+02   -0.12520E-04   -0.22026E-04   128   0.116E-01    0.174E-02
DAV:   3    -0.366939037695E+02    0.10622E-06   -0.66199E-06    64   0.260E-02    0.700E-03
DAV:   4    -0.366939054603E+02   -0.16908E-05   -0.36236E-06    64   0.166E-02    0.179E-03
DAV:   5    -0.366939057349E+02   -0.27462E-06   -0.80363E-07    48   0.796E-03    0.604E-04
DAV:   6    -0.366939059109E+02   -0.17598E-06   -0.13411E-07    48   0.285E-03
  11 F= -.36693906E+02 E0= -.36693906E+02  d E =-.416475E-03
damped:  g(F)=  0.000E+00 g(S)=  0.000E+00 dE (1.order)= 0.000E+00
 bond charge predicted
       N       E                     dE             d eps       ncg     rms          rms(c)
DAV:   1    -0.366944015588E+02   -0.49582E-03   -0.29274E-02    96   0.154E+00    0.328E-02
DAV:   2    -0.366944221624E+02   -0.20604E-04   -0.36277E-04   128   0.149E-01    0.223E-02
DAV:   3    -0.366944219711E+02    0.19127E-06   -0.10971E-05    64   0.335E-02    0.908E-03
DAV:   4    -0.366944248682E+02   -0.28971E-05   -0.60550E-06    64   0.215E-02    0.232E-03
DAV:   5    -0.366944253135E+02   -0.44528E-06   -0.13501E-06    48   0.104E-02    0.779E-04
DAV:   6    -0.366944256006E+02   -0.28720E-06   -0.21570E-07    48   0.371E-03
  12 F= -.36694426E+02 E0= -.36694426E+02  d E =-.519690E-03
damped:  g(F)=  0.000E+00 g(S)=  0.000E+00 dE (1.order)= 0.000E+00
 bond charge predicted
       N       E                     dE             d eps       ncg     rms          rms(c)
DAV:   1    -0.366950211131E+02   -0.59580E-03   -0.47201E-02    96   0.195E+00    0.417E-02
DAV:   2    -0.366950541845E+02   -0.33071E-04   -0.58540E-04   128   0.189E-01    0.284E-02
DAV:   3    -0.366950538176E+02    0.36687E-06   -0.17756E-05    64   0.426E-02    0.116E-02
DAV:   4    -0.366950587589E+02   -0.49412E-05   -0.98474E-06    80   0.275E-02    0.296E-03
DAV:   5    -0.366950594116E+02   -0.65275E-06   -0.21966E-06    48   0.133E-02    0.100E-03
DAV:   6    -0.366950598307E+02   -0.41910E-06   -0.34131E-07    48   0.474E-03
  13 F= -.36695060E+02 E0= -.36695060E+02  d E =-.634230E-03
damped:  g(F)=  0.000E+00 g(S)=  0.000E+00 dE (1.order)= 0.000E+00
 bond charge predicted
       N       E                     dE             d eps       ncg     rms          rms(c)
DAV:   1    -0.366957516641E+02   -0.69225E-03   -0.74362E-02    96   0.245E+00    0.523E-02
DAV:   2    -0.366958044684E+02   -0.52804E-04   -0.92222E-04   128   0.237E-01    0.356E-02
DAV:   3    -0.366958034828E+02    0.98558E-06   -0.27913E-05    80   0.535E-02    0.144E-02
DAV:   4    -0.366958118120E+02   -0.83292E-05   -0.15427E-05    64   0.345E-02    0.371E-03
DAV:   5    -0.366958127678E+02   -0.95578E-06   -0.34193E-06    64   0.166E-02    0.123E-03
DAV:   6    -0.366958133257E+02   -0.55792E-06   -0.52248E-07    48   0.591E-03
  14 F= -.36695813E+02 E0= -.36695813E+02  d E =-.753495E-03
damped:  g(F)=  0.000E+00 g(S)=  0.000E+00 dE (1.order)= 0.000E+00
 bond charge predicted
       N       E                     dE             d eps       ncg     rms          rms(c)
DAV:   1    -0.366965981241E+02   -0.78536E-03   -0.11462E-01    96   0.304E+00    0.649E-02
DAV:   2    -0.366966829664E+02   -0.84842E-04   -0.14216E-03   128   0.294E-01    0.441E-02
DAV:   3    -0.366966815132E+02    0.14531E-05   -0.43063E-05    84   0.664E-02    0.176E-02
DAV:   4    -0.366966930454E+02   -0.11532E-04   -0.23530E-05    76   0.424E-02    0.461E-03
DAV:   5    -0.366966944937E+02   -0.14483E-05   -0.51588E-06    64   0.203E-02    0.154E-03
DAV:   6    -0.366966952836E+02   -0.78992E-06   -0.79704E-07    48   0.728E-03
  15 F= -.36696695E+02 E0= -.36696695E+02  d E =-.881958E-03
damped:  g(F)=  0.000E+00 g(S)=  0.000E+00 dE (1.order)= 0.000E+00
 bond charge predicted
       N       E                     dE             d eps       ncg     rms          rms(c)
DAV:   1    -0.366975592062E+02   -0.86471E-03   -0.17300E-01    96   0.373E+00    0.797E-02
DAV:   2    -0.366976913844E+02   -0.13218E-03   -0.21476E-03   128   0.360E-01    0.542E-02
DAV:   3    -0.366976893946E+02    0.19898E-05   -0.65287E-05    96   0.818E-02    0.215E-02
DAV:   4    -0.366977080266E+02   -0.18632E-04   -0.35630E-05    76   0.522E-02    0.570E-03
DAV:   5    -0.366977101222E+02   -0.20956E-05   -0.76989E-06    64   0.247E-02    0.205E-03
DAV:   6    -0.366977113380E+02   -0.12158E-05   -0.12423E-06    48   0.907E-03
  16 F= -.36697711E+02 E0= -.36697711E+02  d E =-.101605E-02
damped:  g(F)=  0.000E+00 g(S)=  0.000E+00 dE (1.order)= 0.000E+00
 bond charge predicted
       N       E                     dE             d eps       ncg     rms          rms(c)
DAV:   1    -0.366986336762E+02   -0.92355E-03   -0.25518E-01    96   0.452E+00    0.969E-02
DAV:   2    -0.366988216609E+02   -0.18798E-03   -0.31724E-03   128   0.436E-01    0.659E-02
DAV:   3    -0.366988172444E+02    0.44166E-05   -0.96257E-05    96   0.994E-02    0.263E-02
DAV:   4    -0.366988442647E+02   -0.27020E-04   -0.52735E-05    84   0.634E-02    0.692E-03
DAV:   5    -0.366988474161E+02   -0.31514E-05   -0.11427E-05    64   0.301E-02    0.254E-03
DAV:   6    -0.366988492543E+02   -0.18382E-05   -0.18624E-06    48   0.111E-02
  17 F= -.36698849E+02 E0= -.36698849E+02  d E =-.113792E-02
damped:  g(F)=  0.000E+00 g(S)=  0.000E+00 dE (1.order)= 0.000E+00
 bond charge predicted
       N       E                     dE             d eps       ncg     rms          rms(c)
DAV:   1    -0.366997692284E+02   -0.92181E-03   -0.36611E-01    96   0.541E+00    0.116E-01
DAV:   2    -0.367000447338E+02   -0.27551E-03   -0.45556E-03   128   0.522E-01    0.790E-02
DAV:   3    -0.367000374232E+02    0.73106E-05   -0.16156E-04   128   0.119E-01    0.310E-02
DAV:   4    -0.367000721446E+02   -0.34721E-04   -0.47741E-05    80   0.608E-02    0.804E-03
DAV:   5    -0.367000759873E+02   -0.38427E-05   -0.92626E-06    64   0.275E-02    0.323E-03
DAV:   6    -0.367000786154E+02   -0.26280E-05   -0.11661E-06    48   0.962E-03
  18 F= -.36700079E+02 E0= -.36700079E+02  d E =-.122936E-02
damped:  g(F)=  0.000E+00 g(S)=  0.000E+00 dE (1.order)= 0.000E+00
 bond charge predicted
       N       E                     dE             d eps       ncg     rms          rms(c)
DAV:   1    -0.367009394070E+02   -0.86342E-03   -0.50935E-01    96   0.638E+00    0.137E-01
DAV:   2    -0.367013303381E+02   -0.39093E-03   -0.63371E-03   128   0.614E-01    0.935E-02
DAV:   3    -0.367013134393E+02    0.16899E-04   -0.22444E-04   128   0.141E-01    0.368E-02
DAV:   4    -0.367013607574E+02   -0.47318E-04   -0.67820E-05    80   0.728E-02    0.956E-03
DAV:   5    -0.367013665005E+02   -0.57431E-05   -0.13084E-05    64   0.327E-02    0.383E-03
DAV:   6    -0.367013704585E+02   -0.39581E-05   -0.16475E-06    48   0.115E-02
  19 F= -.36701370E+02 E0= -.36701370E+02  d E =-.129184E-02
damped:  g(F)=  0.000E+00 g(S)=  0.000E+00 dE (1.order)= 0.000E+00
 bond charge predicted
       N       E                     dE             d eps       ncg     rms          rms(c)
DAV:   1    -0.367020667764E+02   -0.70028E-03   -0.55816E-01    96   0.671E+00    0.146E-01
DAV:   2    -0.367024856555E+02   -0.41888E-03   -0.68439E-03   128   0.646E-01    0.977E-02
DAV:   3    -0.367024661909E+02    0.19465E-04   -0.25519E-04   128   0.151E-01    0.373E-02
DAV:   4    -0.367025109938E+02   -0.44803E-04   -0.72927E-05    96   0.744E-02    0.102E-02
DAV:   5    -0.367025177514E+02   -0.67576E-05   -0.13753E-05    64   0.340E-02    0.394E-03
DAV:   6    -0.367025225597E+02   -0.48083E-05   -0.19289E-06    48   0.122E-02
  20 F= -.36702523E+02 E0= -.36702523E+02  d E =-.115210E-02
damped:  g(F)=  0.000E+00 g(S)=  0.000E+00 dE (1.order)= 0.000E+00
 bond charge predicted
       N       E                     dE             d eps       ncg     rms          rms(c)
DAV:   1    -0.367030356628E+02   -0.51791E-03   -0.63010E-01    96   0.715E+00    0.157E-01
DAV:   2    -0.367035050247E+02   -0.46936E-03   -0.76433E-03   128   0.686E-01    0.104E-01
DAV:   3    -0.367034787101E+02    0.26315E-04   -0.29632E-04   128   0.163E-01    0.392E-02
DAV:   4    -0.367035226620E+02   -0.43952E-04   -0.81434E-05    92   0.780E-02    0.110E-02
DAV:   5    -0.367035305041E+02   -0.78421E-05   -0.14943E-05    64   0.356E-02    0.408E-03
DAV:   6    -0.367035359070E+02   -0.54029E-05   -0.21861E-06    64   0.130E-02
  21 F= -.36703536E+02 E0= -.36703536E+02  d E =-.101335E-02
damped:  g(F)=  0.000E+00 g(S)=  0.000E+00 dE (1.order)= 0.000E+00
 bond charge predicted
       N       E                     dE             d eps       ncg     rms          rms(c)
DAV:   1    -0.367038668195E+02   -0.33632E-03   -0.63655E-01    96   0.726E+00    0.161E-01
DAV:   2    -0.367043396551E+02   -0.47284E-03   -0.76580E-03   128   0.689E-01    0.107E-01
DAV:   3    -0.367043192177E+02    0.20437E-04   -0.30739E-04   128   0.167E-01    0.397E-02
DAV:   4    -0.367043635011E+02   -0.44283E-04   -0.80016E-05    88   0.765E-02    0.112E-02
DAV:   5    -0.367043715347E+02   -0.80336E-05   -0.13540E-05    64   0.339E-02    0.451E-03
DAV:   6    -0.367043778785E+02   -0.63439E-05   -0.22973E-06    64   0.133E-02
  22 F= -.36704378E+02 E0= -.36704378E+02  d E =-.841972E-03
damped:  g(F)=  0.000E+00 g(S)=  0.000E+00 dE (1.order)= 0.000E+00
 bond charge predicted
       N       E                     dE             d eps       ncg     rms          rms(c)
DAV:   1    -0.367043941466E+02   -0.22612E-04   -0.21141E-04    96   0.124E-01    0.292E-03
DAV:   2    -0.367043975296E+02   -0.33830E-05   -0.27090E-06    48   0.125E-02    0.204E-03
DAV:   3    -0.367044013395E+02   -0.38100E-05   -0.43421E-07    88   0.527E-03    0.899E-04
DAV:   4    -0.367044053632E+02   -0.40237E-05   -0.23255E-07    64   0.316E-03    0.361E-04
DAV:   5    -0.367044086161E+02   -0.32529E-05   -0.12259E-07    96   0.189E-03    0.198E-04
DAV:   6    -0.367044122318E+02   -0.36156E-05   -0.14646E-07    64   0.166E-03
  23 F= -.36704412E+02 E0= -.36704412E+02  d E =-.343532E-04
damped:  g(F)=  0.000E+00 g(S)=  0.000E+00 dE (1.order)= 0.000E+00
 bond charge predicted
       N       E                     dE             d eps       ncg     rms          rms(c)
DAV:   1    -0.367044312099E+02   -0.22594E-04   -0.81797E-04   128   0.243E-01    0.529E-03
DAV:   2    -0.367044321990E+02   -0.98913E-06   -0.99331E-06    64   0.238E-02    0.365E-03
DAV:   3    -0.367044327503E+02   -0.55128E-06   -0.11982E-06    48   0.908E-03    0.161E-03
DAV:   4    -0.367044334051E+02   -0.65484E-06   -0.35964E-07    96   0.479E-03    0.526E-04
DAV:   5    -0.367044338520E+02   -0.44688E-06   -0.95811E-08    60   0.212E-03    0.177E-04
DAV:   6    -0.367044341781E+02   -0.32605E-06   -0.42734E-08    48   0.103E-03
  24 F= -.36704434E+02 E0= -.36704434E+02  d E =-.219463E-04
damped:  g(F)=  0.000E+00 g(S)=  0.000E+00 dE (1.order)= 0.000E+00
 bond charge predicted
       N       E                     dE             d eps       ncg     rms          rms(c)
DAV:   1    -0.367044542606E+02   -0.20409E-04   -0.17589E-03    96   0.354E-01    0.748E-03
DAV:   2    -0.367044554093E+02   -0.11488E-05   -0.20815E-05    64   0.340E-02    0.519E-03
DAV:   3    -0.367044555411E+02   -0.13176E-06   -0.24199E-06    64   0.128E-02    0.213E-03
DAV:   4    -0.367044557907E+02   -0.24961E-06   -0.66769E-07    92   0.642E-03    0.695E-04
DAV:   5    -0.367044559118E+02   -0.12110E-06   -0.16655E-07    64   0.283E-03    0.229E-04
DAV:   6    -0.367044559926E+02   -0.80834E-07   -0.62215E-08    48   0.135E-03
  25 F= -.36704456E+02 E0= -.36704456E+02  d E =-.218146E-04
damped:  g(F)=  0.000E+00 g(S)=  0.000E+00 dE (1.order)= 0.000E+00
 bond charge predicted
       N       E                     dE             d eps       ncg     rms          rms(c)
DAV:   1    -0.367044805361E+02   -0.24624E-04   -0.29793E-03    96   0.458E-01    0.949E-03
DAV:   2    -0.367044823639E+02   -0.18278E-05   -0.34615E-05    64   0.435E-02    0.662E-03
DAV:   3    -0.367044824440E+02   -0.80119E-07   -0.39549E-06    64   0.163E-02    0.247E-03
DAV:   4    -0.367044826672E+02   -0.22319E-06   -0.10538E-06    48   0.790E-03    0.739E-04
DAV:   5    -0.367044827164E+02   -0.49196E-07   -0.25662E-07    80   0.344E-03    0.261E-04
DAV:   6    -0.367044827577E+02   -0.41259E-07   -0.94503E-08    48   0.166E-03
  26 F= -.36704483E+02 E0= -.36704483E+02  d E =-.267650E-04
damped:  g(F)=  0.000E+00 g(S)=  0.000E+00 dE (1.order)= 0.000E+00
 bond charge predicted
       N       E                     dE             d eps       ncg     rms          rms(c)
DAV:   1    -0.367045120853E+02   -0.29369E-04   -0.44283E-03    96   0.558E-01    0.115E-02
DAV:   2    -0.367045148363E+02   -0.27510E-05   -0.51291E-05    56   0.529E-02    0.806E-03
DAV:   3    -0.367045149515E+02   -0.11522E-06   -0.58756E-06    56   0.198E-02    0.291E-03
DAV:   4    -0.367045152685E+02   -0.31703E-06   -0.15587E-06    48   0.962E-03    0.838E-04
DAV:   5    -0.367045153250E+02   -0.56550E-07   -0.37080E-07    48   0.418E-03    0.317E-04
DAV:   6    -0.367045153748E+02   -0.49803E-07   -0.13228E-07    48   0.200E-03
  27 F= -.36704515E+02 E0= -.36704515E+02  d E =-.326172E-04
damped:  g(F)=  0.000E+00 g(S)=  0.000E+00 dE (1.order)= 0.000E+00
 bond charge predicted
       N       E                     dE             d eps       ncg     rms          rms(c)
DAV:   1    -0.367045470811E+02   -0.31756E-04   -0.60197E-03    96   0.651E-01    0.135E-02
DAV:   2    -0.367045508143E+02   -0.37332E-05   -0.70008E-05    64   0.618E-02    0.943E-03
DAV:   3    -0.367045509066E+02   -0.92323E-07   -0.80408E-06    48   0.233E-02    0.345E-03
DAV:   4    -0.367045513434E+02   -0.43677E-06   -0.21454E-06    48   0.114E-02    0.104E-03
DAV:   5    -0.367045514349E+02   -0.91513E-07   -0.50314E-07    48   0.494E-03    0.394E-04
DAV:   6    -0.367045515162E+02   -0.81277E-07   -0.17443E-07    48   0.236E-03
  28 F= -.36704552E+02 E0= -.36704552E+02  d E =-.361414E-04
damped:  g(F)=  0.000E+00 g(S)=  0.000E+00 dE (1.order)= 0.000E+00
 reached required accuracy - stopping structural energy minimisation
