unknown system                          
           1
    30.000000    0.000000    0.000000
     0.000000   30.000000    0.000000
     0.000000    0.000000   30.000000
   H    C    N 
   3   2   1
Direct configuration=     1
   0.47069524  0.46574159  0.50213572
   0.47655716  0.51202047  0.46489037
   0.46667014  0.52154181  0.52280283
   0.48374714  0.49983883  0.49871618
   0.53165477  0.49904671  0.50521264
   0.57043502  0.49631200  0.50757294
Direct configuration=     2
   0.47068777  0.46575451  0.50213494
   0.47656076  0.51203715  0.46490368
   0.46666704  0.52154637  0.52281636
   0.48374039  0.49984860  0.49872578
   0.53167944  0.49903181  0.50520963
   0.57042547  0.49627114  0.50754521
Direct configuration=     3
   0.47067254  0.46577988  0.50213328
   0.47656755  0.51207038  0.46492983
   0.46666153  0.52155558  0.52284362
   0.48372938  0.49986783  0.49874494
   0.53171597  0.49900273  0.50520255
   0.57041677  0.49618952  0.50749134
Direct configuration=     4
   0.47067133  0.46578036  0.50213906
   0.47656129  0.51206762  0.46493036
   0.46666722  0.52155877  0.52284636
   0.48372947  0.49986768  0.49874545
   0.53171571  0.49900198  0.50519558
   0.57041893  0.49619427  0.50748758
Direct configuration=     5
   0.47066892  0.46578132  0.50215063
   0.47654876  0.51206211  0.46493144
   0.46667860  0.52156514  0.52285185
   0.48372960  0.49986738  0.49874647
   0.53171540  0.49900046  0.50518167
   0.57042307  0.49620376  0.50748003
Direct configuration=     6
   0.47066532  0.46578277  0.50216801
   0.47652996  0.51205383  0.46493309
   0.46669569  0.52157468  0.52286005
   0.48372971  0.49986694  0.49874801
   0.53171545  0.49899818  0.50516087
   0.57042883  0.49621802  0.50746861
Direct configuration=     7
   0.47066052  0.46578474  0.50219123
   0.47650487  0.51204277  0.46493531
   0.46671853  0.52158739  0.52287093
   0.48372971  0.49986636  0.49875005
   0.53171638  0.49899516  0.50513326
   0.57043575  0.49623707  0.50745322
Direct configuration=     8
   0.47065456  0.46578725  0.50222036
   0.47647347  0.51202890  0.46493817
   0.46674715  0.52160322  0.52288445
   0.48372950  0.49986564  0.49875260
   0.53171877  0.49899143  0.50509891
   0.57044332  0.49626093  0.50743372
Direct configuration=     9
   0.47064747  0.46579032  0.50225548
   0.47643573  0.51201218  0.46494171
   0.46678162  0.52162217  0.52290056
   0.48372897  0.49986478  0.49875568
   0.53172307  0.49898708  0.50505788
   0.57045113  0.49628962  0.50740991
Direct configuration=    10
   0.47063835  0.46579442  0.50230141
   0.47638655  0.51199033  0.46494649
   0.46682667  0.52164673  0.52292132
   0.48372794  0.49986367  0.49875971
   0.53173027  0.49898165  0.50500482
   0.57045980  0.49632698  0.50737835
Direct configuration=    11
   0.47062673  0.46579990  0.50236062
   0.47632333  0.51196213  0.46495289
   0.46688482  0.52167803  0.52294761
   0.48372625  0.49986222  0.49876487
   0.53174098  0.49897503  0.50493719
   0.57046954  0.49637493  0.50733715
Direct configuration=    12
   0.47061205  0.46580724  0.50243598
   0.47624297  0.51192619  0.46496145
   0.46695909  0.52171730  0.52298040
   0.48372371  0.49986028  0.49877141
   0.53175527  0.49896720  0.50485194
   0.57048116  0.49643568  0.50728418
Direct configuration=    13
   0.47059365  0.46581710  0.50253086
   0.47614193  0.51188080  0.46497287
   0.46705312  0.52176588  0.52302065
   0.48372031  0.49985768  0.49877958
   0.53177217  0.49895832  0.50474568
   0.57049634  0.49651171  0.50721687
Direct configuration=    14
   0.47057074  0.46583032  0.50264902
   0.47601608  0.51182404  0.46498809
   0.46717117  0.52182508  0.52306927
   0.48371611  0.49985421  0.49878957
   0.53179029  0.49894875  0.50461482
   0.57051724  0.49660575  0.50713227
Direct configuration=    15
   0.47054235  0.46584801  0.50279461
   0.47586083  0.51175366  0.46500833
   0.46731814  0.52189608  0.52312697
   0.48371120  0.49984952  0.49880149
   0.53180895  0.49893905  0.50445578
   0.57054521  0.49672096  0.50702695
Direct configuration=    16
   0.47050728  0.46587159  0.50297189
   0.47567120  0.51166719  0.46503519
   0.46749952  0.52197965  0.52319400
   0.48370550  0.49984309  0.49881537
   0.53183053  0.49892995  0.50426545
   0.57057880  0.49686098  0.50689698
Direct configuration=    17
   0.47046389  0.46590292  0.50318489
   0.47544202  0.51156221  0.46507077
   0.46772103  0.52207593  0.52327000
   0.48369924  0.49983426  0.49883092
   0.53186027  0.49892250  0.50404145
   0.57061377  0.49702924  0.50673846
Direct configuration=    18
   0.47041001  0.46594440  0.50343648
   0.47516832  0.51143653  0.46511758
   0.46798855  0.52218376  0.52335332
   0.48369450  0.49982204  0.49884772
   0.53189856  0.49891821  0.50378273
   0.57064902  0.49722881  0.50654849
Direct configuration=    19
   0.47032789  0.46601916  0.50369616
   0.47487295  0.51132878  0.46519841
   0.46829431  0.52229025  0.52345196
   0.48369417  0.49981724  0.49887396
   0.53193458  0.49889446  0.50350837
   0.57069951  0.49737813  0.50631616
Direct configuration=    20
   0.47021158  0.46612576  0.50396368
   0.47454720  0.51123401  0.46531123
   0.46864755  0.52239091  0.52355915
   0.48370878  0.49981407  0.49890358
   0.53198060  0.49885539  0.50322236
   0.57074709  0.49749352  0.50605076
Direct configuration=    21
   0.47005697  0.46624295  0.50422968
   0.47418369  0.51114006  0.46543274
   0.46905182  0.52247745  0.52365616
   0.48376117  0.49979529  0.49892075
   0.53202615  0.49881357  0.50293717
   0.57078312  0.49762925  0.50580092
Direct configuration=    22
   0.47005698  0.46624107  0.50422844
   0.47418369  0.51113900  0.46543076
   0.46905207  0.52247649  0.52365428
   0.48376131  0.49979366  0.49891893
   0.53202456  0.49881453  0.50293838
   0.57078390  0.49763426  0.50580610
Direct configuration=    23
   0.47005702  0.46623734  0.50422599
   0.47418369  0.51113686  0.46542684
   0.46905255  0.52247455  0.52365051
   0.48376150  0.49979042  0.49891534
   0.53202194  0.49881645  0.50294081
   0.57078497  0.49764428  0.50581637
Direct configuration=    24
   0.47005709  0.46623182  0.50422234
   0.47418372  0.51113365  0.46542105
   0.46905323  0.52247164  0.52364489
   0.48376157  0.49978564  0.49891004
   0.53201929  0.49881928  0.50294450
   0.57078551  0.49765921  0.50583150
Direct configuration=    25
   0.47005718  0.46622462  0.50421755
   0.47418376  0.51112941  0.46541353
   0.46905407  0.52246778  0.52363747
   0.48376139  0.49977941  0.49890310
   0.53201760  0.49882296  0.50294945
   0.57078475  0.49767884  0.50585118
Direct configuration=    26
   0.47005729  0.46621590  0.50421169
   0.47418384  0.51112417  0.46540443
   0.46905505  0.52246299  0.52362834
   0.48376085  0.49977187  0.49889467
   0.53201731  0.49882739  0.50295559
   0.57078240  0.49770286  0.50587506
Direct configuration=    27
   0.47005740  0.46620582  0.50420484
   0.47418395  0.51111799  0.46539394
   0.46905614  0.52245732  0.52361762
   0.48375999  0.49976317  0.49888496
   0.53201800  0.49883250  0.50296276
   0.57077893  0.49773091  0.50590276
Direct configuration=    28
   0.47005740  0.46620582  0.50420484
   0.47418395  0.51111799  0.46539394
   0.46905614  0.52245732  0.52361762
   0.48375999  0.49976317  0.49888496
   0.53201800  0.49883250  0.50296276
   0.57077893  0.49773091  0.50590276
