  22  22   0   0
  0.1227273E+04  0.3000000E-08  0.3000000E-08  0.3000000E-08  0.0000000E+00
  1.000000000000000E-004
  CAR 
 unknown system                          
      2.19623844    -28.22928334  301     -4.49658402      1.00000000
    -28.229  0.0000E+00  0.0000E+00
    -28.128  0.0000E+00  0.0000E+00
    -28.026  0.0000E+00  0.0000E+00
    -27.925  0.0000E+00  0.0000E+00
    -27.824  0.0000E+00  0.0000E+00
    -27.722  0.0000E+00  0.0000E+00
    -27.621  0.0000E+00  0.0000E+00
    -27.519  0.0000E+00  0.0000E+00
    -27.418  0.0000E+00  0.0000E+00
    -27.317  0.4926E-15  0.4996E-16
    -27.215  0.1031E-12  0.1051E-13
    -27.114  0.1308E-10  0.1337E-11
    -27.012  0.1001E-08  0.1029E-09
    -26.911  0.4632E-07  0.4800E-08
    -26.809  0.1298E-05  0.1364E-06
    -26.708  0.2204E-04  0.2372E-05
    -26.607  0.2274E-03  0.2544E-04
    -26.505  0.1428E-02  0.1703E-03
    -26.404  0.5464E-02  0.7244E-03
    -26.302  0.1276E-01  0.2018E-02
    -26.201  0.1819E-01  0.3863E-02
    -26.099  0.1585E-01  0.5471E-02
    -25.998  0.8464E-02  0.6329E-02
    -25.897  0.3009E-02  0.6634E-02
    -25.795  0.2158E-02  0.6853E-02
    -25.694  0.6011E-02  0.7463E-02
    -25.592  0.1336E-01  0.8818E-02
    -25.491  0.1832E-01  0.1068E-01
    -25.390  0.1536E-01  0.1223E-01
    -25.288  0.7863E-02  0.1303E-01
    -25.187  0.2458E-02  0.1328E-01
    -25.085  0.4684E-03  0.1333E-01
    -24.984  0.5435E-04  0.1333E-01
    -24.882  0.3833E-05  0.1333E-01
    -24.781  0.1640E-06  0.1333E-01
    -24.680  0.4253E-08  0.1333E-01
    -24.578  0.6667E-10  0.1333E-01
    -24.477  0.8825E-12  0.1333E-01
    -24.375  0.2915E-10  0.1333E-01
    -24.274  0.2042E-08  0.1333E-01
    -24.173  0.8646E-07  0.1333E-01
    -24.071  0.2217E-05  0.1333E-01
    -23.970  0.3449E-04  0.1334E-01
    -23.868  0.3260E-03  0.1337E-01
    -23.767  0.1875E-02  0.1356E-01
    -23.665  0.6577E-02  0.1423E-01
    -23.564  0.1408E-01  0.1565E-01
    -23.463  0.1840E-01  0.1752E-01
    -23.361  0.1470E-01  0.1901E-01
    -23.260  0.7172E-02  0.1974E-01
    -23.158  0.2140E-02  0.1996E-01
    -23.057  0.4430E-03  0.2000E-01
    -22.956  0.5172E-03  0.2005E-01
    -22.854  0.2483E-02  0.2031E-01
    -22.753  0.7911E-02  0.2111E-01
    -22.651  0.1540E-01  0.2267E-01
    -22.550  0.1831E-01  0.2453E-01
    -22.448  0.1330E-01  0.2588E-01
    -22.347  0.5904E-02  0.2647E-01
    -22.246  0.1599E-02  0.2664E-01
    -22.144  0.2639E-03  0.2666E-01
    -22.043  0.2651E-04  0.2667E-01
    -21.941  0.1618E-05  0.2667E-01
    -21.840  0.5986E-07  0.2667E-01
    -21.739  0.1341E-08  0.2667E-01
    -21.637  0.1817E-10  0.2667E-01
    -21.536  0.1486E-12  0.2667E-01
    -21.434  0.7298E-15  0.2667E-01
    -21.333  0.0000E+00  0.2667E-01
    -21.231  0.0000E+00  0.2667E-01
    -21.130  0.0000E+00  0.2667E-01
    -21.029  0.0000E+00  0.2667E-01
    -20.927  0.0000E+00  0.2667E-01
    -20.826  0.0000E+00  0.2667E-01
    -20.724  0.4014E-15  0.2667E-01
    -20.623  0.8541E-13  0.2667E-01
    -20.521  0.1104E-10  0.2667E-01
    -20.420  0.8607E-09  0.2667E-01
    -20.319  0.4057E-07  0.2667E-01
    -20.217  0.1158E-05  0.2667E-01
    -20.116  0.2003E-04  0.2667E-01
    -20.014  0.2105E-03  0.2669E-01
    -19.913  0.1346E-02  0.2683E-01
    -19.812  0.5246E-02  0.2736E-01
    -19.710  0.1247E-01  0.2862E-01
    -19.609  0.1811E-01  0.3046E-01
    -19.507  0.1607E-01  0.3209E-01
    -19.406  0.8711E-02  0.3297E-01
    -19.304  0.2882E-02  0.3327E-01
    -19.203  0.5817E-03  0.3333E-01
    -19.102  0.7148E-04  0.3333E-01
    -19.000  0.5342E-05  0.3333E-01
    -18.899  0.3553E-06  0.3333E-01
    -18.797  0.2799E-05  0.3333E-01
    -18.696  0.4179E-04  0.3334E-01
    -18.595  0.3801E-03  0.3338E-01
    -18.493  0.2104E-02  0.3359E-01
    -18.392  0.7101E-02  0.3431E-01
    -18.290  0.1463E-01  0.3579E-01
    -18.189  0.1841E-01  0.3766E-01
    -18.087  0.1415E-01  0.3910E-01
    -17.986  0.6660E-02  0.3977E-01
    -17.885  0.2065E-02  0.3998E-01
    -17.783  0.1425E-02  0.4012E-01
    -17.682  0.4568E-02  0.4059E-01
    -17.580  0.1148E-01  0.4175E-01
    -17.479  0.1775E-01  0.4355E-01
    -17.378  0.1677E-01  0.4525E-01
    -17.276  0.9682E-02  0.4624E-01
    -17.175  0.3412E-02  0.4658E-01
    -17.073  0.7336E-03  0.4666E-01
    -16.972  0.9604E-04  0.4667E-01
    -16.870  0.7646E-05  0.4667E-01
    -16.769  0.3695E-06  0.4667E-01
    -16.668  0.1085E-07  0.4667E-01
    -16.566  0.2126E-08  0.4667E-01
    -16.465  0.8248E-07  0.4667E-01
    -16.363  0.2129E-05  0.4667E-01
    -16.262  0.3335E-04  0.4667E-01
    -16.160  0.3173E-03  0.4670E-01
    -16.059  0.1838E-02  0.4689E-01
    -15.958  0.6488E-02  0.4755E-01
    -15.856  0.1398E-01  0.4896E-01
    -15.755  0.1840E-01  0.5083E-01
    -15.653  0.1479E-01  0.5233E-01
    -15.552  0.7267E-02  0.5307E-01
    -15.451  0.2196E-02  0.5329E-01
    -15.349  0.5851E-03  0.5335E-01
    -15.248  0.1273E-02  0.5348E-01
    -15.146  0.4927E-02  0.5398E-01
    -15.045  0.1204E-01  0.5520E-01
    -14.943  0.1797E-01  0.5702E-01
    -14.842  0.1639E-01  0.5868E-01
    -14.741  0.9135E-02  0.5961E-01
    -14.639  0.3108E-02  0.5993E-01
    -14.538  0.6456E-03  0.5999E-01
    -14.436  0.9557E-04  0.6000E-01
    -14.335  0.1645E-03  0.6002E-01
    -14.234  0.1081E-02  0.6013E-01
    -14.132  0.4501E-02  0.6058E-01
    -14.031  0.1143E-01  0.6174E-01
    -13.929  0.1773E-01  0.6354E-01
    -13.828  0.1680E-01  0.6525E-01
    -13.726  0.9728E-02  0.6623E-01
    -13.625  0.3439E-02  0.6658E-01
    -13.524  0.7448E-03  0.6666E-01
    -13.422  0.1456E-03  0.6667E-01
    -13.321  0.4337E-03  0.6672E-01
    -13.219  0.2291E-02  0.6695E-01
    -13.118  0.7510E-02  0.6771E-01
    -13.017  0.1504E-01  0.6923E-01
    -12.915  0.1852E-01  0.7111E-01
    -12.814  0.1472E-01  0.7261E-01
    -12.712  0.1052E-01  0.7367E-01
    -12.611  0.1281E-01  0.7497E-01
    -12.509  0.1791E-01  0.7679E-01
    -12.408  0.1753E-01  0.7856E-01
    -12.307  0.1254E-01  0.7984E-01
    -12.205  0.1149E-01  0.8100E-01
    -12.104  0.1614E-01  0.8264E-01
    -12.002  0.1843E-01  0.8451E-01
    -11.901  0.1339E-01  0.8587E-01
    -11.800  0.5984E-02  0.8647E-01
    -11.698  0.1821E-02  0.8666E-01
    -11.597  0.1573E-02  0.8682E-01
    -11.495  0.5387E-02  0.8736E-01
    -11.394  0.1406E-01  0.8879E-01
    -11.292  0.2458E-01  0.9128E-01
    -11.191  0.3034E-01  0.9436E-01
    -11.090  0.2747E-01  0.9715E-01
    -10.988  0.1840E-01  0.9901E-01
    -10.887  0.1094E-01  0.1001E+00
    -10.785  0.1139E-01  0.1013E+00
    -10.684  0.1685E-01  0.1030E+00
    -10.582  0.1835E-01  0.1048E+00
    -10.481  0.1413E-01  0.1063E+00
    -10.380  0.1316E-01  0.1076E+00
    -10.278  0.2241E-01  0.1099E+00
    -10.177  0.3757E-01  0.1137E+00
    -10.075  0.4680E-01  0.1184E+00
     -9.974  0.4172E-01  0.1227E+00
     -9.873  0.2644E-01  0.1254E+00
     -9.771  0.1428E-01  0.1268E+00
     -9.670  0.1350E-01  0.1282E+00
     -9.568  0.2037E-01  0.1302E+00
     -9.467  0.2696E-01  0.1330E+00
     -9.365  0.3173E-01  0.1362E+00
     -9.264  0.3728E-01  0.1400E+00
     -9.163  0.4244E-01  0.1443E+00
     -9.061  0.4254E-01  0.1486E+00
     -8.960  0.3645E-01  0.1523E+00
     -8.858  0.2978E-01  0.1553E+00
     -8.757  0.2571E-01  0.1579E+00
     -8.656  0.2309E-01  0.1603E+00
     -8.554  0.2221E-01  0.1625E+00
     -8.453  0.2009E-01  0.1646E+00
     -8.351  0.1335E-01  0.1659E+00
     -8.250  0.5719E-02  0.1665E+00
     -8.148  0.1515E-02  0.1666E+00
     -8.047  0.2455E-03  0.1667E+00
     -7.946  0.2422E-04  0.1667E+00
     -7.844  0.1452E-05  0.1667E+00
     -7.743  0.5280E-07  0.1667E+00
     -7.641  0.1681E-08  0.1667E+00
     -7.540  0.2602E-07  0.1667E+00
     -7.439  0.7891E-06  0.1667E+00
     -7.337  0.1451E-04  0.1667E+00
     -7.236  0.1621E-03  0.1667E+00
     -7.134  0.1102E-02  0.1668E+00
     -7.033  0.4561E-02  0.1673E+00
     -6.931  0.1152E-01  0.1684E+00
     -6.830  0.1777E-01  0.1702E+00
     -6.729  0.1680E-01  0.1719E+00
     -6.627  0.1014E-01  0.1730E+00
     -6.526  0.5958E-02  0.1736E+00
     -6.424  0.8818E-02  0.1745E+00
     -6.323  0.1566E-01  0.1760E+00
     -6.221  0.1836E-01  0.1779E+00
     -6.120  0.1373E-01  0.1793E+00
     -6.019  0.8747E-02  0.1802E+00
     -5.917  0.1049E-01  0.1813E+00
     -5.816  0.1673E-01  0.1830E+00
     -5.714  0.1955E-01  0.1849E+00
     -5.613  0.1786E-01  0.1867E+00
     -5.512  0.1802E-01  0.1886E+00
     -5.410  0.1952E-01  0.1906E+00
     -5.309  0.1590E-01  0.1922E+00
     -5.207  0.8280E-02  0.1930E+00
     -5.106  0.2654E-02  0.1933E+00
     -5.004  0.5195E-03  0.1933E+00
     -4.903  0.6194E-04  0.1933E+00
     -4.802  0.4489E-05  0.1933E+00
     -4.700  0.1975E-06  0.1933E+00
     -4.599  0.5261E-08  0.1933E+00
     -4.497  0.8478E-10  0.1933E+00
     -4.396  0.8252E-12  0.1933E+00
     -4.295  0.4846E-14  0.1933E+00
     -4.193  0.1460E-16  0.1933E+00
     -4.092  0.0000E+00  0.1933E+00
     -3.990  0.0000E+00  0.1933E+00
     -3.889  0.0000E+00  0.1933E+00
     -3.787  0.0000E+00  0.1933E+00
     -3.686  0.0000E+00  0.1933E+00
     -3.585  0.0000E+00  0.1933E+00
     -3.483  0.0000E+00  0.1933E+00
     -3.382  0.0000E+00  0.1933E+00
     -3.280  0.0000E+00  0.1933E+00
     -3.179  0.0000E+00  0.1933E+00
     -3.078  0.0000E+00  0.1933E+00
     -2.976  0.0000E+00  0.1933E+00
     -2.875  0.0000E+00  0.1933E+00
     -2.773  0.0000E+00  0.1933E+00
     -2.672  0.0000E+00  0.1933E+00
     -2.570  0.0000E+00  0.1933E+00
     -2.469  0.0000E+00  0.1933E+00
     -2.368  0.0000E+00  0.1933E+00
     -2.266  0.1095E-16  0.1933E+00
     -2.165  0.3329E-14  0.1933E+00
     -2.063  0.5875E-12  0.1933E+00
     -1.962  0.6254E-10  0.1933E+00
     -1.860  0.4022E-08  0.1933E+00
     -1.759  0.1566E-06  0.1933E+00
     -1.658  0.3701E-05  0.1933E+00
     -1.556  0.5330E-04  0.1933E+00
     -1.455  0.4707E-03  0.1934E+00
     -1.353  0.2576E-02  0.1936E+00
     -1.252  0.8895E-02  0.1946E+00
     -1.151  0.1992E-01  0.1966E+00
     -1.049  0.3001E-01  0.1996E+00
     -0.948  0.3134E-01  0.2028E+00
     -0.846  0.2307E-01  0.2051E+00
     -0.745  0.1328E-01  0.2065E+00
     -0.643  0.1097E-01  0.2076E+00
     -0.542  0.1724E-01  0.2093E+00
     -0.441  0.2648E-01  0.2120E+00
     -0.339  0.3611E-01  0.2157E+00
     -0.238  0.4783E-01  0.2205E+00
     -0.136  0.6130E-01  0.2268E+00
     -0.035  0.7937E-01  0.2348E+00
      0.066  0.1034E+00  0.2453E+00
      0.168  0.1145E+00  0.2569E+00
      0.269  0.9170E-01  0.2662E+00
      0.371  0.4907E-01  0.2712E+00
      0.472  0.1695E-01  0.2729E+00
      0.574  0.3714E-02  0.2733E+00
      0.675  0.5110E-03  0.2733E+00
      0.776  0.4382E-04  0.2733E+00
      0.878  0.2328E-05  0.2733E+00
      0.979  0.7617E-07  0.2733E+00
      1.081  0.1528E-08  0.2733E+00
      1.182  0.1874E-10  0.2733E+00
      1.283  0.1398E-12  0.2733E+00
      1.385  0.6349E-15  0.2733E+00
      1.486  0.0000E+00  0.2733E+00
      1.588  0.0000E+00  0.2733E+00
      1.689  0.0000E+00  0.2733E+00
      1.791  0.0000E+00  0.2733E+00
      1.892  0.0000E+00  0.2733E+00
      1.993  0.0000E+00  0.2733E+00
      2.095  0.0000E+00  0.2733E+00
      2.196  0.0000E+00  0.2733E+00
