   22   22  300    1
  0.1227273E+04  0.3000000E-08  0.3000000E-08  0.3000000E-08  0.0000000E+00
  1.000000000000000E-004
  CAR 
 unknown system                          
     58      4     41
 
  0.2500000E+00  0.2500000E+00  0.2500000E+00  0.2500000E+00
    1      -26.229281   1.000000
    2      -25.527315   1.000000
    3      -23.508872   1.000000
    4      -22.615608   1.000000
    5      -19.633349   1.000000
    6      -18.242980   1.000000
    7      -17.490606   1.000000
    8      -15.799707   1.000000
    9      -14.962399   1.000000
   10      -13.940352   1.000000
   11      -12.975164   1.000000
   12      -12.515696   1.000000
   13      -12.067097   1.000000
   14      -11.313335   1.000000
   15      -11.135553   1.000000
   16      -10.665444   1.000000
   17      -10.223373   1.000000
   18      -10.100198   1.000000
   19      -10.018878   1.000000
   20       -9.562954   1.000000
   21       -9.335492   1.000000
   22       -9.164660   1.000000
   23       -9.063869   1.000000
   24       -8.813912   1.000000
   25       -8.522024   1.000000
   26       -6.842206   1.000000
   27       -6.289765   1.000000
   28       -5.794090   1.000000
   29       -5.440924   1.000000
   30       -1.112742   0.000000
   31       -0.961882   0.000000
   32       -0.494897   0.000000
   33       -0.267003   0.000000
   34       -0.193715   0.000000
   35       -0.065462   0.000000
   36        0.035883   0.000000
   37        0.122413   0.000000
   38        0.127138   0.000000
   39        0.130874   0.000000
   40        0.174466   0.000000
   41        0.192135   0.000000
 
 -0.2500000E+00  0.2500000E+00  0.2500000E+00  0.2500000E+00
    1      -26.229283   1.000000
    2      -25.527316   1.000000
    3      -23.508870   1.000000
    4      -22.615607   1.000000
    5      -19.633344   1.000000
    6      -18.242982   1.000000
    7      -17.490609   1.000000
    8      -15.799704   1.000000
    9      -14.962400   1.000000
   10      -13.940357   1.000000
   11      -12.975162   1.000000
   12      -12.515699   1.000000
   13      -12.067100   1.000000
   14      -11.313338   1.000000
   15      -11.135549   1.000000
   16      -10.665448   1.000000
   17      -10.223367   1.000000
   18      -10.100216   1.000000
   19      -10.018873   1.000000
   20       -9.562947   1.000000
   21       -9.335494   1.000000
   22       -9.164667   1.000000
   23       -9.063871   1.000000
   24       -8.813909   1.000000
   25       -8.522034   1.000000
   26       -6.842199   1.000000
   27       -6.289775   1.000000
   28       -5.794082   1.000000
   29       -5.440921   1.000000
   30       -1.112752   0.000000
   31       -0.961882   0.000000
   32       -0.494899   0.000000
   33       -0.266990   0.000000
   34       -0.193769   0.000000
   35       -0.065648   0.000000
   36        0.041129   0.000000
   37        0.102993   0.000000
   38        0.122338   0.000000
   39        0.139516   0.000000
   40        0.178516   0.000000
   41        0.195844   0.000000
 
  0.2500000E+00 -0.2500000E+00  0.2500000E+00  0.2500000E+00
    1      -26.229281   1.000000
    2      -25.527316   1.000000
    3      -23.508874   1.000000
    4      -22.615609   1.000000
    5      -19.633349   1.000000
    6      -18.242980   1.000000
    7      -17.490608   1.000000
    8      -15.799703   1.000000
    9      -14.962403   1.000000
   10      -13.940351   1.000000
   11      -12.975153   1.000000
   12      -12.515705   1.000000
   13      -12.067094   1.000000
   14      -11.313334   1.000000
   15      -11.135556   1.000000
   16      -10.665449   1.000000
   17      -10.223369   1.000000
   18      -10.100204   1.000000
   19      -10.018879   1.000000
   20       -9.562943   1.000000
   21       -9.335485   1.000000
   22       -9.164669   1.000000
   23       -9.063872   1.000000
   24       -8.813914   1.000000
   25       -8.522043   1.000000
   26       -6.842219   1.000000
   27       -6.289761   1.000000
   28       -5.794096   1.000000
   29       -5.440923   1.000000
   30       -1.112750   0.000000
   31       -0.961881   0.000000
   32       -0.494904   0.000000
   33       -0.266994   0.000000
   34       -0.193759   0.000000
   35       -0.065700   0.000000
   36        0.041953   0.000000
   37        0.097472   0.000000
   38        0.128657   0.000000
   39        0.139361   0.000000
   40        0.179474   0.000000
   41        0.194260   0.000000
 
 -0.2500000E+00 -0.2500000E+00  0.2500000E+00  0.2500000E+00
    1      -26.229283   1.000000
    2      -25.527313   1.000000
    3      -23.508871   1.000000
    4      -22.615606   1.000000
    5      -19.633346   1.000000
    6      -18.242983   1.000000
    7      -17.490610   1.000000
    8      -15.799700   1.000000
    9      -14.962399   1.000000
   10      -13.940353   1.000000
   11      -12.975158   1.000000
   12      -12.515708   1.000000
   13      -12.067099   1.000000
   14      -11.313338   1.000000
   15      -11.135552   1.000000
   16      -10.665437   1.000000
   17      -10.223380   1.000000
   18      -10.100204   1.000000
   19      -10.018872   1.000000
   20       -9.562948   1.000000
   21       -9.335480   1.000000
   22       -9.164661   1.000000
   23       -9.063876   1.000000
   24       -8.813909   1.000000
   25       -8.522025   1.000000
   26       -6.842216   1.000000
   27       -6.289771   1.000000
   28       -5.794103   1.000000
   29       -5.440924   1.000000
   30       -1.112760   0.000000
   31       -0.961878   0.000000
   32       -0.494897   0.000000
   33       -0.266987   0.000000
   34       -0.193712   0.000000
   35       -0.066499   0.000000
   36        0.044392   0.000000
   37        0.102337   0.000000
   38        0.127323   0.000000
   39        0.137402   0.000000
   40        0.166675   0.000000
   41        0.196238   0.000000
