       N       E                     dE             d eps       ncg     rms          rms(c)
DAV:   1     0.607436143540E+03    0.60744E+03   -0.79830E+03   392   0.485E+02
DAV:   2     0.272205918602E+03   -0.33523E+03   -0.32404E+03   573   0.921E+01
DAV:   3    -0.448111742012E+02   -0.31702E+03   -0.30884E+03   496   0.111E+02
DAV:   4    -0.136135654275E+03   -0.91324E+02   -0.91106E+02   397   0.813E+01
DAV:   5    -0.141617735406E+03   -0.54821E+01   -0.54690E+01   464   0.232E+01    0.195E+01
DAV:   6    -0.131489363788E+03    0.10128E+02   -0.23780E+01   446   0.199E+01    0.998E+00
DAV:   7    -0.129748861372E+03    0.17405E+01   -0.45750E+00   416   0.836E+00    0.515E+00
DAV:   8    -0.129263662633E+03    0.48520E+00   -0.86913E-01   432   0.408E+00    0.157E+00
DAV:   9    -0.129193007849E+03    0.70655E-01   -0.10438E-01   464   0.156E+00    0.569E-01
DAV:  10    -0.129181117952E+03    0.11890E-01   -0.25734E-02   445   0.827E-01    0.265E-01
DAV:  11    -0.129174761837E+03    0.63561E-02   -0.81838E-03   456   0.455E-01    0.163E-01
DAV:  12    -0.129174366350E+03    0.39549E-03   -0.55029E-03   448   0.354E-01    0.990E-02
DAV:  13    -0.129180214626E+03   -0.58483E-02   -0.42268E-03   432   0.330E-01    0.585E-02
DAV:  14    -0.129186854205E+03   -0.66396E-02   -0.20441E-03   432   0.223E-01    0.384E-02
DAV:  15    -0.129194649301E+03   -0.77951E-02   -0.84337E-04   364   0.112E-01    0.244E-02
DAV:  16    -0.129200530557E+03   -0.58813E-02   -0.46045E-04   428   0.689E-02    0.134E-02
DAV:  17    -0.129202990420E+03   -0.24599E-02   -0.11250E-04   300   0.359E-02    0.905E-03
DAV:  18    -0.129204893103E+03   -0.19027E-02   -0.12835E-04   364   0.314E-02    0.539E-03
DAV:  19    -0.129205868647E+03   -0.97554E-03   -0.56492E-05   302   0.204E-02    0.323E-03
DAV:  20    -0.129206307583E+03   -0.43894E-03   -0.18854E-05   356   0.138E-02    0.192E-03
DAV:  21    -0.129206545936E+03   -0.23835E-03   -0.88481E-06   352   0.848E-03    0.120E-03
DAV:  22    -0.129206679620E+03   -0.13368E-03   -0.38493E-06   348   0.634E-03    0.837E-04
DAV:  23    -0.129206720891E+03   -0.41271E-04   -0.99627E-07   368   0.323E-03
   1 F= -.12920672E+03 E0= -.12920672E+03  d E =-.129207E+03
       N       E                     dE             d eps       ncg     rms          rms(c)
DAV:   1    -0.129209450843E+03   -0.27712E-02   -0.82830E-02   380   0.153E+00    0.652E-02
DAV:   2    -0.129209630230E+03   -0.17939E-03   -0.24892E-03   464   0.237E-01    0.476E-02
DAV:   3    -0.129209609165E+03    0.21065E-04   -0.63732E-05   336   0.453E-02    0.291E-02
DAV:   4    -0.129209612780E+03   -0.36152E-05   -0.59278E-05   311   0.431E-02    0.526E-03
DAV:   5    -0.129209615863E+03   -0.30827E-05   -0.13901E-05   336   0.194E-02    0.314E-03
DAV:   6    -0.129209617475E+03   -0.16121E-05   -0.19014E-06   272   0.712E-03
   2 F= -.12920962E+03 E0= -.12920962E+03  d E =-.289658E-02
       N       E                     dE             d eps       ncg     rms          rms(c)
DAV:   1    -0.129212593612E+03   -0.29777E-02   -0.18648E-01   348   0.227E+00    0.838E-02
DAV:   2    -0.129212933927E+03   -0.34032E-03   -0.43610E-03   430   0.311E-01    0.589E-02
DAV:   3    -0.129212908761E+03    0.25167E-04   -0.98200E-05   336   0.556E-02    0.352E-02
DAV:   4    -0.129212928925E+03   -0.20164E-04   -0.79800E-05   335   0.497E-02    0.656E-03
DAV:   5    -0.129212932179E+03   -0.32541E-05   -0.18249E-05   272   0.228E-02    0.412E-03
DAV:   6    -0.129212933414E+03   -0.12352E-05   -0.27151E-06   272   0.852E-03
   3 F= -.12921293E+03 E0= -.12921293E+03  d E =-.331594E-02
       N       E                     dE             d eps       ncg     rms          rms(c)
DAV:   1    -0.129217154727E+03   -0.42225E-02   -0.33184E-01   330   0.298E+00    0.111E-01
DAV:   2    -0.129217790692E+03   -0.63596E-03   -0.79019E-03   364   0.400E-01    0.717E-02
DAV:   3    -0.129217770856E+03    0.19836E-04   -0.17090E-04   349   0.655E-02    0.428E-02
DAV:   4    -0.129217799718E+03   -0.28862E-04   -0.14074E-04   297   0.654E-02    0.876E-03
DAV:   5    -0.129217802656E+03   -0.29380E-05   -0.28384E-05   272   0.283E-02    0.646E-03
DAV:   6    -0.129217804493E+03   -0.18374E-05   -0.51317E-06   266   0.112E-02
   4 F= -.12921780E+03 E0= -.12921780E+03  d E =-.487108E-02
       N       E                     dE             d eps       ncg     rms          rms(c)
DAV:   1    -0.129222723430E+03   -0.49208E-02   -0.53544E-01   336   0.379E+00    0.140E-01
DAV:   2    -0.129223676215E+03   -0.95279E-03   -0.12325E-02   364   0.504E-01    0.900E-02
DAV:   3    -0.129223648568E+03    0.27647E-04   -0.27495E-04   368   0.847E-02    0.535E-02
DAV:   4    -0.129223702534E+03   -0.53966E-04   -0.19777E-04   291   0.812E-02    0.956E-03
DAV:   5    -0.129223709376E+03   -0.68428E-05   -0.45377E-05   272   0.358E-02    0.733E-03
DAV:   6    -0.129223714109E+03   -0.47322E-05   -0.75769E-06   286   0.144E-02
   5 F= -.12922371E+03 E0= -.12922371E+03  d E =-.590962E-02
       N       E                     dE             d eps       ncg     rms          rms(c)
DAV:   1    -0.129228167207E+03   -0.44578E-02   -0.75306E-01   330   0.451E+00    0.159E-01
DAV:   2    -0.129229553066E+03   -0.13859E-02   -0.16942E-02   396   0.584E-01    0.108E-01
DAV:   3    -0.129229498112E+03    0.54954E-04   -0.31223E-04   424   0.959E-02    0.651E-02
DAV:   4    -0.129229600587E+03   -0.10247E-03   -0.17938E-04   339   0.806E-02    0.131E-02
DAV:   5    -0.129229617679E+03   -0.17092E-04   -0.50610E-05   272   0.372E-02    0.801E-03
DAV:   6    -0.129229622331E+03   -0.46526E-05   -0.77591E-06   208   0.150E-02
   6 F= -.12922962E+03 E0= -.12922962E+03  d E =-.590822E-02
       N       E                     dE             d eps       ncg     rms          rms(c)
DAV:   1    -0.129233426089E+03   -0.38084E-02   -0.98519E-01   328   0.515E+00    0.172E-01
DAV:   2    -0.129235256124E+03   -0.18300E-02   -0.22026E-02   388   0.660E-01    0.119E-01
DAV:   3    -0.129235200260E+03    0.55863E-04   -0.48990E-04   430   0.106E-01    0.726E-02
DAV:   4    -0.129235351972E+03   -0.15171E-03   -0.23033E-04   323   0.934E-02    0.121E-02
DAV:   5    -0.129235369366E+03   -0.17394E-04   -0.63266E-05   272   0.410E-02    0.930E-03
DAV:   6    -0.129235374564E+03   -0.51983E-05   -0.70929E-06   286   0.140E-02
   7 F= -.12923537E+03 E0= -.12923537E+03  d E =-.575223E-02
       N       E                     dE             d eps       ncg     rms          rms(c)
DAV:   1    -0.129238750506E+03   -0.33811E-02   -0.15766E+00   328   0.650E+00    0.217E-01
DAV:   2    -0.129241738413E+03   -0.29879E-02   -0.36794E-02   396   0.850E-01    0.151E-01
DAV:   3    -0.129241558595E+03    0.17982E-03   -0.48292E-04   432   0.120E-01    0.923E-02
DAV:   4    -0.129241829386E+03   -0.27079E-03   -0.45852E-04   444   0.125E-01    0.153E-02
DAV:   5    -0.129241851311E+03   -0.21925E-04   -0.89835E-05   336   0.480E-02    0.114E-02
DAV:   6    -0.129241859710E+03   -0.83988E-05   -0.58091E-06   316   0.123E-02
   8 F= -.12924186E+03 E0= -.12924186E+03  d E =-.648515E-02
       N       E                     dE             d eps       ncg     rms          rms(c)
DAV:   1    -0.129243788795E+03   -0.19375E-02   -0.23828E+00   328   0.794E+00    0.257E-01
DAV:   2    -0.129248431187E+03   -0.46424E-02   -0.55527E-02   380   0.103E+00    0.183E-01
DAV:   3    -0.129248221558E+03    0.20963E-03   -0.10854E-03   463   0.155E-01    0.114E-01
DAV:   4    -0.129248636097E+03   -0.41454E-03   -0.63307E-04   436   0.152E-01    0.195E-02
DAV:   5    -0.129248675589E+03   -0.39491E-04   -0.16031E-04   336   0.618E-02    0.161E-02
DAV:   6    -0.129248689594E+03   -0.14006E-04   -0.13427E-05   286   0.194E-02
   9 F= -.12924869E+03 E0= -.12924869E+03  d E =-.682988E-02
       N       E                     dE             d eps       ncg     rms          rms(c)
DAV:   1    -0.129248723994E+03   -0.48405E-04   -0.36875E+00   328   0.982E+00    0.318E-01
DAV:   2    -0.129256310056E+03   -0.75861E-02   -0.88585E-02   388   0.129E+00    0.230E-01
DAV:   3    -0.129255941548E+03    0.36851E-03   -0.16485E-03   464   0.193E-01    0.145E-01
DAV:   4    -0.129256511362E+03   -0.56981E-03   -0.10546E-03   429   0.199E-01    0.257E-02
DAV:   5    -0.129256577309E+03   -0.65947E-04   -0.28963E-04   368   0.824E-02    0.204E-02
DAV:   6    -0.129256594022E+03   -0.16713E-04   -0.20872E-05   270   0.250E-02
  10 F= -.12925659E+03 E0= -.12925659E+03  d E =-.790443E-02
       N       E                     dE             d eps       ncg     rms          rms(c)
DAV:   1    -0.129253687098E+03    0.28902E-02   -0.55032E+00   328   0.120E+01    0.396E-01
DAV:   2    -0.129265514019E+03   -0.11827E-01   -0.13893E-01   380   0.161E+00    0.281E-01
DAV:   3    -0.129264936846E+03    0.57717E-03   -0.23600E-03   464   0.232E-01    0.180E-01
DAV:   4    -0.129265726888E+03   -0.79004E-03   -0.15894E-03   428   0.244E-01    0.281E-02
DAV:   5    -0.129265816926E+03   -0.90038E-04   -0.42382E-04   432   0.982E-02    0.240E-02
DAV:   6    -0.129265842862E+03   -0.25936E-04   -0.15507E-05   334   0.228E-02
  11 F= -.12926584E+03 E0= -.12926584E+03  d E =-.924884E-02
       N       E                     dE             d eps       ncg     rms          rms(c)
DAV:   1    -0.129255943187E+03    0.98737E-02   -0.81055E+00   328   0.145E+01    0.490E-01
DAV:   2    -0.129274647660E+03   -0.18704E-01   -0.21742E-01   364   0.200E+00    0.360E-01
DAV:   3    -0.129273495638E+03    0.11520E-02   -0.39832E-03   464   0.309E-01    0.234E-01
DAV:   4    -0.129274378661E+03   -0.88302E-03   -0.27654E-03   379   0.316E-01    0.465E-02
DAV:   5    -0.129274547303E+03   -0.16864E-03   -0.72375E-04   464   0.128E-01    0.310E-02
DAV:   6    -0.129274573253E+03   -0.25950E-04   -0.36529E-05   320   0.323E-02
  12 F= -.12927457E+03 E0= -.12927457E+03  d E =-.873039E-02
       N       E                     dE             d eps       ncg     rms          rms(c)
DAV:   1    -0.129277976954E+03   -0.34297E-02   -0.18871E-01   328   0.227E+00    0.148E-01
DAV:   2    -0.129278576016E+03   -0.59906E-03   -0.83434E-03   428   0.414E-01    0.838E-02
DAV:   3    -0.129278509475E+03    0.66541E-04   -0.21464E-04   421   0.802E-02    0.460E-02
DAV:   4    -0.129278506737E+03    0.27388E-05   -0.14661E-04   305   0.642E-02    0.101E-02
DAV:   5    -0.129278519903E+03   -0.13166E-04   -0.27721E-05   368   0.262E-02    0.612E-03
DAV:   6    -0.129278529943E+03   -0.10040E-04   -0.36096E-06   264   0.980E-03
  13 F= -.12927853E+03 E0= -.12927853E+03  d E =-.395669E-02
       N       E                     dE             d eps       ncg     rms          rms(c)
DAV:   1    -0.129276796534E+03    0.17234E-02   -0.23495E-01   336   0.255E+00    0.150E-01
DAV:   2    -0.129277510790E+03   -0.71426E-03   -0.10026E-02   403   0.457E-01    0.914E-02
DAV:   3    -0.129277403573E+03    0.10722E-03   -0.26475E-04   432   0.886E-02    0.521E-02
DAV:   4    -0.129277367378E+03    0.36195E-04   -0.17925E-04   296   0.718E-02    0.127E-02
DAV:   5    -0.129277374145E+03   -0.67672E-05   -0.37370E-05   368   0.308E-02    0.721E-03
DAV:   6    -0.129277383230E+03   -0.90845E-05   -0.48621E-06   284   0.116E-02
  14 F= -.12927738E+03 E0= -.12927738E+03  d E =0.114671E-02
       N       E                     dE             d eps       ncg     rms          rms(c)
DAV:   1    -0.129278332139E+03   -0.95799E-03   -0.74055E-03   350   0.443E-01    0.299E-02
DAV:   2    -0.129278365603E+03   -0.33464E-04   -0.31531E-04   431   0.795E-02    0.158E-02
DAV:   3    -0.129278372063E+03   -0.64606E-05   -0.87419E-06   254   0.168E-02    0.891E-03
DAV:   4    -0.129278384281E+03   -0.12218E-04   -0.78285E-06   282   0.139E-02    0.183E-03
DAV:   5    -0.129278389092E+03   -0.48102E-05   -0.16301E-06   272   0.643E-03    0.985E-04
DAV:   6    -0.129278391584E+03   -0.24928E-05   -0.29979E-07   238   0.261E-03
  15 F= -.12927839E+03 E0= -.12927839E+03  d E =-.100835E-02
       N       E                     dE             d eps       ncg     rms          rms(c)
DAV:   1    -0.129279555847E+03   -0.11668E-02   -0.24260E-02   334   0.805E-01    0.532E-02
DAV:   2    -0.129279632939E+03   -0.77093E-04   -0.10615E-03   426   0.145E-01    0.294E-02
DAV:   3    -0.129279624086E+03    0.88532E-05   -0.24128E-05   367   0.276E-02    0.167E-02
DAV:   4    -0.129279622450E+03    0.16363E-05   -0.23351E-05   265   0.252E-02    0.343E-03
DAV:   5    -0.129279623134E+03   -0.68432E-06   -0.45171E-06   272   0.107E-02    0.200E-03
DAV:   6    -0.129279623774E+03   -0.64013E-06   -0.79870E-07   266   0.443E-03
  16 F= -.12927962E+03 E0= -.12927962E+03  d E =-.123219E-02
       N       E                     dE             d eps       ncg     rms          rms(c)
DAV:   1    -0.129280206846E+03   -0.58371E-03   -0.37473E-02   367   0.100E+00    0.648E-02
DAV:   2    -0.129280316018E+03   -0.10917E-03   -0.16177E-03   410   0.180E-01    0.363E-02
DAV:   3    -0.129280297235E+03    0.18783E-04   -0.37835E-05   336   0.346E-02    0.208E-02
DAV:   4    -0.129280288602E+03    0.86331E-05   -0.35205E-05   264   0.312E-02    0.444E-03
DAV:   5    -0.129280288559E+03    0.43110E-07   -0.70884E-06   336   0.133E-02    0.259E-03
DAV:   6    -0.129280289482E+03   -0.92336E-06   -0.11014E-06   266   0.540E-03
  17 F= -.12928029E+03 E0= -.12928029E+03  d E =-.665708E-03
       N       E                     dE             d eps       ncg     rms          rms(c)
DAV:   1    -0.129280214766E+03    0.73793E-04   -0.33368E-02   376   0.951E-01    0.558E-02
DAV:   2    -0.129280308498E+03   -0.93732E-04   -0.13539E-03   421   0.165E-01    0.329E-02
DAV:   3    -0.129280293165E+03    0.15333E-04   -0.27674E-05   272   0.308E-02    0.193E-02
DAV:   4    -0.129280288919E+03    0.42463E-05   -0.35565E-05   312   0.310E-02    0.440E-03
DAV:   5    -0.129280290020E+03   -0.11012E-05   -0.71226E-06   248   0.144E-02    0.236E-03
DAV:   6    -0.129280291648E+03   -0.16284E-05   -0.10726E-06   200   0.547E-03
  18 F= -.12928029E+03 E0= -.12928029E+03  d E =-.216627E-05
       N       E                     dE             d eps       ncg     rms          rms(c)
DAV:   1    -0.129280372336E+03   -0.82316E-04   -0.12500E-04   300   0.590E-02    0.319E-03
DAV:   2    -0.129280374895E+03   -0.25591E-05   -0.69652E-06   272   0.144E-02    0.200E-03
DAV:   3    -0.129280376840E+03   -0.19455E-05   -0.68164E-07   200   0.436E-03    0.132E-03
DAV:   4    -0.129280380279E+03   -0.34382E-05   -0.28150E-07   300   0.250E-03    0.421E-04
DAV:   5    -0.129280381650E+03   -0.13713E-05   -0.51029E-08   272   0.109E-03    0.239E-04
DAV:   6    -0.129280383150E+03   -0.15002E-05   -0.21583E-08   200   0.658E-04
  19 F= -.12928038E+03 E0= -.12928038E+03  d E =-.915019E-04
       N       E                     dE             d eps       ncg     rms          rms(c)
DAV:   1    -0.129280528226E+03   -0.14658E-03   -0.49344E-04   372   0.116E-01    0.683E-03
DAV:   2    -0.129280530146E+03   -0.19199E-05   -0.18171E-05   256   0.204E-02    0.386E-03
DAV:   3    -0.129280530867E+03   -0.72134E-06   -0.19468E-06   216   0.687E-03    0.201E-03
DAV:   4    -0.129280531848E+03   -0.98088E-06   -0.65319E-07   293   0.353E-03    0.668E-04
DAV:   5    -0.129280532458E+03   -0.60983E-06   -0.97778E-08   270   0.184E-03    0.307E-04
DAV:   6    -0.129280532771E+03   -0.31307E-06   -0.23022E-09   202   0.865E-04
  20 F= -.12928053E+03 E0= -.12928053E+03  d E =-.149620E-03
       N       E                     dE             d eps       ncg     rms          rms(c)
DAV:   1    -0.129280720957E+03   -0.18850E-03   -0.10310E-03   390   0.168E-01    0.973E-03
DAV:   2    -0.129280723514E+03   -0.25573E-05   -0.37626E-05   218   0.293E-02    0.555E-03
DAV:   3    -0.129280723637E+03   -0.12288E-06   -0.40023E-06   253   0.985E-03    0.290E-03
DAV:   4    -0.129280723774E+03   -0.13686E-06   -0.10432E-06   211   0.506E-03    0.858E-04
DAV:   5    -0.129280723912E+03   -0.13771E-06   -0.37362E-07   334   0.269E-03    0.391E-04
DAV:   6    -0.129280724010E+03   -0.98496E-07   -0.77470E-09   206   0.118E-03
  21 F= -.12928072E+03 E0= -.12928072E+03  d E =-.191240E-03
       N       E                     dE             d eps       ncg     rms          rms(c)
DAV:   1    -0.129280931959E+03   -0.20805E-03   -0.16510E-03   390   0.213E-01    0.120E-02
DAV:   2    -0.129280935695E+03   -0.37361E-05   -0.61401E-05   261   0.369E-02    0.689E-03
DAV:   3    -0.129280935261E+03    0.43396E-06   -0.44874E-06   272   0.100E-02    0.398E-03
DAV:   4    -0.129280934823E+03    0.43732E-06   -0.19904E-06   200   0.697E-03    0.878E-04
DAV:   5    -0.129280934857E+03   -0.33790E-07   -0.48868E-07   272   0.339E-03    0.486E-04
DAV:   6    -0.129280934952E+03   -0.94454E-07   -0.12571E-07   200   0.158E-03
  22 F= -.12928093E+03 E0= -.12928093E+03  d E =-.210941E-03
       N       E                     dE             d eps       ncg     rms          rms(c)
DAV:   1    -0.129281141115E+03   -0.20626E-03   -0.22505E-03   365   0.249E-01    0.135E-02
DAV:   2    -0.129281146381E+03   -0.52658E-05   -0.82279E-05   268   0.426E-02    0.788E-03
DAV:   3    -0.129281145889E+03    0.49168E-06   -0.59635E-06   222   0.115E-02    0.457E-03
DAV:   4    -0.129281145501E+03    0.38768E-06   -0.26443E-06   242   0.799E-03    0.101E-03
DAV:   5    -0.129281145618E+03   -0.11678E-06   -0.68098E-07   194   0.391E-03    0.559E-04
DAV:   6    -0.129281145785E+03   -0.16679E-06   -0.19701E-07   173   0.183E-03
  23 F= -.12928115E+03 E0= -.12928115E+03  d E =-.210833E-03
       N       E                     dE             d eps       ncg     rms          rms(c)
DAV:   1    -0.129281338340E+03   -0.19272E-03   -0.27298E-03   371   0.274E-01    0.140E-02
DAV:   2    -0.129281344770E+03   -0.64298E-05   -0.95832E-05   267   0.459E-02    0.838E-03
DAV:   3    -0.129281344317E+03    0.45326E-06   -0.67124E-06   165   0.121E-02    0.493E-03
DAV:   4    -0.129281344050E+03    0.26669E-06   -0.29922E-06   221   0.853E-03    0.107E-03
DAV:   5    -0.129281344229E+03   -0.17886E-06   -0.79110E-07   166   0.416E-03    0.599E-04
DAV:   6    -0.129281344445E+03   -0.21611E-06   -0.23633E-07   190   0.194E-03
  24 F= -.12928134E+03 E0= -.12928134E+03  d E =-.198660E-03
       N       E                     dE             d eps       ncg     rms          rms(c)
DAV:   1    -0.129281542291E+03   -0.19806E-03   -0.37288E-03   355   0.320E-01    0.150E-02
DAV:   2    -0.129281550935E+03   -0.86438E-05   -0.12212E-04   259   0.516E-02    0.924E-03
DAV:   3    -0.129281550516E+03    0.41882E-06   -0.79967E-06   165   0.133E-02    0.554E-03
DAV:   4    -0.129281550420E+03    0.96058E-07   -0.35803E-06   210   0.944E-03    0.117E-03
DAV:   5    -0.129281550646E+03   -0.22593E-06   -0.97449E-07   164   0.459E-03    0.663E-04
DAV:   6    -0.129281550895E+03   -0.24866E-06   -0.29165E-07   174   0.211E-03
  25 F= -.12928155E+03 E0= -.12928155E+03  d E =-.206450E-03
       N       E                     dE             d eps       ncg     rms          rms(c)
DAV:   1    -0.129281772281E+03   -0.22163E-03   -0.48520E-03   363   0.362E-01    0.149E-02
DAV:   2    -0.129281783031E+03   -0.10750E-04   -0.14330E-04   234   0.552E-02    0.961E-03
DAV:   3    -0.129281782771E+03    0.26033E-06   -0.84118E-06   164   0.136E-02    0.594E-03
DAV:   4    -0.129281783077E+03   -0.30584E-06   -0.37389E-06   220   0.985E-03    0.118E-03
DAV:   5    -0.129281783358E+03   -0.28154E-06   -0.10774E-06   164   0.477E-03    0.696E-04
DAV:   6    -0.129281783622E+03   -0.26403E-06   -0.31942E-07   182   0.215E-03
  26 F= -.12928178E+03 E0= -.12928178E+03  d E =-.232728E-03
       N       E                     dE             d eps       ncg     rms          rms(c)
DAV:   1    -0.129282069523E+03   -0.28616E-03   -0.63614E-03   363   0.408E-01    0.146E-02
DAV:   2    -0.129282082746E+03   -0.13223E-04   -0.16641E-04   267   0.581E-02    0.978E-03
DAV:   3    -0.129282082674E+03    0.71821E-07   -0.83982E-06   192   0.136E-02    0.619E-03
DAV:   4    -0.129282083659E+03   -0.98542E-06   -0.35471E-06   244   0.989E-03    0.110E-03
DAV:   5    -0.129282083996E+03   -0.33664E-06   -0.11246E-06   166   0.475E-03    0.704E-04
DAV:   6    -0.129282084248E+03   -0.25226E-06   -0.32334E-07   190   0.206E-03
  27 F= -.12928208E+03 E0= -.12928208E+03  d E =-.300626E-03
       N       E                     dE             d eps       ncg     rms          rms(c)
DAV:   1    -0.129282485910E+03   -0.40191E-03   -0.89414E-03   346   0.477E-01    0.160E-02
DAV:   2    -0.129282504116E+03   -0.18206E-04   -0.22135E-04   299   0.647E-02    0.107E-02
DAV:   3    -0.129282503732E+03    0.38390E-06   -0.62295E-06   263   0.128E-02    0.676E-03
DAV:   4    -0.129282505418E+03   -0.16856E-05   -0.32076E-06   208   0.106E-02    0.100E-03
DAV:   5    -0.129282505765E+03   -0.34748E-06   -0.10108E-06   236   0.465E-03    0.718E-04
DAV:   6    -0.129282506033E+03   -0.26786E-06   -0.20017E-07   200   0.176E-03
  28 F= -.12928251E+03 E0= -.12928251E+03  d E =-.421785E-03
       N       E                     dE             d eps       ncg     rms          rms(c)
DAV:   1    -0.129283058935E+03   -0.55317E-03   -0.13687E-02   332   0.590E-01    0.200E-02
DAV:   2    -0.129283087513E+03   -0.28577E-04   -0.34761E-04   332   0.804E-02    0.137E-02
DAV:   3    -0.129283086153E+03    0.13595E-05   -0.59390E-06   272   0.134E-02    0.876E-03
DAV:   4    -0.129283088595E+03   -0.24418E-05   -0.49137E-06   200   0.135E-02    0.135E-03
DAV:   5    -0.129283088911E+03   -0.31545E-06   -0.15768E-06   272   0.600E-03    0.103E-03
DAV:   6    -0.129283089138E+03   -0.22776E-06   -0.25331E-07   202   0.215E-03
  29 F= -.12928309E+03 E0= -.12928309E+03  d E =-.583105E-03
       N       E                     dE             d eps       ncg     rms          rms(c)
DAV:   1    -0.129283785033E+03   -0.69612E-03   -0.21937E-02   336   0.750E-01    0.265E-02
DAV:   2    -0.129283832911E+03   -0.47878E-04   -0.59059E-04   356   0.105E-01    0.185E-02
DAV:   3    -0.129283829518E+03    0.33931E-05   -0.72284E-06   272   0.154E-02    0.120E-02
DAV:   4    -0.129283832730E+03   -0.32120E-05   -0.97361E-06   200   0.188E-02    0.204E-03
DAV:   5    -0.129283833111E+03   -0.38139E-06   -0.28925E-06   272   0.840E-03    0.148E-03
DAV:   6    -0.129283833370E+03   -0.25802E-06   -0.43748E-07   202   0.295E-03
  30 F= -.12928383E+03 E0= -.12928383E+03  d E =-.744231E-03
       N       E                     dE             d eps       ncg     rms          rms(c)
DAV:   1    -0.129284626045E+03   -0.79293E-03   -0.34793E-02   335   0.946E-01    0.340E-02
DAV:   2    -0.129284703510E+03   -0.77466E-04   -0.96068E-04   372   0.134E-01    0.239E-02
DAV:   3    -0.129284697168E+03    0.63419E-05   -0.98676E-06   271   0.190E-02    0.154E-02
DAV:   4    -0.129284702190E+03   -0.50216E-05   -0.15979E-05   210   0.236E-02    0.278E-03
DAV:   5    -0.129284702828E+03   -0.63778E-06   -0.43491E-06   272   0.106E-02    0.180E-03
DAV:   6    -0.129284703256E+03   -0.42856E-06   -0.54804E-07   200   0.353E-03
  31 F= -.12928470E+03 E0= -.12928470E+03  d E =-.869887E-03
       N       E                     dE             d eps       ncg     rms          rms(c)
DAV:   1    -0.129285585317E+03   -0.88249E-03   -0.52669E-02   330   0.116E+00    0.403E-02
DAV:   2    -0.129285699763E+03   -0.11445E-03   -0.14042E-03   329   0.161E-01    0.284E-02
DAV:   3    -0.129285691686E+03    0.80775E-05   -0.16581E-05   266   0.233E-02    0.185E-02
DAV:   4    -0.129285700857E+03   -0.91710E-05   -0.25751E-05   276   0.290E-02    0.353E-03
DAV:   5    -0.129285701686E+03   -0.82878E-06   -0.57600E-06   234   0.125E-02    0.234E-03
DAV:   6    -0.129285702369E+03   -0.68275E-06   -0.62689E-07   200   0.408E-03
  32 F= -.12928570E+03 E0= -.12928570E+03  d E =-.999112E-03
       N       E                     dE             d eps       ncg     rms          rms(c)
DAV:   1    -0.129286771314E+03   -0.10696E-02   -0.77390E-02   330   0.139E+00    0.467E-02
DAV:   2    -0.129286935318E+03   -0.16400E-03   -0.19716E-03   328   0.188E-01    0.327E-02
DAV:   3    -0.129286925927E+03    0.93915E-05   -0.24343E-05   302   0.260E-02    0.209E-02
DAV:   4    -0.129286939591E+03   -0.13665E-04   -0.23236E-05   201   0.308E-02    0.312E-03
DAV:   5    -0.129286941239E+03   -0.16475E-05   -0.77651E-06   238   0.135E-02    0.238E-03
DAV:   6    -0.129286942396E+03   -0.11572E-05   -0.85845E-07   232   0.432E-03
  33 F= -.12928694E+03 E0= -.12928694E+03  d E =-.124003E-02
       N       E                     dE             d eps       ncg     rms          rms(c)
DAV:   1    -0.129288279182E+03   -0.13379E-02   -0.11646E-01   328   0.171E+00    0.570E-02
DAV:   2    -0.129288528178E+03   -0.24900E-03   -0.29635E-03   364   0.230E-01    0.398E-02
DAV:   3    -0.129288515334E+03    0.12844E-04   -0.38943E-05   360   0.317E-02    0.252E-02
DAV:   4    -0.129288534332E+03   -0.18998E-04   -0.37030E-05   232   0.374E-02    0.386E-03
DAV:   5    -0.129288536507E+03   -0.21748E-05   -0.10524E-05   272   0.160E-02    0.289E-03
DAV:   6    -0.129288538082E+03   -0.15749E-05   -0.93249E-07   242   0.499E-03
  34 F= -.12928854E+03 E0= -.12928854E+03  d E =-.159569E-02
       N       E                     dE             d eps       ncg     rms          rms(c)
DAV:   1    -0.129290037541E+03   -0.15010E-02   -0.17938E-01   335   0.212E+00    0.716E-02
DAV:   2    -0.129290427161E+03   -0.38962E-03   -0.46470E-03   364   0.290E-01    0.501E-02
DAV:   3    -0.129290406558E+03    0.20603E-04   -0.63034E-05   368   0.403E-02    0.319E-02
DAV:   4    -0.129290431792E+03   -0.25233E-04   -0.59639E-05   248   0.472E-02    0.484E-03
DAV:   5    -0.129290435206E+03   -0.34148E-05   -0.16652E-05   272   0.201E-02    0.377E-03
DAV:   6    -0.129290437518E+03   -0.23120E-05   -0.15443E-06   234   0.634E-03
  35 F= -.12929044E+03 E0= -.12929044E+03  d E =-.189944E-02
       N       E                     dE             d eps       ncg     rms          rms(c)
DAV:   1    -0.129292015699E+03   -0.15805E-02   -0.26781E-01   333   0.259E+00    0.863E-02
DAV:   2    -0.129292591639E+03   -0.57594E-03   -0.68562E-03   340   0.350E-01    0.605E-02
DAV:   3    -0.129292560774E+03    0.30865E-04   -0.89611E-05   359   0.480E-02    0.385E-02
DAV:   4    -0.129292602409E+03   -0.41635E-04   -0.86481E-05   258   0.572E-02    0.583E-03
DAV:   5    -0.129292607320E+03   -0.49112E-05   -0.24466E-05   264   0.243E-02    0.438E-03
DAV:   6    -0.129292610783E+03   -0.34625E-05   -0.23541E-06   266   0.750E-03
  36 F= -.12929261E+03 E0= -.12929261E+03  d E =-.217326E-02
       N       E                     dE             d eps       ncg     rms          rms(c)
DAV:   1    -0.129294429533E+03   -0.18222E-02   -0.39072E-01   328   0.312E+00    0.104E-01
DAV:   2    -0.129295263690E+03   -0.83416E-03   -0.99240E-03   363   0.420E-01    0.725E-02
DAV:   3    -0.129295217873E+03    0.45818E-04   -0.12988E-04   399   0.574E-02    0.462E-02
DAV:   4    -0.129295283608E+03   -0.65735E-04   -0.11836E-04   266   0.678E-02    0.692E-03
DAV:   5    -0.129295290576E+03   -0.69681E-05   -0.34491E-05   272   0.289E-02    0.548E-03
DAV:   6    -0.129295294418E+03   -0.38419E-05   -0.33795E-06   264   0.894E-03
  37 F= -.12929529E+03 E0= -.12929529E+03  d E =-.268364E-02
       N       E                     dE             d eps       ncg     rms          rms(c)
DAV:   1    -0.129297150436E+03   -0.18599E-02   -0.58420E-01   328   0.382E+00    0.127E-01
DAV:   2    -0.129298411091E+03   -0.12607E-02   -0.15039E-02   364   0.518E-01    0.902E-02
DAV:   3    -0.129298337464E+03    0.73627E-04   -0.20125E-04   400   0.719E-02    0.582E-02
DAV:   4    -0.129298434907E+03   -0.97443E-04   -0.19271E-04   298   0.847E-02    0.921E-03
DAV:   5    -0.129298444563E+03   -0.96565E-05   -0.49380E-05   272   0.343E-02    0.687E-03
DAV:   6    -0.129298449555E+03   -0.49914E-05   -0.47459E-06   266   0.106E-02
  38 F= -.12929845E+03 E0= -.12929845E+03  d E =-.315514E-02
       N       E                     dE             d eps       ncg     rms          rms(c)
DAV:   1    -0.129300280853E+03   -0.18363E-02   -0.85319E-01   328   0.461E+00    0.152E-01
DAV:   2    -0.129302112207E+03   -0.18314E-02   -0.21691E-02   363   0.621E-01    0.107E-01
DAV:   3    -0.129302009335E+03    0.10287E-03   -0.28487E-04   398   0.849E-02    0.685E-02
DAV:   4    -0.129302156800E+03   -0.14747E-03   -0.27740E-04   395   0.101E-01    0.112E-02
DAV:   5    -0.129302169714E+03   -0.12915E-04   -0.68345E-05   302   0.392E-02    0.837E-03
DAV:   6    -0.129302176813E+03   -0.70986E-05   -0.34631E-06   264   0.939E-03
  39 F= -.12930218E+03 E0= -.12930218E+03  d E =-.372726E-02
       N       E                     dE             d eps       ncg     rms          rms(c)
DAV:   1    -0.129303833740E+03   -0.16640E-02   -0.12481E+00   328   0.558E+00    0.185E-01
DAV:   2    -0.129306535935E+03   -0.27022E-02   -0.32006E-02   364   0.758E-01    0.130E-01
DAV:   3    -0.129306388061E+03    0.14787E-03   -0.44715E-04   424   0.103E-01    0.828E-02
DAV:   4    -0.129306599506E+03   -0.21144E-03   -0.36196E-04   428   0.116E-01    0.128E-02
DAV:   5    -0.129306619614E+03   -0.20109E-04   -0.94052E-05   336   0.458E-02    0.101E-02
DAV:   6    -0.129306629173E+03   -0.95585E-05   -0.48455E-06   304   0.113E-02
  40 F= -.12930663E+03 E0= -.12930663E+03  d E =-.445236E-02
       N       E                     dE             d eps       ncg     rms          rms(c)
DAV:   1    -0.129307888439E+03   -0.12688E-02   -0.17982E+00   328   0.669E+00    0.221E-01
DAV:   2    -0.129311763717E+03   -0.38753E-02   -0.45817E-02   348   0.904E-01    0.155E-01
DAV:   3    -0.129311556385E+03    0.20733E-03   -0.64925E-04   462   0.124E-01    0.983E-02
DAV:   4    -0.129311871137E+03   -0.31475E-03   -0.48129E-04   427   0.136E-01    0.152E-02
DAV:   5    -0.129311900576E+03   -0.29439E-04   -0.13139E-04   335   0.539E-02    0.123E-02
DAV:   6    -0.129311912428E+03   -0.11852E-04   -0.65202E-06   300   0.131E-02
  41 F= -.12931191E+03 E0= -.12931191E+03  d E =-.528326E-02
       N       E                     dE             d eps       ncg     rms          rms(c)
DAV:   1    -0.129312250550E+03   -0.34997E-03   -0.26016E+00   328   0.806E+00    0.265E-01
DAV:   2    -0.129317889971E+03   -0.56394E-02   -0.66793E-02   364   0.110E+00    0.189E-01
DAV:   3    -0.129317567276E+03    0.32270E-03   -0.98673E-04   461   0.153E-01    0.121E-01
DAV:   4    -0.129318047377E+03   -0.48010E-03   -0.73476E-04   419   0.168E-01    0.199E-02
DAV:   5    -0.129318091304E+03   -0.43927E-04   -0.20207E-04   352   0.665E-02    0.154E-02
DAV:   6    -0.129318105523E+03   -0.14219E-04   -0.76097E-06   264   0.147E-02
  42 F= -.12931811E+03 E0= -.12931811E+03  d E =-.619310E-02
       N       E                     dE             d eps       ncg     rms          rms(c)
DAV:   1    -0.129317103847E+03    0.98746E-03   -0.36590E+00   328   0.960E+00    0.317E-01
DAV:   2    -0.129325036829E+03   -0.79330E-02   -0.94026E-02   372   0.131E+00    0.223E-01
DAV:   3    -0.129324682186E+03    0.35464E-03   -0.13900E-03   455   0.181E-01    0.141E-01
DAV:   4    -0.129325260842E+03   -0.57866E-03   -0.10178E-03   429   0.197E-01    0.227E-02
DAV:   5    -0.129325328299E+03   -0.67457E-04   -0.28061E-04   400   0.793E-02    0.183E-02
DAV:   6    -0.129325352785E+03   -0.24486E-04   -0.10365E-05   332   0.179E-02
  43 F= -.12932535E+03 E0= -.12932535E+03  d E =-.724726E-02
       N       E                     dE             d eps       ncg     rms          rms(c)
DAV:   1    -0.129322190758E+03    0.31375E-02   -0.50675E+00   328   0.113E+01    0.370E-01
DAV:   2    -0.129333334160E+03   -0.11143E-01   -0.12959E-01   356   0.154E+00    0.264E-01
DAV:   3    -0.129332831487E+03    0.50267E-03   -0.20217E-03   461   0.218E-01    0.168E-01
DAV:   4    -0.129333597421E+03   -0.76593E-03   -0.14211E-03   427   0.233E-01    0.280E-02
DAV:   5    -0.129333699432E+03   -0.10201E-03   -0.40470E-04   432   0.948E-02    0.219E-02
DAV:   6    -0.129333725415E+03   -0.25983E-04   -0.10690E-05   266   0.179E-02
  44 F= -.12933373E+03 E0= -.12933373E+03  d E =-.837263E-02
       N       E                     dE             d eps       ncg     rms          rms(c)
DAV:   1    -0.129326966070E+03    0.67334E-02   -0.70658E+00   330   0.134E+01    0.440E-01
DAV:   2    -0.129342273954E+03   -0.15308E-01   -0.18132E-01   364   0.184E+00    0.311E-01
DAV:   3    -0.129341621448E+03    0.65251E-03   -0.28749E-03   464   0.261E-01    0.198E-01
DAV:   4    -0.129342704884E+03   -0.10834E-02   -0.20584E-03   428   0.280E-01    0.345E-02
DAV:   5    -0.129342817862E+03   -0.11298E-03   -0.57108E-04   432   0.115E-01    0.265E-02
DAV:   6    -0.129342850733E+03   -0.32871E-04   -0.19329E-05   334   0.241E-02
  45 F= -.12934285E+03 E0= -.12934285E+03  d E =-.912532E-02
       N       E                     dE             d eps       ncg     rms          rms(c)
DAV:   1    -0.129328578330E+03    0.14240E-01   -0.97228E+00   330   0.157E+01    0.521E-01
DAV:   2    -0.129350105268E+03   -0.21527E-01   -0.25432E-01   364   0.218E+00    0.380E-01
DAV:   3    -0.129348900314E+03    0.12050E-02   -0.45800E-03   464   0.327E-01    0.244E-01
DAV:   4    -0.129350191113E+03   -0.12908E-02   -0.29742E-03   410   0.333E-01    0.418E-02
DAV:   5    -0.129350365288E+03   -0.17418E-03   -0.79150E-04   432   0.131E-01    0.319E-02
DAV:   6    -0.129350398540E+03   -0.33251E-04   -0.21803E-05   312   0.257E-02
  46 F= -.12935040E+03 E0= -.12935040E+03  d E =-.754781E-02
       N       E                     dE             d eps       ncg     rms          rms(c)
DAV:   1    -0.129307105742E+03    0.43260E-01   -0.14777E+01   332   0.195E+01    0.772E-01
DAV:   2    -0.129342667188E+03   -0.35561E-01   -0.43978E-01   353   0.292E+00    0.511E-01
DAV:   3    -0.129340277065E+03    0.23901E-02   -0.90114E-03   463   0.479E-01    0.319E-01
DAV:   4    -0.129340798353E+03   -0.52129E-03   -0.60817E-03   426   0.434E-01    0.654E-02
DAV:   5    -0.129341018034E+03   -0.21968E-03   -0.13532E-03   464   0.176E-01    0.471E-02
DAV:   6    -0.129341072744E+03   -0.54710E-04   -0.60587E-05   368   0.424E-02
  47 F= -.12934107E+03 E0= -.12934107E+03  d E =0.932580E-02
       N       E                     dE             d eps       ncg     rms          rms(c)
DAV:   1    -0.129358753199E+03   -0.17735E-01   -0.16165E+00   332   0.616E+00    0.445E-01
DAV:   2    -0.129363799693E+03   -0.50465E-02   -0.70304E-02   393   0.113E+00    0.242E-01
DAV:   3    -0.129363068144E+03    0.73155E-03   -0.19509E-03   462   0.230E-01    0.137E-01
DAV:   4    -0.129362749408E+03    0.31874E-03   -0.11620E-03   393   0.169E-01    0.342E-02
DAV:   5    -0.129362748093E+03    0.13145E-05   -0.22242E-04   432   0.697E-02    0.177E-02
DAV:   6    -0.129362757534E+03   -0.94411E-05   -0.15350E-05   318   0.209E-02
  48 F= -.12936276E+03 E0= -.12936276E+03  d E =-.216848E-01
       N       E                     dE             d eps       ncg     rms          rms(c)
DAV:   1    -0.129362810136E+03   -0.62043E-04   -0.10806E-03   367   0.162E-01    0.881E-03
DAV:   2    -0.129362828954E+03   -0.18818E-04   -0.32927E-05   368   0.258E-02    0.548E-03
DAV:   3    -0.129362846423E+03   -0.17469E-04   -0.29225E-06   214   0.879E-03    0.302E-03
DAV:   4    -0.129362870606E+03   -0.24184E-04   -0.16397E-06   328   0.584E-03    0.124E-03
DAV:   5    -0.129362889815E+03   -0.19209E-04   -0.82125E-07   362   0.361E-03    0.868E-04
DAV:   6    -0.129362908345E+03   -0.18530E-04   -0.74912E-07   304   0.317E-03
  49 F= -.12936291E+03 E0= -.12936291E+03  d E =-.150811E-03
       N       E                     dE             d eps       ncg     rms          rms(c)
DAV:   1    -0.129362950879E+03   -0.61064E-04   -0.40747E-03   360   0.316E-01    0.136E-02
DAV:   2    -0.129362963094E+03   -0.12215E-04   -0.12867E-04   400   0.491E-02    0.945E-03
DAV:   3    -0.129362964769E+03   -0.16751E-05   -0.47242E-06   248   0.112E-02    0.621E-03
DAV:   4    -0.129362969086E+03   -0.43169E-05   -0.39970E-06   276   0.103E-02    0.176E-03
DAV:   5    -0.129362970371E+03   -0.12849E-05   -0.88755E-07   272   0.497E-03    0.907E-04
DAV:   6    -0.129362971465E+03   -0.10934E-05   -0.19972E-07   232   0.230E-03
  50 F= -.12936297E+03 E0= -.12936297E+03  d E =-.631195E-04
       N       E                     dE             d eps       ncg     rms          rms(c)
DAV:   1    -0.129362946541E+03    0.23830E-04   -0.82684E-03   356   0.441E-01    0.179E-02
DAV:   2    -0.129362963445E+03   -0.16904E-04   -0.23424E-04   349   0.648E-02    0.125E-02
DAV:   3    -0.129362963142E+03    0.30282E-06   -0.80802E-06   272   0.145E-02    0.815E-03
DAV:   4    -0.129362963999E+03   -0.85731E-06   -0.66920E-06   264   0.134E-02    0.231E-03
DAV:   5    -0.129362964172E+03   -0.17266E-06   -0.15053E-06   272   0.645E-03    0.121E-03
DAV:   6    -0.129362964481E+03   -0.30878E-06   -0.33554E-07   204   0.291E-03
  51 F= -.12936296E+03 E0= -.12936296E+03  d E =0.698390E-05
       N       E                     dE             d eps       ncg     rms          rms(c)
DAV:   1    -0.129362890352E+03    0.73820E-04   -0.13419E-02   336   0.548E-01    0.207E-02
DAV:   2    -0.129362914873E+03   -0.24521E-04   -0.33616E-04   341   0.748E-02    0.145E-02
DAV:   3    -0.129362914485E+03    0.38781E-06   -0.86657E-06   272   0.155E-02    0.932E-03
DAV:   4    -0.129362916017E+03   -0.15319E-05   -0.72197E-06   200   0.150E-02    0.200E-03
DAV:   5    -0.129362916274E+03   -0.25699E-06   -0.20015E-06   264   0.679E-03    0.137E-03
DAV:   6    -0.129362916562E+03   -0.28884E-06   -0.40430E-07   202   0.283E-03
  52 F= -.12936292E+03 E0= -.12936292E+03  d E =0.479182E-04
       N       E                     dE             d eps       ncg     rms          rms(c)
DAV:   1    -0.129362832376E+03    0.83897E-04   -0.20254E-02   336   0.662E-01    0.243E-02
DAV:   2    -0.129362868485E+03   -0.36109E-04   -0.47272E-04   340   0.859E-02    0.168E-02
DAV:   3    -0.129362868403E+03    0.82447E-07   -0.89560E-06   220   0.159E-02    0.103E-02
DAV:   4    -0.129362871785E+03   -0.33822E-05   -0.77697E-06   245   0.154E-02    0.189E-03
DAV:   5    -0.129362872203E+03   -0.41754E-06   -0.23300E-06   206   0.691E-03    0.141E-03
DAV:   6    -0.129362872530E+03   -0.32753E-06   -0.42677E-07   202   0.257E-03
  53 F= -.12936287E+03 E0= -.12936287E+03  d E =0.440323E-04
       N       E                     dE             d eps       ncg     rms          rms(c)
DAV:   1    -0.129362787150E+03    0.85053E-04   -0.29712E-02   331   0.802E-01    0.291E-02
DAV:   2    -0.129362841413E+03   -0.54263E-04   -0.69714E-04   394   0.104E-01    0.203E-02
DAV:   3    -0.129362840349E+03    0.10634E-05   -0.73496E-06   239   0.153E-02    0.124E-02
DAV:   4    -0.129362845293E+03   -0.49436E-05   -0.11220E-05   313   0.173E-02    0.223E-03
DAV:   5    -0.129362845840E+03   -0.54688E-06   -0.21359E-06   272   0.707E-03    0.138E-03
DAV:   6    -0.129362846108E+03   -0.26866E-06   -0.19468E-07   204   0.213E-03
  54 F= -.12936285E+03 E0= -.12936285E+03  d E =0.264218E-04
       N       E                     dE             d eps       ncg     rms          rms(c)
DAV:   1    -0.129362694873E+03    0.15097E-03   -0.52481E-02   336   0.107E+00    0.388E-02
DAV:   2    -0.129362790551E+03   -0.95678E-04   -0.12361E-03   371   0.140E-01    0.272E-02
DAV:   3    -0.129362788620E+03    0.19318E-05   -0.17111E-05   272   0.217E-02    0.168E-02
DAV:   4    -0.129362796450E+03   -0.78306E-05   -0.22214E-05   265   0.243E-02    0.301E-03
DAV:   5    -0.129362797031E+03   -0.58053E-06   -0.42745E-06   272   0.983E-03    0.231E-03
DAV:   6    -0.129362797390E+03   -0.35899E-06   -0.42130E-07   212   0.330E-03
  55 F= -.12936280E+03 E0= -.12936280E+03  d E =0.487186E-04
       N       E                     dE             d eps       ncg     rms          rms(c)
DAV:   1    -0.129362502901E+03    0.29413E-03   -0.90112E-02   336   0.140E+00    0.506E-02
DAV:   2    -0.129362666143E+03   -0.16324E-03   -0.21026E-03   364   0.182E-01    0.354E-02
DAV:   3    -0.129362662959E+03    0.31845E-05   -0.29015E-05   256   0.284E-02    0.218E-02
DAV:   4    -0.129362676559E+03   -0.13601E-04   -0.37728E-05   282   0.317E-02    0.397E-03
DAV:   5    -0.129362677528E+03   -0.96921E-06   -0.72890E-06   248   0.128E-02    0.307E-03
DAV:   6    -0.129362678155E+03   -0.62619E-06   -0.73865E-07   210   0.431E-03
  56 F= -.12936268E+03 E0= -.12936268E+03  d E =0.119235E-03
       N       E                     dE             d eps       ncg     rms          rms(c)
DAV:   1    -0.129362290034E+03    0.38749E-03   -0.14170E-01   334   0.175E+00    0.630E-02
DAV:   2    -0.129362543909E+03   -0.25388E-03   -0.32549E-03   355   0.225E-01    0.440E-02
DAV:   3    -0.129362540804E+03    0.31049E-05   -0.55224E-05   334   0.354E-02    0.268E-02
DAV:   4    -0.129362562407E+03   -0.21602E-04   -0.40953E-05   212   0.376E-02    0.440E-03
DAV:   5    -0.129362564356E+03   -0.19494E-05   -0.12356E-05   271   0.162E-02    0.357E-03
DAV:   6    -0.129362565411E+03   -0.10549E-05   -0.13194E-06   200   0.543E-03
  57 F= -.12936257E+03 E0= -.12936257E+03  d E =0.112744E-03
       N       E                     dE             d eps       ncg     rms          rms(c)
DAV:   1    -0.129362193716E+03    0.37064E-03   -0.20521E-01   332   0.210E+00    0.760E-02
DAV:   2    -0.129362565858E+03   -0.37214E-03   -0.47738E-03   346   0.273E-01    0.535E-02
DAV:   3    -0.129362560506E+03    0.53524E-05   -0.83551E-05   368   0.439E-02    0.330E-02
DAV:   4    -0.129362591009E+03   -0.30503E-04   -0.67313E-05   282   0.463E-02    0.609E-03
DAV:   5    -0.129362593486E+03   -0.24769E-05   -0.16702E-05   272   0.198E-02    0.426E-03
DAV:   6    -0.129362594833E+03   -0.13470E-05   -0.16868E-06   238   0.628E-03
  58 F= -.12936259E+03 E0= -.12936259E+03  d E =-.294219E-04
       N       E                     dE             d eps       ncg     rms          rms(c)
DAV:   1    -0.129362401969E+03    0.19152E-03   -0.26448E-01   334   0.242E+00    0.857E-02
DAV:   2    -0.129362888538E+03   -0.48657E-03   -0.62245E-03   356   0.319E-01    0.605E-02
DAV:   3    -0.129362878749E+03    0.97887E-05   -0.11176E-04   367   0.510E-02    0.375E-02
DAV:   4    -0.129362916513E+03   -0.37764E-04   -0.89831E-05   301   0.543E-02    0.717E-03
DAV:   5    -0.129362919777E+03   -0.32645E-05   -0.22645E-05   272   0.235E-02    0.504E-03
DAV:   6    -0.129362921669E+03   -0.18914E-05   -0.25199E-06   222   0.780E-03
  59 F= -.12936292E+03 E0= -.12936292E+03  d E =-.326836E-03
       N       E                     dE             d eps       ncg     rms          rms(c)
DAV:   1    -0.129363178115E+03   -0.25834E-03   -0.30844E-01   332   0.270E+00    0.914E-02
DAV:   2    -0.129363763088E+03   -0.58497E-03   -0.73017E-03   364   0.360E-01    0.642E-02
DAV:   3    -0.129363749231E+03    0.13857E-04   -0.13015E-04   349   0.549E-02    0.398E-02
DAV:   4    -0.129363793548E+03   -0.44317E-04   -0.99163E-05   291   0.592E-02    0.725E-03
DAV:   5    -0.129363797789E+03   -0.42408E-05   -0.25406E-05   264   0.252E-02    0.554E-03
DAV:   6    -0.129363800094E+03   -0.23057E-05   -0.30110E-06   222   0.883E-03
  60 F= -.12936380E+03 E0= -.12936380E+03  d E =-.878426E-03
       N       E                     dE             d eps       ncg     rms          rms(c)
DAV:   1    -0.129364570040E+03   -0.77225E-03   -0.38497E-01   328   0.313E+00    0.102E-01
DAV:   2    -0.129365342128E+03   -0.77209E-03   -0.93540E-03   372   0.420E-01    0.718E-02
DAV:   3    -0.129365314559E+03    0.27569E-04   -0.16308E-04   367   0.622E-02    0.451E-02
DAV:   4    -0.129365364067E+03   -0.49508E-04   -0.12519E-04   274   0.681E-02    0.773E-03
DAV:   5    -0.129365369874E+03   -0.58070E-05   -0.32618E-05   272   0.289E-02    0.598E-03
DAV:   6    -0.129365372673E+03   -0.27991E-05   -0.38734E-06   284   0.959E-03
  61 F= -.12936537E+03 E0= -.12936537E+03  d E =-.157258E-02
       N       E                     dE             d eps       ncg     rms          rms(c)
DAV:   1    -0.129366634528E+03   -0.12647E-02   -0.57511E-01   328   0.383E+00    0.124E-01
DAV:   2    -0.129367816586E+03   -0.11821E-02   -0.14020E-02   356   0.508E-01    0.869E-02
DAV:   3    -0.129367767508E+03    0.49078E-04   -0.23147E-04   400   0.742E-02    0.549E-02
DAV:   4    -0.129367836893E+03   -0.69384E-04   -0.17535E-04   299   0.815E-02    0.930E-03
DAV:   5    -0.129367845901E+03   -0.90087E-05   -0.49762E-05   272   0.355E-02    0.734E-03
DAV:   6    -0.129367849685E+03   -0.37836E-05   -0.56676E-06   322   0.114E-02
  62 F= -.12936785E+03 E0= -.12936785E+03  d E =-.247701E-02
       N       E                     dE             d eps       ncg     rms          rms(c)
DAV:   1    -0.129369302470E+03   -0.14566E-02   -0.97280E-01   328   0.491E+00    0.161E-01
DAV:   2    -0.129371346653E+03   -0.20442E-02   -0.24000E-02   356   0.645E-01    0.113E-01
DAV:   3    -0.129371253837E+03    0.92816E-04   -0.37853E-04   432   0.934E-02    0.723E-02
DAV:   4    -0.129371377387E+03   -0.12355E-03   -0.29266E-04   420   0.101E-01    0.125E-02
DAV:   5    -0.129371389726E+03   -0.12340E-04   -0.72691E-05   304   0.405E-02    0.948E-03
DAV:   6    -0.129371394811E+03   -0.50847E-05   -0.58761E-06   298   0.113E-02
  63 F= -.12937139E+03 E0= -.12937139E+03  d E =-.354513E-02
       N       E                     dE             d eps       ncg     rms          rms(c)
DAV:   1    -0.129372690268E+03   -0.13005E-02   -0.15936E+00   328   0.621E+00    0.206E-01
DAV:   2    -0.129376022756E+03   -0.33325E-02   -0.39025E-02   380   0.806E-01    0.144E-01
DAV:   3    -0.129375866367E+03    0.15639E-03   -0.58494E-04   446   0.115E-01    0.912E-02
DAV:   4    -0.129376098085E+03   -0.23172E-03   -0.43099E-04   427   0.123E-01    0.143E-02
DAV:   5    -0.129376118686E+03   -0.20600E-04   -0.11193E-04   336   0.479E-02    0.122E-02
DAV:   6    -0.129376126311E+03   -0.76250E-05   -0.65998E-06   282   0.133E-02
  64 F= -.12937613E+03 E0= -.12937613E+03  d E =-.473150E-02
       N       E                     dE             d eps       ncg     rms          rms(c)
DAV:   1    -0.129376736479E+03   -0.61779E-03   -0.23818E+00   328   0.760E+00    0.255E-01
DAV:   2    -0.129381733221E+03   -0.49967E-02   -0.58622E-02   380   0.992E-01    0.176E-01
DAV:   3    -0.129381495568E+03    0.23765E-03   -0.87105E-04   446   0.141E-01    0.112E-01
DAV:   4    -0.129381856545E+03   -0.36098E-03   -0.64609E-04   428   0.150E-01    0.173E-02
DAV:   5    -0.129381889464E+03   -0.32918E-04   -0.16666E-04   336   0.585E-02    0.151E-02
DAV:   6    -0.129381902045E+03   -0.12581E-04   -0.11325E-05   282   0.171E-02
  65 F= -.12938190E+03 E0= -.12938190E+03  d E =-.577573E-02
       N       E                     dE             d eps       ncg     rms          rms(c)
DAV:   1    -0.129381174114E+03    0.71535E-03   -0.29210E+00   328   0.852E+00    0.281E-01
DAV:   2    -0.129387353563E+03   -0.61794E-02   -0.73175E-02   364   0.114E+00    0.200E-01
DAV:   3    -0.129387052241E+03    0.30132E-03   -0.11861E-03   464   0.167E-01    0.127E-01
DAV:   4    -0.129387524239E+03   -0.47200E-03   -0.87277E-04   428   0.177E-01    0.206E-02
DAV:   5    -0.129387564899E+03   -0.40660E-04   -0.21705E-04   352   0.693E-02    0.168E-02
DAV:   6    -0.129387579785E+03   -0.14886E-04   -0.12211E-05   274   0.179E-02
  66 F= -.12938758E+03 E0= -.12938758E+03  d E =-.567774E-02
       N       E                     dE             d eps       ncg     rms          rms(c)
DAV:   1    -0.129387732419E+03   -0.16752E-03   -0.13169E-02   367   0.590E-01    0.323E-02
DAV:   2    -0.129387781273E+03   -0.48854E-04   -0.52046E-04   393   0.102E-01    0.201E-02
DAV:   3    -0.129387783708E+03   -0.24351E-05   -0.14321E-05   303   0.217E-02    0.118E-02
DAV:   4    -0.129387794714E+03   -0.11006E-04   -0.10696E-05   265   0.171E-02    0.256E-03
DAV:   5    -0.129387801533E+03   -0.68187E-05   -0.24972E-06   368   0.796E-03    0.142E-03
DAV:   6    -0.129387806292E+03   -0.47588E-05   -0.41645E-07   218   0.321E-03
  67 F= -.12938781E+03 E0= -.12938781E+03  d E =-.226507E-03
       N       E                     dE             d eps       ncg     rms          rms(c)
DAV:   1    -0.129387559292E+03    0.24224E-03   -0.31660E-02   336   0.898E-01    0.430E-02
DAV:   2    -0.129387646068E+03   -0.86776E-04   -0.11135E-03   441   0.146E-01    0.287E-02
DAV:   3    -0.129387636569E+03    0.94994E-05   -0.19335E-05   272   0.264E-02    0.175E-02
DAV:   4    -0.129387635651E+03    0.91789E-06   -0.27057E-05   304   0.271E-02    0.382E-03
DAV:   5    -0.129387637108E+03   -0.14575E-05   -0.58279E-06   272   0.132E-02    0.215E-03
DAV:   6    -0.129387638425E+03   -0.13163E-05   -0.90160E-07   222   0.503E-03
  68 F= -.12938764E+03 E0= -.12938764E+03  d E =0.167867E-03
       N       E                     dE             d eps       ncg     rms          rms(c)
DAV:   1    -0.129387313050E+03    0.32406E-03   -0.37393E-02   335   0.922E-01    0.338E-02
DAV:   2    -0.129387389147E+03   -0.76097E-04   -0.94622E-04   463   0.126E-01    0.241E-02
DAV:   3    -0.129387385595E+03    0.35513E-05   -0.94817E-06   240   0.182E-02    0.152E-02
DAV:   4    -0.129387391925E+03   -0.63296E-05   -0.15869E-05   298   0.216E-02    0.280E-03
DAV:   5    -0.129387393566E+03   -0.16412E-05   -0.35921E-06   264   0.959E-03    0.175E-03
DAV:   6    -0.129387394519E+03   -0.95345E-06   -0.38572E-07   204   0.307E-03
  69 F= -.12938739E+03 E0= -.12938739E+03  d E =0.243905E-03
       N       E                     dE             d eps       ncg     rms          rms(c)
DAV:   1    -0.129387348147E+03    0.45419E-04   -0.53469E-02   333   0.109E+00    0.418E-02
DAV:   2    -0.129387457353E+03   -0.10921E-03   -0.13880E-03   385   0.151E-01    0.299E-02
DAV:   3    -0.129387452748E+03    0.46048E-05   -0.17030E-05   263   0.246E-02    0.189E-02
DAV:   4    -0.129387460252E+03   -0.75043E-05   -0.27303E-05   296   0.278E-02    0.401E-03
DAV:   5    -0.129387461159E+03   -0.90702E-06   -0.61941E-06   272   0.132E-02    0.234E-03
DAV:   6    -0.129387461617E+03   -0.45731E-06   -0.76235E-07   256   0.445E-03
  70 F= -.12938746E+03 E0= -.12938746E+03  d E =-.670973E-04
       N       E                     dE             d eps       ncg     rms          rms(c)
DAV:   1    -0.129387323811E+03    0.13735E-03   -0.72004E-02   333   0.128E+00    0.529E-02
DAV:   2    -0.129387478896E+03   -0.15508E-03   -0.20504E-03   411   0.186E-01    0.373E-02
DAV:   3    -0.129387466809E+03    0.12086E-04   -0.28265E-05   272   0.322E-02    0.233E-02
DAV:   4    -0.129387469029E+03   -0.22190E-05   -0.45111E-05   296   0.353E-02    0.530E-03
DAV:   5    -0.129387469870E+03   -0.84142E-06   -0.10207E-05   272   0.174E-02    0.296E-03
DAV:   6    -0.129387470732E+03   -0.86196E-06   -0.14625E-06   240   0.623E-03
  71 F= -.12938747E+03 E0= -.12938747E+03  d E =-.911511E-05
       N       E                     dE             d eps       ncg     rms          rms(c)
DAV:   1    -0.129387487911E+03   -0.18041E-04   -0.65741E-02   336   0.122E+00    0.442E-02
DAV:   2    -0.129387614703E+03   -0.12679E-03   -0.16134E-03   373   0.165E-01    0.307E-02
DAV:   3    -0.129387611029E+03    0.36742E-05   -0.22431E-05   272   0.262E-02    0.193E-02
DAV:   4    -0.129387621906E+03   -0.10877E-04   -0.30538E-05   334   0.293E-02    0.414E-03
DAV:   5    -0.129387623396E+03   -0.14901E-05   -0.63465E-06   216   0.130E-02    0.261E-03
DAV:   6    -0.129387624575E+03   -0.11793E-05   -0.72805E-07   232   0.427E-03
  72 F= -.12938762E+03 E0= -.12938762E+03  d E =-.153843E-03
       N       E                     dE             d eps       ncg     rms          rms(c)
DAV:   1    -0.129388117816E+03   -0.49442E-03   -0.87485E-02   329   0.147E+00    0.519E-02
DAV:   2    -0.129388304905E+03   -0.18709E-03   -0.23004E-03   386   0.206E-01    0.368E-02
DAV:   3    -0.129388295546E+03    0.93586E-05   -0.28693E-05   360   0.303E-02    0.232E-02
DAV:   4    -0.129388308236E+03   -0.12690E-04   -0.31710E-05   264   0.327E-02    0.385E-03
DAV:   5    -0.129388310087E+03   -0.18503E-05   -0.75212E-06   272   0.138E-02    0.275E-03
DAV:   6    -0.129388310855E+03   -0.76896E-06   -0.78048E-07   250   0.442E-03
  73 F= -.12938831E+03 E0= -.12938831E+03  d E =-.686280E-03
       N       E                     dE             d eps       ncg     rms          rms(c)
DAV:   1    -0.129388963511E+03   -0.65342E-03   -0.13953E-01   334   0.191E+00    0.667E-02
DAV:   2    -0.129389268558E+03   -0.30505E-03   -0.37592E-03   364   0.269E-01    0.473E-02
DAV:   3    -0.129389250206E+03    0.18352E-04   -0.67039E-05   368   0.421E-02    0.302E-02
DAV:   4    -0.129389264729E+03   -0.14523E-04   -0.55194E-05   264   0.438E-02    0.501E-03
DAV:   5    -0.129389267156E+03   -0.24269E-05   -0.13548E-05   272   0.185E-02    0.374E-03
DAV:   6    -0.129389268613E+03   -0.14577E-05   -0.14634E-06   208   0.616E-03
  74 F= -.12938927E+03 E0= -.12938927E+03  d E =-.957758E-03
       N       E                     dE             d eps       ncg     rms          rms(c)
DAV:   1    -0.129390436646E+03   -0.11695E-02   -0.24099E-01   332   0.244E+00    0.823E-02
DAV:   2    -0.129390927317E+03   -0.49067E-03   -0.59741E-03   356   0.324E-01    0.565E-02
DAV:   3    -0.129390900361E+03    0.26956E-04   -0.86158E-05   367   0.463E-02    0.355E-02
DAV:   4    -0.129390958634E+03   -0.58273E-04   -0.76231E-05   265   0.527E-02    0.562E-03
DAV:   5    -0.129390962490E+03   -0.38561E-05   -0.20107E-05   272   0.219E-02    0.441E-03
DAV:   6    -0.129390965164E+03   -0.26740E-05   -0.19713E-06   276   0.686E-03
  75 F= -.12939097E+03 E0= -.12939097E+03  d E =-.169655E-02
       N       E                     dE             d eps       ncg     rms          rms(c)
DAV:   1    -0.129392325917E+03   -0.13634E-02   -0.47661E-01   328   0.342E+00    0.119E-01
DAV:   2    -0.129393329240E+03   -0.10033E-02   -0.12316E-02   338   0.466E-01    0.827E-02
DAV:   3    -0.129393274203E+03    0.55037E-04   -0.18869E-04   400   0.691E-02    0.529E-02
DAV:   4    -0.129393376587E+03   -0.10238E-03   -0.16919E-04   297   0.781E-02    0.860E-03
DAV:   5    -0.129393383954E+03   -0.73676E-05   -0.43687E-05   272   0.328E-02    0.678E-03
DAV:   6    -0.129393387086E+03   -0.31321E-05   -0.46144E-06   300   0.107E-02
  76 F= -.12939339E+03 E0= -.12939339E+03  d E =-.242192E-02
       N       E                     dE             d eps       ncg     rms          rms(c)
DAV:   1    -0.129394954187E+03   -0.15702E-02   -0.79511E-01   328   0.435E+00    0.150E-01
DAV:   2    -0.129396575433E+03   -0.16212E-02   -0.19622E-02   362   0.569E-01    0.103E-01
DAV:   3    -0.129396508673E+03    0.66759E-04   -0.26614E-04   400   0.806E-02    0.652E-02
DAV:   4    -0.129396697798E+03   -0.18912E-03   -0.26438E-04   385   0.936E-02    0.108E-02
DAV:   5    -0.129396708368E+03   -0.10569E-04   -0.60527E-05   336   0.353E-02    0.890E-03
DAV:   6    -0.129396714108E+03   -0.57403E-05   -0.36180E-06   250   0.972E-03
  77 F= -.12939671E+03 E0= -.12939671E+03  d E =-.332702E-02
       N       E                     dE             d eps       ncg     rms          rms(c)
DAV:   1    -0.129397789043E+03   -0.10807E-02   -0.12492E+00   328   0.549E+00    0.192E-01
DAV:   2    -0.129400406556E+03   -0.26175E-02   -0.31615E-02   364   0.734E-01    0.132E-01
DAV:   3    -0.129400297876E+03    0.10868E-03   -0.47151E-04   463   0.107E-01    0.840E-02
DAV:   4    -0.129400537822E+03   -0.23995E-03   -0.36367E-04   378   0.111E-01    0.140E-02
DAV:   5    -0.129400562839E+03   -0.25017E-04   -0.95896E-05   336   0.457E-02    0.115E-02
DAV:   6    -0.129400570999E+03   -0.81604E-05   -0.57933E-06   254   0.121E-02
  78 F= -.12940057E+03 E0= -.12940057E+03  d E =-.385689E-02
       N       E                     dE             d eps       ncg     rms          rms(c)
DAV:   1    -0.129401020653E+03   -0.45781E-03   -0.16235E+00   328   0.636E+00    0.220E-01
DAV:   2    -0.129404541009E+03   -0.35204E-02   -0.42655E-02   355   0.878E-01    0.156E-01
DAV:   3    -0.129404364217E+03    0.17679E-03   -0.73152E-04   464   0.134E-01    0.999E-02
DAV:   4    -0.129404670053E+03   -0.30584E-03   -0.54479E-04   393   0.139E-01    0.167E-02
DAV:   5    -0.129404700121E+03   -0.30068E-04   -0.13104E-04   368   0.547E-02    0.133E-02
DAV:   6    -0.129404708148E+03   -0.80278E-05   -0.70484E-06   302   0.140E-02
  79 F= -.12940471E+03 E0= -.12940471E+03  d E =-.413715E-02
       N       E                     dE             d eps       ncg     rms          rms(c)
DAV:   1    -0.129405052359E+03   -0.35224E-03   -0.14563E-02   365   0.627E-01    0.374E-02
DAV:   2    -0.129405106837E+03   -0.54478E-04   -0.64192E-04   412   0.114E-01    0.230E-02
DAV:   3    -0.129405107099E+03   -0.26190E-06   -0.15154E-05   304   0.226E-02    0.135E-02
DAV:   4    -0.129405115363E+03   -0.82640E-05   -0.14924E-05   265   0.201E-02    0.280E-03
DAV:   5    -0.129405120380E+03   -0.50172E-05   -0.33791E-06   335   0.932E-03    0.159E-03
DAV:   6    -0.129405123499E+03   -0.31186E-05   -0.50163E-07   238   0.359E-03
  80 F= -.12940512E+03 E0= -.12940512E+03  d E =-.415350E-03
       N       E                     dE             d eps       ncg     rms          rms(c)
DAV:   1    -0.129404996958E+03    0.12342E-03   -0.30146E-02   330   0.896E-01    0.496E-02
DAV:   2    -0.129405085536E+03   -0.88578E-04   -0.12630E-03   427   0.159E-01    0.318E-02
DAV:   3    -0.129405071667E+03    0.13870E-04   -0.27703E-05   320   0.309E-02    0.192E-02
DAV:   4    -0.129405064639E+03    0.70272E-05   -0.32602E-05   280   0.299E-02    0.406E-03
DAV:   5    -0.129405065083E+03   -0.44324E-06   -0.68276E-06   272   0.141E-02    0.235E-03
DAV:   6    -0.129405066269E+03   -0.11864E-05   -0.12419E-06   286   0.577E-03
  81 F= -.12940507E+03 E0= -.12940507E+03  d E =0.572295E-04
       N       E                     dE             d eps       ncg     rms          rms(c)
DAV:   1    -0.129405119225E+03   -0.54142E-04   -0.28930E-04   294   0.886E-02    0.450E-03
DAV:   2    -0.129405122033E+03   -0.28080E-05   -0.13431E-05   272   0.189E-02    0.300E-03
DAV:   3    -0.129405123667E+03   -0.16335E-05   -0.14457E-06   204   0.627E-03    0.182E-03
DAV:   4    -0.129405126204E+03   -0.25377E-05   -0.52666E-07   300   0.332E-03    0.609E-04
DAV:   5    -0.129405127558E+03   -0.13539E-05   -0.92586E-08   272   0.168E-03    0.280E-04
DAV:   6    -0.129405128444E+03   -0.88590E-06   -0.17048E-08   202   0.814E-04
  82 F= -.12940513E+03 E0= -.12940513E+03  d E =-.621750E-04
       N       E                     dE             d eps       ncg     rms          rms(c)
DAV:   1    -0.129405214975E+03   -0.87417E-04   -0.10466E-03   376   0.168E-01    0.927E-03
DAV:   2    -0.129405218153E+03   -0.31780E-05   -0.38058E-05   224   0.296E-02    0.550E-03
DAV:   3    -0.129405218652E+03   -0.49855E-06   -0.40031E-06   271   0.993E-03    0.312E-03
DAV:   4    -0.129405219364E+03   -0.71208E-06   -0.14089E-06   264   0.546E-03    0.107E-03
DAV:   5    -0.129405219723E+03   -0.35883E-06   -0.22224E-07   272   0.285E-03    0.482E-04
DAV:   6    -0.129405220008E+03   -0.28546E-06   -0.29828E-08   220   0.143E-03
  83 F= -.12940522E+03 E0= -.12940522E+03  d E =-.915640E-04
       N       E                     dE             d eps       ncg     rms          rms(c)
DAV:   1    -0.129405314367E+03   -0.94645E-04   -0.19515E-03   376   0.230E-01    0.119E-02
DAV:   2    -0.129405318756E+03   -0.43885E-05   -0.70228E-05   242   0.394E-02    0.725E-03
DAV:   3    -0.129405318316E+03    0.43952E-06   -0.48322E-06   272   0.107E-02    0.446E-03
DAV:   4    -0.129405317859E+03    0.45758E-06   -0.29637E-06   264   0.809E-03    0.133E-03
DAV:   5    -0.129405317796E+03    0.62958E-07   -0.48405E-07   272   0.394E-03    0.662E-04
DAV:   6    -0.129405317851E+03   -0.55083E-07   -0.10775E-07   206   0.189E-03
  84 F= -.12940532E+03 E0= -.12940532E+03  d E =-.978428E-04
       N       E                     dE             d eps       ncg     rms          rms(c)
DAV:   1    -0.129405407548E+03   -0.89752E-04   -0.26872E-03   376   0.269E-01    0.126E-02
DAV:   2    -0.129405413124E+03   -0.55758E-05   -0.88318E-05   269   0.440E-02    0.783E-03
DAV:   3    -0.129405412641E+03    0.48307E-06   -0.56977E-06   254   0.115E-02    0.488E-03
DAV:   4    -0.129405412272E+03    0.36815E-06   -0.29178E-06   220   0.879E-03    0.120E-03
DAV:   5    -0.129405412336E+03   -0.63776E-07   -0.75916E-07   198   0.435E-03    0.686E-04
DAV:   6    -0.129405412511E+03   -0.17462E-06   -0.22500E-07   218   0.219E-03
  85 F= -.12940541E+03 E0= -.12940541E+03  d E =-.946599E-04
       N       E                     dE             d eps       ncg     rms          rms(c)
DAV:   1    -0.129405514346E+03   -0.10201E-03   -0.31674E-03   350   0.290E-01    0.114E-02
DAV:   2    -0.129405520626E+03   -0.62800E-05   -0.90674E-05   244   0.439E-02    0.742E-03
DAV:   3    -0.129405520487E+03    0.13930E-06   -0.52546E-06   165   0.109E-02    0.472E-03
DAV:   4    -0.129405520827E+03   -0.34025E-06   -0.25290E-06   204   0.826E-03    0.110E-03
DAV:   5    -0.129405520992E+03   -0.16516E-06   -0.73086E-07   168   0.406E-03    0.672E-04
DAV:   6    -0.129405521226E+03   -0.23395E-06   -0.22751E-07   202   0.207E-03
  86 F= -.12940552E+03 E0= -.12940552E+03  d E =-.108715E-03
       N       E                     dE             d eps       ncg     rms          rms(c)
DAV:   1    -0.129405664375E+03   -0.14338E-03   -0.37435E-03   365   0.310E-01    0.106E-02
DAV:   2    -0.129405671295E+03   -0.69197E-05   -0.92403E-05   234   0.432E-02    0.699E-03
DAV:   3    -0.129405671462E+03   -0.16675E-06   -0.46824E-06   164   0.101E-02    0.446E-03
DAV:   4    -0.129405672594E+03   -0.11325E-05   -0.19625E-06   204   0.739E-03    0.863E-04
DAV:   5    -0.129405672839E+03   -0.24476E-06   -0.66313E-07   165   0.361E-03    0.609E-04
DAV:   6    -0.129405673071E+03   -0.23239E-06   -0.19710E-07   199   0.171E-03
  87 F= -.12940567E+03 E0= -.12940567E+03  d E =-.151845E-03
       N       E                     dE             d eps       ncg     rms          rms(c)
DAV:   1    -0.129405899176E+03   -0.22634E-03   -0.59859E-03   366   0.390E-01    0.129E-02
DAV:   2    -0.129405909994E+03   -0.10818E-04   -0.14055E-04   257   0.524E-02    0.845E-03
DAV:   3    -0.129405910417E+03   -0.42268E-06   -0.67890E-06   219   0.120E-02    0.530E-03
DAV:   4    -0.129405912410E+03   -0.19930E-05   -0.26525E-06   227   0.854E-03    0.874E-04
DAV:   5    -0.129405912732E+03   -0.32266E-06   -0.92247E-07   272   0.409E-03    0.661E-04
DAV:   6    -0.129405912894E+03   -0.16134E-06   -0.24442E-07   200   0.173E-03
  88 F= -.12940591E+03 E0= -.12940591E+03  d E =-.239822E-03
       N       E                     dE             d eps       ncg     rms          rms(c)
DAV:   1    -0.129406232732E+03   -0.32000E-03   -0.10339E-02   341   0.513E-01    0.174E-02
DAV:   2    -0.129406252849E+03   -0.20116E-04   -0.26364E-04   323   0.707E-02    0.118E-02
DAV:   3    -0.129406252449E+03    0.39949E-06   -0.73476E-06   272   0.142E-02    0.754E-03
DAV:   4    -0.129406254989E+03   -0.25402E-05   -0.47849E-06   264   0.120E-02    0.147E-03
DAV:   5    -0.129406255170E+03   -0.18007E-06   -0.10781E-06   272   0.540E-03    0.927E-04
DAV:   6    -0.129406255259E+03   -0.89938E-07   -0.11270E-07   206   0.196E-03
  89 F= -.12940626E+03 E0= -.12940626E+03  d E =-.342366E-03
       N       E                     dE             d eps       ncg     rms          rms(c)
DAV:   1    -0.129406654608E+03   -0.39944E-03   -0.17737E-02   335   0.672E-01    0.233E-02
DAV:   2    -0.129406690692E+03   -0.36085E-04   -0.47028E-04   348   0.935E-02    0.165E-02
DAV:   3    -0.129406688497E+03    0.21951E-05   -0.65195E-06   272   0.145E-02    0.107E-02
DAV:   4    -0.129406692326E+03   -0.38289E-05   -0.82069E-06   200   0.169E-02    0.182E-03
DAV:   5    -0.129406692668E+03   -0.34227E-06   -0.24172E-06   272   0.761E-03    0.137E-03
DAV:   6    -0.129406692876E+03   -0.20746E-06   -0.36153E-07   206   0.268E-03
  90 F= -.12940669E+03 E0= -.12940669E+03  d E =-.437616E-03
       N       E                     dE             d eps       ncg     rms          rms(c)
DAV:   1    -0.129407172546E+03   -0.47988E-03   -0.28788E-02   334   0.846E-01    0.289E-02
DAV:   2    -0.129407230196E+03   -0.57650E-04   -0.74142E-04   340   0.115E-01    0.203E-02
DAV:   3    -0.129407227220E+03    0.29761E-05   -0.96134E-06   222   0.174E-02    0.131E-02
DAV:   4    -0.129407234431E+03   -0.72104E-05   -0.11936E-05   225   0.204E-02    0.213E-03
DAV:   5    -0.129407235036E+03   -0.60572E-06   -0.37113E-06   208   0.919E-03    0.168E-03
DAV:   6    -0.129407235422E+03   -0.38614E-06   -0.57985E-07   210   0.317E-03
  91 F= -.12940724E+03 E0= -.12940724E+03  d E =-.542546E-03
       N       E                     dE             d eps       ncg     rms          rms(c)
DAV:   1    -0.129407853781E+03   -0.61874E-03   -0.45167E-02   334   0.105E+00    0.351E-02
DAV:   2    -0.129407942106E+03   -0.88325E-04   -0.11175E-03   338   0.138E-01    0.243E-02
DAV:   3    -0.129407939070E+03    0.30358E-05   -0.13040E-05   254   0.198E-02    0.155E-02
DAV:   4    -0.129407951676E+03   -0.12606E-04   -0.18415E-05   273   0.235E-02    0.267E-03
DAV:   5    -0.129407952454E+03   -0.77779E-06   -0.40125E-06   208   0.983E-03    0.212E-03
DAV:   6    -0.129407952961E+03   -0.50677E-06   -0.33122E-07   232   0.301E-03
  92 F= -.12940795E+03 E0= -.12940795E+03  d E =-.717539E-03
       N       E                     dE             d eps       ncg     rms          rms(c)
DAV:   1    -0.129408743467E+03   -0.79101E-03   -0.71943E-02   331   0.132E+00    0.444E-02
DAV:   2    -0.129408885650E+03   -0.14218E-03   -0.17968E-03   330   0.175E-01    0.309E-02
DAV:   3    -0.129408880646E+03    0.50042E-05   -0.20860E-05   272   0.250E-02    0.199E-02
DAV:   4    -0.129408899748E+03   -0.19102E-04   -0.30360E-05   273   0.304E-02    0.346E-03
DAV:   5    -0.129408900782E+03   -0.10334E-05   -0.66605E-06   272   0.128E-02    0.273E-03
DAV:   6    -0.129408901392E+03   -0.61036E-06   -0.65256E-07   222   0.443E-03
  93 F= -.12940890E+03 E0= -.12940890E+03  d E =-.948431E-03
       N       E                     dE             d eps       ncg     rms          rms(c)
DAV:   1    -0.129409808942E+03   -0.90816E-03   -0.11429E-01   334   0.167E+00    0.562E-02
DAV:   2    -0.129410036922E+03   -0.22798E-03   -0.28765E-03   364   0.223E-01    0.393E-02
DAV:   3    -0.129410027661E+03    0.92609E-05   -0.40862E-05   368   0.321E-02    0.251E-02
DAV:   4    -0.129410055359E+03   -0.27698E-04   -0.39192E-05   240   0.377E-02    0.394E-03
DAV:   5    -0.129410057045E+03   -0.16857E-05   -0.10890E-05   272   0.162E-02    0.310E-03
DAV:   6    -0.129410058024E+03   -0.97970E-06   -0.99656E-07   238   0.532E-03
  94 F= -.12941006E+03 E0= -.12941006E+03  d E =-.115663E-02
       N       E                     dE             d eps       ncg     rms          rms(c)
DAV:   1    -0.129411116790E+03   -0.10597E-02   -0.17431E-01   328   0.205E+00    0.683E-02
DAV:   2    -0.129411460466E+03   -0.34368E-03   -0.42835E-03   353   0.268E-01    0.475E-02
DAV:   3    -0.129411447084E+03    0.13382E-04   -0.57663E-05   327   0.376E-02    0.302E-02
DAV:   4    -0.129411491891E+03   -0.44807E-04   -0.55599E-05   259   0.447E-02    0.466E-03
DAV:   5    -0.129411494355E+03   -0.24644E-05   -0.15934E-05   239   0.192E-02    0.382E-03
DAV:   6    -0.129411495993E+03   -0.16379E-05   -0.13985E-06   240   0.625E-03
  95 F= -.12941150E+03 E0= -.12941150E+03  d E =-.143797E-02
       N       E                     dE             d eps       ncg     rms          rms(c)
DAV:   1    -0.129412711746E+03   -0.12174E-02   -0.26539E-01   329   0.253E+00    0.852E-02
DAV:   2    -0.129413241073E+03   -0.52933E-03   -0.65824E-03   362   0.334E-01    0.591E-02
DAV:   3    -0.129413217519E+03    0.23554E-04   -0.89411E-05   368   0.473E-02    0.377E-02
DAV:   4    -0.129413283911E+03   -0.66392E-04   -0.89479E-05   264   0.560E-02    0.585E-03
DAV:   5    -0.129413287743E+03   -0.38322E-05   -0.23628E-05   272   0.235E-02    0.481E-03
DAV:   6    -0.129413289966E+03   -0.22225E-05   -0.23078E-06   270   0.740E-03
  96 F= -.12941329E+03 E0= -.12941329E+03  d E =-.179397E-02
       N       E                     dE             d eps       ncg     rms          rms(c)
DAV:   1    -0.129414555588E+03   -0.12678E-02   -0.40211E-01   328   0.311E+00    0.104E-01
DAV:   2    -0.129415356325E+03   -0.80074E-03   -0.99179E-03   363   0.409E-01    0.723E-02
DAV:   3    -0.129415319396E+03    0.36929E-04   -0.13735E-04   390   0.575E-02    0.461E-02
DAV:   4    -0.129415419567E+03   -0.10017E-03   -0.12450E-04   300   0.673E-02    0.692E-03
DAV:   5    -0.129415426126E+03   -0.65594E-05   -0.35449E-05   272   0.287E-02    0.601E-03
DAV:   6    -0.129415429555E+03   -0.34285E-05   -0.35102E-06   264   0.910E-03
  97 F= -.12941543E+03 E0= -.12941543E+03  d E =-.213959E-02
       N       E                     dE             d eps       ncg     rms          rms(c)
DAV:   1    -0.129416733526E+03   -0.13074E-02   -0.59553E-01   328   0.379E+00    0.127E-01
DAV:   2    -0.129417943794E+03   -0.12103E-02   -0.14778E-02   356   0.502E-01    0.885E-02
DAV:   3    -0.129417894054E+03    0.49739E-04   -0.21040E-04   399   0.712E-02    0.565E-02
DAV:   4    -0.129418027128E+03   -0.13307E-03   -0.19533E-04   332   0.831E-02    0.898E-03
DAV:   5    -0.129418036004E+03   -0.88764E-05   -0.50172E-05   304   0.335E-02    0.742E-03
DAV:   6    -0.129418040699E+03   -0.46954E-05   -0.38213E-06   264   0.972E-03
  98 F= -.12941804E+03 E0= -.12941804E+03  d E =-.261114E-02
       N       E                     dE             d eps       ncg     rms          rms(c)
DAV:   1    -0.129419230237E+03   -0.11942E-02   -0.87754E-01   328   0.461E+00    0.154E-01
DAV:   2    -0.129421020732E+03   -0.17905E-02   -0.21658E-02   372   0.607E-01    0.107E-01
DAV:   3    -0.129420955495E+03    0.65237E-04   -0.31584E-04   431   0.851E-02    0.675E-02
DAV:   4    -0.129421137807E+03   -0.18231E-03   -0.24993E-04   395   0.939E-02    0.103E-02
DAV:   5    -0.129421151036E+03   -0.13229E-04   -0.63883E-05   304   0.372E-02    0.872E-03
DAV:   6    -0.129421157604E+03   -0.65674E-05   -0.50017E-06   264   0.109E-02
  99 F= -.12942116E+03 E0= -.12942116E+03  d E =-.311690E-02
       N       E                     dE             d eps       ncg     rms          rms(c)
DAV:   1    -0.129421994586E+03   -0.84355E-03   -0.12775E+00   328   0.559E+00    0.187E-01
DAV:   2    -0.129424615390E+03   -0.26208E-02   -0.31782E-02   373   0.742E-01    0.129E-01
DAV:   3    -0.129424518142E+03    0.97248E-04   -0.47979E-04   463   0.105E-01    0.820E-02
DAV:   4    -0.129424772076E+03   -0.25393E-03   -0.33894E-04   395   0.111E-01    0.123E-02
DAV:   5    -0.129424793814E+03   -0.21738E-04   -0.92270E-05   336   0.442E-02    0.109E-02
DAV:   6    -0.129424801568E+03   -0.77540E-05   -0.50178E-06   298   0.114E-02
 100 F= -.12942480E+03 E0= -.12942480E+03  d E =-.364396E-02
       N       E                     dE             d eps       ncg     rms          rms(c)
DAV:   1    -0.129424932616E+03   -0.13880E-03   -0.16475E+00   328   0.642E+00    0.212E-01
DAV:   2    -0.129428340020E+03   -0.34074E-02   -0.41412E-02   356   0.865E-01    0.149E-01
DAV:   3    -0.129428212256E+03    0.12776E-03   -0.66171E-04   464   0.124E-01    0.946E-02
DAV:   4    -0.129428532979E+03   -0.32072E-03   -0.46793E-04   428   0.132E-01    0.150E-02
DAV:   5    -0.129428559436E+03   -0.26457E-04   -0.12370E-04   336   0.530E-02    0.124E-02
DAV:   6    -0.129428568609E+03   -0.91733E-05   -0.67000E-06   262   0.133E-02
 101 F= -.12942857E+03 E0= -.12942857E+03  d E =-.376704E-02
       N       E                     dE             d eps       ncg     rms          rms(c)
DAV:   1    -0.129427589253E+03    0.97018E-03   -0.20173E+00   328   0.717E+00    0.235E-01
DAV:   2    -0.129431766545E+03   -0.41773E-02   -0.50776E-02   364   0.975E-01    0.166E-01
DAV:   3    -0.129431615227E+03    0.15132E-03   -0.83881E-04   464   0.138E-01    0.105E-01
DAV:   4    -0.129431985536E+03   -0.37031E-03   -0.54943E-04   394   0.144E-01    0.162E-02
DAV:   5    -0.129432022959E+03   -0.37423E-04   -0.14896E-04   376   0.573E-02    0.141E-02
DAV:   6    -0.129432034901E+03   -0.11942E-04   -0.68471E-06   270   0.139E-02
 102 F= -.12943203E+03 E0= -.12943203E+03  d E =-.346629E-02
       N       E                     dE             d eps       ncg     rms          rms(c)
DAV:   1    -0.129428905983E+03    0.31170E-02   -0.26309E+00   331   0.813E+00    0.273E-01
DAV:   2    -0.129434370453E+03   -0.54645E-02   -0.67432E-02   356   0.112E+00    0.194E-01
DAV:   3    -0.129434181776E+03    0.18868E-03   -0.11533E-03   464   0.164E-01    0.124E-01
DAV:   4    -0.129434619089E+03   -0.43731E-03   -0.79901E-04   412   0.170E-01    0.213E-02
DAV:   5    -0.129434667501E+03   -0.48412E-04   -0.20757E-04   368   0.689E-02    0.167E-02
DAV:   6    -0.129434681665E+03   -0.14164E-04   -0.10411E-05   288   0.170E-02
 103 F= -.12943468E+03 E0= -.12943468E+03  d E =-.264676E-02
       N       E                     dE             d eps       ncg     rms          rms(c)
DAV:   1    -0.129425671241E+03    0.89963E-02   -0.38860E+00   331   0.975E+00    0.355E-01
DAV:   2    -0.129434367978E+03   -0.86967E-02   -0.10720E-01   346   0.140E+00    0.258E-01
DAV:   3    -0.129433872342E+03    0.49564E-03   -0.21855E-03   464   0.223E-01    0.166E-01
DAV:   4    -0.129434280736E+03   -0.40839E-03   -0.14422E-03   394   0.217E-01    0.291E-02
DAV:   5    -0.129434354131E+03   -0.73395E-04   -0.34160E-04   432   0.853E-02    0.224E-02
DAV:   6    -0.129434368860E+03   -0.14729E-04   -0.14004E-05   352   0.205E-02
 104 F= -.12943437E+03 E0= -.12943437E+03  d E =0.312805E-03
       N       E                     dE             d eps       ncg     rms          rms(c)
DAV:   1    -0.129437149356E+03   -0.27952E-02   -0.24835E-01   333   0.258E+00    0.171E-01
DAV:   2    -0.129437963583E+03   -0.81423E-03   -0.11380E-02   394   0.480E-01    0.987E-02
DAV:   3    -0.129437854454E+03    0.10913E-03   -0.33208E-04   414   0.101E-01    0.559E-02
DAV:   4    -0.129437811508E+03    0.42946E-04   -0.20709E-04   305   0.759E-02    0.134E-02
DAV:   5    -0.129437817273E+03   -0.57653E-05   -0.47213E-05   368   0.344E-02    0.729E-03
DAV:   6    -0.129437823756E+03   -0.64831E-05   -0.59944E-06   254   0.132E-02
 105 F= -.12943782E+03 E0= -.12943782E+03  d E =-.345490E-02
       N       E                     dE             d eps       ncg     rms          rms(c)
DAV:   1    -0.129437839845E+03   -0.22572E-04   -0.26051E-04   378   0.762E-02    0.377E-03
DAV:   2    -0.129437845848E+03   -0.60028E-05   -0.86995E-06   272   0.144E-02    0.241E-03
DAV:   3    -0.129437850763E+03   -0.49146E-05   -0.10062E-06   286   0.496E-03    0.161E-03
DAV:   4    -0.129437859267E+03   -0.85048E-05   -0.44652E-07   300   0.309E-03    0.583E-04
DAV:   5    -0.129437864307E+03   -0.50391E-05   -0.18769E-07   272   0.188E-03    0.425E-04
DAV:   6    -0.129437869337E+03   -0.50308E-05   -0.21194E-07   264   0.162E-03
 106 F= -.12943787E+03 E0= -.12943787E+03  d E =-.455811E-04
