 vasp.5.4.1 24Jun15 (build Jan 13 2020 12:58:22) complex                        
  
 executed on           IFC91_ompi date 2020.02.03  09:56:59
 running on   15 total cores
 each image running on    1 cores
 distrk:  each k-point on    1 cores,    1 groups
 distr:  one band on NCORES_PER_BAND=   1 cores,    1 groups


--------------------------------------------------------------------------------------------------------


 INCAR:
 POTCAR:    PAW_PBE H 15Jun2001                   
 POTCAR:    PAW_PBE C 08Apr2002                   
 POTCAR:    PAW_PBE N 08Apr2002                   
 POTCAR:    PAW_PBE O 08Apr2002                   
 POTCAR:    PAW_PBE H 15Jun2001                   
   VRHFIN =H: ultrasoft test                                                    
   LEXCH  = PE                                                                  
   EATOM  =    12.4884 eV,    0.9179 Ry                                         
                                                                                
   TITEL  = PAW_PBE H 15Jun2001                                                 
   LULTRA =        F    use ultrasoft PP ?                                      
   IUNSCR =        0    unscreen: 0-lin 1-nonlin 2-no                           
   RPACOR =    0.000    partial core radius                                     
   POMASS =    1.000; ZVAL   =    1.000    mass and valenz                      
   RCORE  =    1.100    outmost cutoff radius                                   
   RWIGS  =    0.700; RWIGS  =    0.370    wigner-seitz radius (au A)           
   ENMAX  =  250.000; ENMIN  =  200.000 eV                                      
   RCLOC  =    0.701    cutoff for local pot                                    
   LCOR   =        T    correct aug charges                                     
   LPAW   =        T    paw PP                                                  
   EAUG   =  400.000                                                            
   RMAX   =    1.123    core radius for proj-oper                               
   RAUG   =    1.200    factor for augmentation sphere                          
   RDEP   =    1.112    radius for radial grids                                 
   RDEPT  =    0.926    core radius for aug-charge                              
                                                                                
   Atomic configuration                                                         
    2 entries                                                                   
     n  l   j            E        occ.                                          
     1  0  0.50        -6.4927   1.0000                                         
     2  1  0.50        -3.4015   0.0000                                         
   Description                                                                  
     l       E           TYP  RCUT    TYP  RCUT                                 
     0     -6.4927494     23  1.100                                             
     0      6.8029130     23  1.100                                             
     1     -4.0817478     23  1.100                                             
  local pseudopotential read in
  atomic valenz-charges read in
  non local Contribution for L=           0  read in
    real space projection operators read in
  non local Contribution for L=           0  read in
    real space projection operators read in
  non local Contribution for L=           1  read in
    real space projection operators read in
    PAW grid and wavefunctions read in
 
   number of l-projection  operators is LMAX  =           3
   number of lm-projection operators is LMMAX =           5
 
 POTCAR:    PAW_PBE C 08Apr2002                   
   VRHFIN =C: s2p2                                                              
   LEXCH  = PE                                                                  
   EATOM  =   147.1560 eV,   10.8157 Ry                                         
                                                                                
   TITEL  = PAW_PBE C 08Apr2002                                                 
   LULTRA =        F    use ultrasoft PP ?                                      
   IUNSCR =        1    unscreen: 0-lin 1-nonlin 2-no                           
   RPACOR =    1.200    partial core radius                                     
   POMASS =   12.011; ZVAL   =    4.000    mass and valenz                      
   RCORE  =    1.500    outmost cutoff radius                                   
   RWIGS  =    1.630; RWIGS  =    0.863    wigner-seitz radius (au A)           
   ENMAX  =  400.000; ENMIN  =  300.000 eV                                      
   ICORE  =        2    local potential                                         
   LCOR   =        T    correct aug charges                                     
   LPAW   =        T    paw PP                                                  
   EAUG   =  644.873                                                            
   DEXC   =    0.000                                                            
   RMAX   =    1.529    core radius for proj-oper                               
   RAUG   =    1.300    factor for augmentation sphere                          
   RDEP   =    1.501    radius for radial grids                                 
   RDEPT  =    1.300    core radius for aug-charge                              
                                                                                
   Atomic configuration                                                         
    4 entries                                                                   
     n  l   j            E        occ.                                          
     1  0  0.50      -273.3789   2.0000                                         
     2  0  0.50       -13.7508   2.0000                                         
     2  1  0.50        -5.2854   2.0000                                         
     3  2  1.50        -5.4423   0.0000                                         
   Description                                                                  
     l       E           TYP  RCUT    TYP  RCUT                                 
     0    -13.7508458     23  1.200                                             
     0     -8.2022199     23  1.200                                             
     1     -5.2854383     23  1.500                                             
     1     34.0145650     23  1.500                                             
     2     -5.4423304      7  1.500                                             
  local pseudopotential read in
  partial core-charges read in
  partial kinetic energy density read in
  atomic valenz-charges read in
  non local Contribution for L=           0  read in
    real space projection operators read in
  non local Contribution for L=           0  read in
    real space projection operators read in
  non local Contribution for L=           1  read in
    real space projection operators read in
  non local Contribution for L=           1  read in
    real space projection operators read in
    PAW grid and wavefunctions read in
 
   number of l-projection  operators is LMAX  =           4
   number of lm-projection operators is LMMAX =           8
 
 POTCAR:    PAW_PBE N 08Apr2002                   
   VRHFIN =N: s2p3                                                              
   LEXCH  = PE                                                                  
   EATOM  =   264.5486 eV,   19.4438 Ry                                         
                                                                                
   TITEL  = PAW_PBE N 08Apr2002                                                 
   LULTRA =        F    use ultrasoft PP ?                                      
   IUNSCR =        1    unscreen: 0-lin 1-nonlin 2-no                           
   RPACOR =    1.200    partial core radius                                     
   POMASS =   14.001; ZVAL   =    5.000    mass and valenz                      
   RCORE  =    1.500    outmost cutoff radius                                   
   RWIGS  =    1.400; RWIGS  =    0.741    wigner-seitz radius (au A)           
   ENMAX  =  400.000; ENMIN  =  300.000 eV                                      
   ICORE  =        2    local potential                                         
   LCOR   =        T    correct aug charges                                     
   LPAW   =        T    paw PP                                                  
   EAUG   =  627.112                                                            
   DEXC   =    0.000                                                            
   RMAX   =    1.529    core radius for proj-oper                               
   RAUG   =    1.300    factor for augmentation sphere                          
   RDEP   =    1.514    radius for radial grids                                 
   RDEPT  =    1.338    core radius for aug-charge                              
                                                                                
   Atomic configuration                                                         
    4 entries                                                                   
     n  l   j            E        occ.                                          
     1  0  0.50      -384.7179   2.0000                                         
     2  0  0.50       -18.5828   2.0000                                         
     2  1  0.50        -7.0898   3.0000                                         
     3  2  1.50        -6.8029   0.0000                                         
   Description                                                                  
     l       E           TYP  RCUT    TYP  RCUT                                 
     0    -18.5828119     23  1.200                                             
     0    -13.5018863     23  1.200                                             
     1     -7.0897853     23  1.500                                             
     1      9.5240782     23  1.500                                             
     2     -6.8029130      7  1.500                                             
  local pseudopotential read in
  partial core-charges read in
  partial kinetic energy density read in
  atomic valenz-charges read in
  non local Contribution for L=           0  read in
    real space projection operators read in
  non local Contribution for L=           0  read in
    real space projection operators read in
  non local Contribution for L=           1  read in
    real space projection operators read in
  non local Contribution for L=           1  read in
    real space projection operators read in
    PAW grid and wavefunctions read in
 
   number of l-projection  operators is LMAX  =           4
   number of lm-projection operators is LMMAX =           8
 
 POTCAR:    PAW_PBE O 08Apr2002                   
   VRHFIN =O: s2p4                                                              
   LEXCH  = PE                                                                  
   EATOM  =   432.3788 eV,   31.7789 Ry                                         
                                                                                
   TITEL  = PAW_PBE O 08Apr2002                                                 
   LULTRA =        F    use ultrasoft PP ?                                      
   IUNSCR =        1    unscreen: 0-lin 1-nonlin 2-no                           
   RPACOR =    1.200    partial core radius                                     
   POMASS =   16.000; ZVAL   =    6.000    mass and valenz                      
   RCORE  =    1.520    outmost cutoff radius                                   
   RWIGS  =    1.550; RWIGS  =    0.820    wigner-seitz radius (au A)           
   ENMAX  =  400.000; ENMIN  =  300.000 eV                                      
   ICORE  =        2    local potential                                         
   LCOR   =        T    correct aug charges                                     
   LPAW   =        T    paw PP                                                  
   EAUG   =  605.392                                                            
   DEXC   =    0.000                                                            
   RMAX   =    1.553    core radius for proj-oper                               
   RAUG   =    1.300    factor for augmentation sphere                          
   RDEP   =    1.550    radius for radial grids                                 
   RDEPT  =    1.329    core radius for aug-charge                              
                                                                                
   Atomic configuration                                                         
    4 entries                                                                   
     n  l   j            E        occ.                                          
     1  0  0.50      -514.6923   2.0000                                         
     2  0  0.50       -23.9615   2.0000                                         
     2  1  0.50        -9.0305   4.0000                                         
     3  2  1.50        -9.5241   0.0000                                         
   Description                                                                  
     l       E           TYP  RCUT    TYP  RCUT                                 
     0    -23.9615318     23  1.200                                             
     0     -9.5240782     23  1.200                                             
     1     -9.0304911     23  1.520                                             
     1      8.1634956     23  1.520                                             
     2     -9.5240782      7  1.500                                             
  local pseudopotential read in
  partial core-charges read in
  partial kinetic energy density read in
  kinetic energy density of atom read in
  atomic valenz-charges read in
  non local Contribution for L=           0  read in
    real space projection operators read in
  non local Contribution for L=           0  read in
    real space projection operators read in
  non local Contribution for L=           1  read in
    real space projection operators read in
  non local Contribution for L=           1  read in
    real space projection operators read in
    PAW grid and wavefunctions read in
 
   number of l-projection  operators is LMAX  =           4
   number of lm-projection operators is LMMAX =           8
 
 Optimization of the real space projectors (new method)

 maximal supplied QI-value         = 34.20
 optimisation between [QCUT,QGAM] = [  9.92, 20.18] = [ 27.55,114.04] Ry 
 Optimized for a Real-space Cutoff    1.26 Angstroem

   l    n(q)    QCUT    max X(q) W(low)/X(q) W(high)/X(q)  e(spline) 
   0      8     9.919    19.460    0.50E-03    0.23E-03    0.29E-06
   0      8     9.919    12.209    0.48E-03    0.23E-03    0.28E-06
   1      7     9.919     4.655    0.17E-03    0.75E-03    0.30E-06
 Optimization of the real space projectors (new method)

 maximal supplied QI-value         = 25.13
 optimisation between [QCUT,QGAM] = [ 10.05, 20.36] = [ 28.30,116.06] Ry 
 Optimized for a Real-space Cutoff    1.30 Angstroem

   l    n(q)    QCUT    max X(q) W(low)/X(q) W(high)/X(q)  e(spline) 
   0      8    10.053   115.676    0.49E-03    0.72E-03    0.18E-06
   0      8    10.053    87.132    0.49E-03    0.71E-03    0.18E-06
   1      7    10.053     4.429    0.32E-03    0.31E-03    0.18E-06
   1      7    10.053     2.733    0.23E-03    0.19E-03    0.20E-06
 Optimization of the real space projectors (new method)

 maximal supplied QI-value         = 25.13
 optimisation between [QCUT,QGAM] = [ 10.05, 20.36] = [ 28.30,116.06] Ry 
 Optimized for a Real-space Cutoff    1.65 Angstroem

   l    n(q)    QCUT    max X(q) W(low)/X(q) W(high)/X(q)  e(spline) 
   0     10    10.053    79.467    0.76E-04    0.72E-04    0.56E-06
   0     10    10.053    66.151    0.76E-04    0.72E-04    0.55E-06
   1     10    10.053     8.350    0.25E-03    0.92E-03    0.41E-05
   1     10    10.053     5.531    0.27E-03    0.10E-02    0.45E-05
 Optimization of the real space projectors (new method)

 maximal supplied QI-value         = 24.76
 optimisation between [QCUT,QGAM] = [ 10.15, 20.30] = [ 28.85,115.39] Ry 
 Optimized for a Real-space Cutoff    1.38 Angstroem

   l    n(q)    QCUT    max X(q) W(low)/X(q) W(high)/X(q)  e(spline) 
   0      8    10.150    20.381    0.22E-03    0.32E-03    0.29E-06
   0      8    10.150    15.268    0.23E-03    0.35E-03    0.30E-06
   1      8    10.150     5.964    0.46E-03    0.53E-03    0.21E-06
   1      8    10.150     5.382    0.38E-03    0.45E-03    0.19E-06
  PAW_PBE H 15Jun2001                   :
 energy of atom  1       EATOM=  -12.4884
 kinetic energy error for atom=    0.0098 (will be added to EATOM!!)
  PAW_PBE C 08Apr2002                   :
 energy of atom  2       EATOM= -147.1560
 kinetic energy error for atom=    0.0288 (will be added to EATOM!!)
  PAW_PBE N 08Apr2002                   :
 energy of atom  3       EATOM= -264.5486
 kinetic energy error for atom=    0.0736 (will be added to EATOM!!)
  PAW_PBE O 08Apr2002                   :
 energy of atom  4       EATOM= -432.3788
 kinetic energy error for atom=    0.1156 (will be added to EATOM!!)
 
 
 POSCAR: H12 C6 N2 O2                            
  positions in direct lattice
  velocities in cartesian coordinates
 exchange correlation table for  LEXCH =        8
   RHO(1)=    0.500       N(1)  =     2000
   RHO(2)=  100.500       N(2)  =     4000

 VTST: version 3.2, (02/03/18)

 CHAIN: initializing optimizer
 
 OPT: Using FIRE optimizer
 OPT: FIRE, Init
 OPT: FIRE, MAXMOVE       0.20000
 OPT: FIRE, TIMESTEP      0.10000
 OPT: FIRE, FTIMEMAX      1.00000
 OPT: FIRE, FTIMEINC      1.10000
 OPT: FIRE, FTIMEDEC      0.50000
 OPT: FIRE, FALPHADEC     0.99000
 OPT: FIRE, FALPHA        0.10000
 OPT: FIRE, FNMIN         5
 
 CHAIN: Read ICHAIN            0
 CHAIN: Running the NEB
 NEB:          SPRING     -5.000000
 NEB:          LCLIMB      T
 NEB:     LTANGENTOLD      F
 NEB:           LDNEB      F
 NEB:        LDNEBORG      F
 NEB:        LNEBCELL      F
 NEB:          EFIRST      0.000000
 NEB:           ELAST      0.000000
 
 POSCAR: H12 C6 N2 O2                            
  positions in direct lattice
  No initial velocities read in
 
 POSCAR: H12 C6 N2 O2                            
  positions in direct lattice
  No initial velocities read in
 


--------------------------------------------------------------------------------------------------------


 ion  position               nearest neighbor table
   1  0.375  0.538  0.504-  13 1.10
   2  0.380  0.486  0.475-  13 1.10
   3  0.379  0.487  0.534-  13 1.10
   4  0.448  0.446  0.497-  19 1.02
   5  0.520  0.465  0.544-  15 1.11
   6  0.560  0.414  0.494-  16 1.10
   7  0.522  0.421  0.451-  16 1.10
   8  0.504  0.395  0.502-  16 1.10
   9  0.515  0.551  0.520-  20 1.04
  10  0.612  0.567  0.512-  18 1.10
  11  0.579  0.584  0.465-  18 1.10
  12  0.568  0.606  0.520-  18 1.10
  13  0.390  0.505  0.504-   2 1.10   1 1.10   3 1.10  14 1.52
  14  0.440  0.512  0.507-  21 1.24  19 1.36  13 1.52
  15  0.514  0.466  0.507-   5 1.11  19 1.48  16 1.52  17 1.56
  16  0.525  0.421  0.487-   6 1.10   7 1.10   8 1.10  15 1.52
  17  0.547  0.502  0.489-  22 1.24  20 1.36  15 1.56
  18  0.578  0.576  0.501-  12 1.10  11 1.10  10 1.10  20 1.45
  19  0.466  0.475  0.500-   4 1.02  14 1.36  15 1.48
  20  0.547  0.541  0.512-   9 1.04  17 1.36  18 1.45
  21  0.456  0.550  0.515-  14 1.24
  22  0.575  0.492  0.461-  17 1.24
 
  LATTYP: Found a simple cubic cell.
 ALAT       =    30.0000000000
  
  Lattice vectors:
  
 A1 = (  30.0000000000,   0.0000000000,   0.0000000000)
 A2 = (   0.0000000000,  30.0000000000,   0.0000000000)
 A3 = (   0.0000000000,   0.0000000000,  30.0000000000)


Analysis of symmetry for initial positions (statically):
=====================================================================
 Subroutine PRICEL returns:
 Original cell was already a primitive cell.
 

 Routine SETGRP: Setting up the symmetry group for a 
 simple cubic supercell.


 Subroutine GETGRP returns: Found  1 space group operations
 (whereof  1 operations were pure point group operations)
 out of a pool of 48 trial point group operations.


The static configuration has the point symmetry C_1 .


Analysis of symmetry for dynamics (positions and initial velocities):
=====================================================================
 Subroutine PRICEL returns:
 Original cell was already a primitive cell.
 

 Routine SETGRP: Setting up the symmetry group for a 
 simple cubic supercell.


 Subroutine GETGRP returns: Found  1 space group operations
 (whereof  1 operations were pure point group operations)
 out of a pool of 48 trial point group operations.


The dynamic configuration has the point symmetry C_1 .
 
 
 KPOINTS: Mo2C                                    

Automatic generation of k-mesh.
Space group operators:
 irot       det(A)        alpha          n_x          n_y          n_z        tau_x        tau_y        tau_z
    1     1.000000     0.000000     1.000000     0.000000     0.000000     0.000000     0.000000     0.000000
 
 Subroutine IBZKPT returns following result:
 ===========================================
 
 Found      4 irreducible k-points:
 
 Following reciprocal coordinates:
            Coordinates               Weight
  0.250000  0.250000  0.250000      2.000000
 -0.250000  0.250000  0.250000      2.000000
  0.250000 -0.250000  0.250000      2.000000
 -0.250000 -0.250000  0.250000      2.000000
 
 Following cartesian coordinates:
            Coordinates               Weight
  0.008333  0.008333  0.008333      2.000000
 -0.008333  0.008333  0.008333      2.000000
  0.008333 -0.008333  0.008333      2.000000
 -0.008333 -0.008333  0.008333      2.000000
 


--------------------------------------------------------------------------------------------------------




 Dimension of arrays:
   k-points           NKPTS =      4   k-points in BZ     NKDIM =      4   number of bands    NBANDS=     41
   number of dos      NEDOS =    301   number of ions     NIONS =     22
   non local maximal  LDIM  =      4   non local SUM 2l+1 LMDIM =      8
   total plane-waves  NPLWV = ******
   max r-space proj   IRMAX =   2395   max aug-charges    IRDMAX=   1821
   dimension x,y,z NGX =   150 NGY =  150 NGZ =  150
   dimension x,y,z NGXF=   300 NGYF=  300 NGZF=  300
   support grid    NGXF=   300 NGYF=  300 NGZF=  300
   ions per type =              12   6   2   2
 NGX,Y,Z   is equivalent  to a cutoff of   8.31,  8.31,  8.31 a.u.
 NGXF,Y,Z  is equivalent  to a cutoff of  16.62, 16.62, 16.62 a.u.


 I would recommend the setting:
   dimension x,y,z NGX =   147 NGY =  147 NGZ =  147
 SYSTEM =  unknown system                          
 POSCAR =  H12 C6 N2 O2                            

 Startparameter for this run:
   NWRITE =      2    write-flag & timer
   PREC   = normal    normal or accurate (medium, high low for compatibility)
   ISTART =      0    job   : 0-new  1-cont  2-samecut
   ICHARG =      2    charge: 1-file 2-atom 10-const
   ISPIN  =      1    spin polarized calculation?
   LNONCOLLINEAR =      F non collinear calculations
   LSORBIT =      F    spin-orbit coupling
   INIWAV =      1    electr: 0-lowe 1-rand  2-diag
   LASPH  =      F    aspherical Exc in radial PAW
   METAGGA=      F    non-selfconsistent MetaGGA calc.

 Electronic Relaxation 1
   ENCUT  =  400.0 eV  29.40 Ry    5.42 a.u.  48.92 48.92 48.92*2*pi/ulx,y,z
   ENINI  =  400.0     initial cutoff
   ENAUG  =  644.9 eV  augmentation charge cutoff
   NELM   =    500;   NELMIN=  6; NELMDL= -5     # of ELM steps 
   EDIFF  = 0.1E-03   stopping-criterion for ELM
   LREAL  =      T    real-space projection
   NLSPLINE    = F    spline interpolate recip. space projectors
   LCOMPAT=      F    compatible to vasp.4.4
   GGA_COMPAT  = T    GGA compatible to vasp.4.4-vasp.4.6
   LMAXPAW     = -100 max onsite density
   LMAXMIX     =    2 max onsite mixed and CHGCAR
   VOSKOWN=      0    Vosko Wilk Nusair interpolation
   ROPT   =   -0.00050  -0.00050  -0.00050  -0.00050
 Ionic relaxation
   EDIFFG = -.1E+00   stopping-criterion for IOM
   NSW    =    300    number of steps for IOM
   NBLOCK =      1;   KBLOCK =    300    inner block; outer block 
   IBRION =      3    ionic relax: 0-MD 1-quasi-New 2-CG
   NFREE  =      0    steps in history (QN), initial steepest desc. (CG)
   ISIF   =      2    stress and relaxation
   IWAVPR =     11    prediction:  0-non 1-charg 2-wave 3-comb
   ISYM   =      2    0-nonsym 1-usesym 2-fastsym
   LCORR  =      T    Harris-Foulkes like correction to forces

   POTIM  = 0.0000    time-step for ionic-motion
   TEIN   =    0.0    initial temperature
   TEBEG  =    0.0;   TEEND  =   0.0 temperature during run
   SMASS  =   2.00    Nose mass-parameter (am)
   estimated Nose-frequenzy (Omega)   =  0.24E+10 period in steps =  0.00 mass=   0.137E-25a.u.
   SCALEE = 1.0000    scale energy and forces
   NPACO  =    256;   APACO  = 16.0  distance and # of slots for P.C.
   PSTRESS=    0.0 pullay stress

  Mass of Ions in am
   POMASS =   1.00 12.01 14.00 16.00
  Ionic Valenz
   ZVAL   =   1.00  4.00  5.00  6.00
  Atomic Wigner-Seitz radii
   RWIGS  =  -1.00 -1.00 -1.00 -1.00
  virtual crystal weights 
   VCA    =   1.00  1.00  1.00  1.00
   NELECT =      58.0000    total number of electrons
   NUPDOWN=      -1.0000    fix difference up-down

 DOS related values:
   EMIN   =  10.00;   EMAX   =-10.00  energy-range for DOS
   EFERMI =   0.00
   ISMEAR =     0;   SIGMA  =   0.20  broadening in eV -4-tet -1-fermi 0-gaus

 Electronic relaxation 2 (details)
   IALGO  =     38    algorithm
   LDIAG  =      T    sub-space diagonalisation (order eigenvalues)
   LSUBROT=      F    optimize rotation matrix (better conditioning)
   TURBO    =      0    0=normal 1=particle mesh
   IRESTART =      0    0=no restart 2=restart with 2 vectors
   NREBOOT  =      0    no. of reboots
   NMIN     =      0    reboot dimension
   EREF     =   0.00    reference energy to select bands
   IMIX   =      4    mixing-type and parameters
     AMIX     =   0.40;   BMIX     =  1.00
     AMIX_MAG =   1.60;   BMIX_MAG =  1.00
     AMIN     =   0.10
     WC   =   100.;   INIMIX=   1;  MIXPRE=   1;  MAXMIX= -45

 Intra band minimization:
   WEIMIN = 0.0010     energy-eigenvalue tresh-hold
   EBREAK =  0.61E-06  absolut break condition
   DEPER  =   0.30     relativ break condition  

   TIME   =   0.40     timestep for ELM

  volume/ion in A,a.u.               =    1227.27      8282.05
  Fermi-wavevector in a.u.,A,eV,Ry     =   0.211234  0.399174  0.607087  0.044620
  Thomas-Fermi vector in A             =   0.980021
 
 Write flags
   LWAVE  =      F    write WAVECAR
   LCHARG =      F    write CHGCAR
   LVTOT  =      F    write LOCPOT, total local potential
   LVHAR  =      F    write LOCPOT, Hartree potential only
   LELF   =      F    write electronic localiz. function (ELF)
   LORBIT =      0    0 simple, 1 ext, 2 COOP (PROOUT)


 Dipole corrections
   LMONO  =      F    monopole corrections only (constant potential shift)
   LDIPOL =      F    correct potential (dipole corrections)
   IDIPOL =      0    1-x, 2-y, 3-z, 4-all directions 
   EPSILON=  1.0000000 bulk dielectric constant

 Exchange correlation treatment:
   GGA     =    PE    GGA type
   LEXCH   =     8    internal setting for exchange type
   VOSKOWN=      0    Vosko Wilk Nusair interpolation
   LHFCALC =     F    Hartree Fock is set to
   LHFONE  =     F    Hartree Fock one center treatment
   AEXX    =    0.0000 exact exchange contribution

 Linear response parameters
   LEPSILON=     F    determine dielectric tensor
   LRPA    =     F    only Hartree local field effects (RPA)
   LNABLA  =     F    use nabla operator in PAW spheres
   LVEL    =     F    velocity operator in full k-point grid
   LINTERFAST=   F  fast interpolation
   KINTER  =     0    interpolate to denser k-point grid
   CSHIFT  =0.1000    complex shift for real part using Kramers Kronig
   OMEGAMAX=  -1.0    maximum frequency
   DEG_THRESHOLD= 0.2000000E-02 threshold for treating states as degnerate
   RTIME   =    0.100 relaxation time in fs

 Orbital magnetization related:
   ORBITALMAG=     F  switch on orbital magnetization
   LCHIMAG   =     F  perturbation theory with respect to B field
   DQ        =  0.001000  dq finite difference perturbation B field



--------------------------------------------------------------------------------------------------------


 quickmin algorithm: (dynamic with friction)
 charge density and potential will be updated during run
 non-spin polarized calculation
 Variant of blocked Davidson
 Davidson routine will perform the subspace rotation
 perform sub-space diagonalisation
    after iterative eigenvector-optimisation
 modified Broyden-mixing scheme, WC =      100.0
 initial mixing is a Kerker type mixing with AMIX =  0.4000 and BMIX =      1.0000
 Hartree-type preconditioning will be used
 using additional bands           12
 real space projection scheme for non local part
 use partial core corrections
 calculate Harris-corrections to forces 
   (improved forces if not selfconsistent)
 use gradient corrections 
 use of overlap-Matrix (Vanderbilt PP)
 Gauss-broadening in eV      SIGMA  =   0.20


--------------------------------------------------------------------------------------------------------


  energy-cutoff  :      400.00
  volume of cell :    27000.00
      direct lattice vectors                 reciprocal lattice vectors
    30.000000000  0.000000000  0.000000000     0.033333333  0.000000000  0.000000000
     0.000000000 30.000000000  0.000000000     0.000000000  0.033333333  0.000000000
     0.000000000  0.000000000 30.000000000     0.000000000  0.000000000  0.033333333

  length of vectors
    30.000000000 30.000000000 30.000000000     0.033333333  0.033333333  0.033333333


 
 k-points in units of 2pi/SCALE and weight: Mo2C                                    
   0.00833333  0.00833333  0.00833333       0.250
  -0.00833333  0.00833333  0.00833333       0.250
   0.00833333 -0.00833333  0.00833333       0.250
  -0.00833333 -0.00833333  0.00833333       0.250
 
 k-points in reciprocal lattice and weights: Mo2C                                    
   0.25000000  0.25000000  0.25000000       0.250
  -0.25000000  0.25000000  0.25000000       0.250
   0.25000000 -0.25000000  0.25000000       0.250
  -0.25000000 -0.25000000  0.25000000       0.250
 
 position of ions in fractional coordinates (direct lattice) 
   0.37456826  0.53804550  0.50353776
   0.38010073  0.48603707  0.47459482
   0.37871088  0.48710990  0.53387998
   0.44800783  0.44566746  0.49693965
   0.51952831  0.46483117  0.54354760
   0.56045908  0.41375819  0.49435562
   0.52190246  0.42098203  0.45068688
   0.50447513  0.39496783  0.50187474
   0.51457643  0.55121070  0.52032502
   0.61219399  0.56727655  0.51194252
   0.57910942  0.58390431  0.46548382
   0.56811589  0.60622133  0.51993247
   0.39040684  0.50504580  0.50402638
   0.44046078  0.51193460  0.50661054
   0.51355301  0.46640815  0.50719569
   0.52541538  0.42124051  0.48712774
   0.54707306  0.50192386  0.48942411
   0.57833963  0.57641265  0.50130816
   0.46551417  0.47459673  0.49996558
   0.54652646  0.54131488  0.51153029
   0.45588421  0.54956762  0.51475471
   0.57507900  0.49154622  0.46095105
 
 position of ions in cartesian coordinates  (Angst):
  11.23704777 16.14136492 15.10613289
  11.40302196 14.58111213 14.23784452
  11.36132625 14.61329708 16.01639947
  13.44023497 13.37002386 14.90818948
  15.58584935 13.94493512 16.30642796
  16.81377253 12.41274560 14.83066865
  15.65707376 12.62946089 13.52060654
  15.13425385 11.84903504 15.05624213
  15.43729290 16.53632088 15.60975048
  18.36581983 17.01829657 15.35827559
  17.37328264 17.51712941 13.96451453
  17.04347681 18.18663990 15.59797408
  11.71220509 15.15137401 15.12079142
  13.21382347 15.35803797 15.19831609
  15.40659031 13.99224447 15.21587063
  15.76246135 12.63721529 14.61383211
  16.41219180 15.05771581 14.68272344
  17.35018902 17.29237946 15.03924485
  13.96542518 14.23790178 14.99896729
  16.39579386 16.23944647 15.34590872
  13.67652621 16.48702872 15.44264125
  17.25236998 14.74638654 13.82853141
 


--------------------------------------------------------------------------------------------------------


 k-point  1 :   0.2500 0.2500 0.2500  plane waves:  490454
 k-point  2 :  -0.2500 0.2500 0.2500  plane waves:  490454
 k-point  3 :   0.2500-0.2500 0.2500  plane waves:  490454
 k-point  4 :  -0.2500-0.2500 0.2500  plane waves:  490454

 maximum and minimum number of plane-waves per node :    490454   490454

 maximum number of plane-waves:    490454
 maximum index in each direction: 
   IXMAX=   49   IYMAX=   49   IZMAX=   48
   IXMIN=  -49   IYMIN=  -49   IZMIN=  -49

 WARNING: aliasing errors must be expected set NGX to 198 to avoid them
 WARNING: aliasing errors must be expected set NGY to 198 to avoid them
 WARNING: aliasing errors must be expected set NGZ to 196 to avoid them
 aliasing errors are usually negligible using standard VASP settings
 and one can safely disregard these warnings

 serial   3D FFT for wavefunctions
 parallel 3D FFT for charge:
    minimum data exchange during FFTs selected (reduces bandwidth)


 total amount of memory used by VASP on root node  4333707. kBytes
========================================================================

   base      :      30000. kBytes
   nonlr-proj:       2402. kBytes
   fftplans  :     924480. kBytes
   grid      :    2089440. kBytes
   one-center:         67. kBytes
   wavefun   :    1287318. kBytes
 
     INWAV:  cpu time    0.0010: real time    0.0004
 Broyden mixing: mesh for mixing (old mesh)
   NGX = 97   NGY = 97   NGZ = 97
  (NGX  =300   NGY  =300   NGZ  =300)
  gives a total of 912673 points

 initial charge density was supplied:
 charge density of overlapping atoms calculated
 number of electron      58.0000000 magnetization 
 keeping initial charge density in first step


--------------------------------------------------------------------------------------------------------


 Maximum index for non-local projection operator         2276
 Maximum index for augmentation-charges         1578 (set IRDMAX)


--------------------------------------------------------------------------------------------------------


 First call to EWALD:  gamma=   0.059
 Maximum number of real-space cells 3x 3x 3
 Maximum number of reciprocal cells 3x 3x 3

 FEWALD executed in parallel
    FEWALD:  cpu time    0.0040: real time    0.0048


----------------------------------------- Iteration    1(   1)  ---------------------------------------


    POTLOK:  cpu time   25.9291: real time   25.9078
    SETDIJ:  cpu time    0.0290: real time    0.0290
     EDDAV:  cpu time  303.1249: real time  302.8787
       DOS:  cpu time    0.0010: real time    0.0009
    --------------------------------------------
      LOOP:  cpu time  329.0870: real time  328.8212

 eigenvalue-minimisations  :   392
 total energy-change (2. order) : 0.6074361E+03  (-0.7983015E+03)
 number of electron      58.0000000 magnetization 
 augmentation part       58.0000000 magnetization 

 Free energy of the ion-electron system (eV)
  ---------------------------------------------------
  alpha Z        PSCENC =         0.51957394
  Ewald energy   TEWEN  =      6052.95511305
  -Hartree energ DENC   =     -7796.16209249
  -exchange      EXHF   =         0.00000000
  -V(xc)+E(xc)   XCENC  =       202.04250941
  PAW double counting   =      1779.70502452    -1789.20730229
  entropy T*S    EENTRO =        -0.79522207
  eigenvalues    EBANDS =      -267.60479264
  atomic energy  EATOM  =      2425.98333211
  Solvation  Ediel_sol  =         0.00000000
  ---------------------------------------------------
  free energy    TOTEN  =       607.43614354 eV

  energy without entropy =      608.23136561  energy(sigma->0) =      607.83375457


--------------------------------------------------------------------------------------------------------




----------------------------------------- Iteration    1(   2)  ---------------------------------------


     EDDAV:  cpu time  418.9523: real time  418.6113
       DOS:  cpu time    0.0000: real time    0.0008
    --------------------------------------------
      LOOP:  cpu time  418.9543: real time  418.6156

 eigenvalue-minimisations  :   573
 total energy-change (2. order) :-0.3352302E+03  (-0.3240403E+03)
 number of electron      58.0000000 magnetization 
 augmentation part       58.0000000 magnetization 

 Free energy of the ion-electron system (eV)
  ---------------------------------------------------
  alpha Z        PSCENC =         0.51957394
  Ewald energy   TEWEN  =      6052.95511305
  -Hartree energ DENC   =     -7796.16209249
  -exchange      EXHF   =         0.00000000
  -V(xc)+E(xc)   XCENC  =       202.04250941
  PAW double counting   =      1779.70502452    -1789.20730229
  entropy T*S    EENTRO =        -0.40585014
  eigenvalues    EBANDS =      -603.22438951
  atomic energy  EATOM  =      2425.98333211
  Solvation  Ediel_sol  =         0.00000000
  ---------------------------------------------------
  free energy    TOTEN  =       272.20591860 eV

  energy without entropy =      272.61176874  energy(sigma->0) =      272.40884367


--------------------------------------------------------------------------------------------------------




----------------------------------------- Iteration    1(   3)  ---------------------------------------


     EDDAV:  cpu time  370.3227: real time  370.0210
       DOS:  cpu time    0.0000: real time    0.0006
    --------------------------------------------
      LOOP:  cpu time  370.3247: real time  370.0248

 eigenvalue-minimisations  :   496
 total energy-change (2. order) :-0.3170171E+03  (-0.3088389E+03)
 number of electron      58.0000000 magnetization 
 augmentation part       58.0000000 magnetization 

 Free energy of the ion-electron system (eV)
  ---------------------------------------------------
  alpha Z        PSCENC =         0.51957394
  Ewald energy   TEWEN  =      6052.95511305
  -Hartree energ DENC   =     -7796.16209249
  -exchange      EXHF   =         0.00000000
  -V(xc)+E(xc)   XCENC  =       202.04250941
  PAW double counting   =      1779.70502452    -1789.20730229
  entropy T*S    EENTRO =        -0.00020528
  eigenvalues    EBANDS =      -920.64712716
  atomic energy  EATOM  =      2425.98333211
  Solvation  Ediel_sol  =         0.00000000
  ---------------------------------------------------
  free energy    TOTEN  =       -44.81117420 eV

  energy without entropy =      -44.81096892  energy(sigma->0) =      -44.81107156


--------------------------------------------------------------------------------------------------------




----------------------------------------- Iteration    1(   4)  ---------------------------------------


     EDDAV:  cpu time  306.0955: real time  305.8464
       DOS:  cpu time    0.0000: real time    0.0005
    --------------------------------------------
      LOOP:  cpu time  306.0975: real time  305.8502

 eigenvalue-minimisations  :   397
 total energy-change (2. order) :-0.9132448E+02  (-0.9110629E+02)
 number of electron      58.0000000 magnetization 
 augmentation part       58.0000000 magnetization 

 Free energy of the ion-electron system (eV)
  ---------------------------------------------------
  alpha Z        PSCENC =         0.51957394
  Ewald energy   TEWEN  =      6052.95511305
  -Hartree energ DENC   =     -7796.16209249
  -exchange      EXHF   =         0.00000000
  -V(xc)+E(xc)   XCENC  =       202.04250941
  PAW double counting   =      1779.70502452    -1789.20730229
  entropy T*S    EENTRO =         0.00000000
  eigenvalues    EBANDS =     -1011.97181252
  atomic energy  EATOM  =      2425.98333211
  Solvation  Ediel_sol  =         0.00000000
  ---------------------------------------------------
  free energy    TOTEN  =      -136.13565428 eV

  energy without entropy =     -136.13565428  energy(sigma->0) =     -136.13565428


--------------------------------------------------------------------------------------------------------




----------------------------------------- Iteration    1(   5)  ---------------------------------------


     EDDAV:  cpu time  349.6798: real time  349.3938
       DOS:  cpu time    0.0000: real time    0.0005
    CHARGE:  cpu time   19.9660: real time   19.9497
    MIXING:  cpu time    0.6359: real time    0.6356
    --------------------------------------------
      LOOP:  cpu time  370.2817: real time  369.9826

 eigenvalue-minimisations  :   464
 total energy-change (2. order) :-0.5482081E+01  (-0.5469031E+01)
 number of electron      57.9999927 magnetization 
 augmentation part        2.9612743 magnetization 

 Broyden mixing:
  rms(total) = 0.19543E+01    rms(broyden)= 0.19519E+01
  rms(prec ) = 0.20295E+01
  weight for this iteration     100.00

 Free energy of the ion-electron system (eV)
  ---------------------------------------------------
  alpha Z        PSCENC =         0.51957394
  Ewald energy   TEWEN  =      6052.95511305
  -Hartree energ DENC   =     -7796.16209249
  -exchange      EXHF   =         0.00000000
  -V(xc)+E(xc)   XCENC  =       202.04250941
  PAW double counting   =      1779.70502452    -1789.20730229
  entropy T*S    EENTRO =         0.00000000
  eigenvalues    EBANDS =     -1017.45389365
  atomic energy  EATOM  =      2425.98333211
  Solvation  Ediel_sol  =         0.00000000
  ---------------------------------------------------
  free energy    TOTEN  =      -141.61773541 eV

  energy without entropy =     -141.61773541  energy(sigma->0) =     -141.61773541


--------------------------------------------------------------------------------------------------------




----------------------------------------- Iteration    1(   6)  ---------------------------------------


    POTLOK:  cpu time   22.9225: real time   22.9041
    SETDIJ:  cpu time    0.0290: real time    0.0291
     EDDAV:  cpu time  311.9146: real time  311.6587
       DOS:  cpu time    0.0000: real time    0.0005
    CHARGE:  cpu time   17.4993: real time   17.4850
    MIXING:  cpu time    0.6469: real time    0.6460
    --------------------------------------------
      LOOP:  cpu time  353.0143: real time  352.7274

 eigenvalue-minimisations  :   446
 total energy-change (2. order) : 0.1012837E+02  (-0.2377963E+01)
 number of electron      57.9999938 magnetization 
 augmentation part        2.6230291 magnetization 

 Broyden mixing:
  rms(total) = 0.99809E+00    rms(broyden)= 0.99762E+00
  rms(prec ) = 0.10262E+01
  weight for this iteration     100.00

 eigenvalues of (default mixing * dielectric matrix)
  average eigenvalue GAMMA=   1.2742
  1.2742

 Free energy of the ion-electron system (eV)
  ---------------------------------------------------
  alpha Z        PSCENC =         0.51957394
  Ewald energy   TEWEN  =      6052.95511305
  -Hartree energ DENC   =     -7910.89283804
  -exchange      EXHF   =         0.00000000
  -V(xc)+E(xc)   XCENC  =       208.09596673
  PAW double counting   =      2772.10158421    -2782.94613189
  entropy T*S    EENTRO =         0.00000000
  eigenvalues    EBANDS =      -897.30596389
  atomic energy  EATOM  =      2425.98333211
  Solvation  Ediel_sol  =         0.00000000
  ---------------------------------------------------
  free energy    TOTEN  =      -131.48936379 eV

  energy without entropy =     -131.48936379  energy(sigma->0) =     -131.48936379


--------------------------------------------------------------------------------------------------------




----------------------------------------- Iteration    1(   7)  ---------------------------------------


    POTLOK:  cpu time   19.7480: real time   19.7317
    SETDIJ:  cpu time    0.0300: real time    0.0292
     EDDAV:  cpu time  314.4512: real time  314.1956
       DOS:  cpu time    0.0000: real time    0.0005
    CHARGE:  cpu time   21.0038: real time   20.9870
    MIXING:  cpu time    0.7669: real time    0.7662
    --------------------------------------------
      LOOP:  cpu time  356.0029: real time  355.7142

 eigenvalue-minimisations  :   416
 total energy-change (2. order) : 0.1740502E+01  (-0.4575009E+00)
 number of electron      57.9999934 magnetization 
 augmentation part        2.6137035 magnetization 

 Broyden mixing:
  rms(total) = 0.51476E+00    rms(broyden)= 0.51464E+00
  rms(prec ) = 0.52745E+00
  weight for this iteration     100.00

 eigenvalues of (default mixing * dielectric matrix)
  average eigenvalue GAMMA=   1.5564
  1.0958  2.0169

 Free energy of the ion-electron system (eV)
  ---------------------------------------------------
  alpha Z        PSCENC =         0.51957394
  Ewald energy   TEWEN  =      6052.95511305
  -Hartree energ DENC   =     -7972.47841849
  -exchange      EXHF   =         0.00000000
  -V(xc)+E(xc)   XCENC  =       211.10182719
  PAW double counting   =      3733.21645655    -3744.32874927
  entropy T*S    EENTRO =         0.00000000
  eigenvalues    EBANDS =      -836.71799646
  atomic energy  EATOM  =      2425.98333211
  Solvation  Ediel_sol  =         0.00000000
  ---------------------------------------------------
  free energy    TOTEN  =      -129.74886137 eV

  energy without entropy =     -129.74886137  energy(sigma->0) =     -129.74886137


--------------------------------------------------------------------------------------------------------




----------------------------------------- Iteration    1(   8)  ---------------------------------------


    POTLOK:  cpu time   22.8755: real time   22.8569
    SETDIJ:  cpu time    0.0290: real time    0.0292
     EDDAV:  cpu time  318.5036: real time  318.2432
       DOS:  cpu time    0.0000: real time    0.0006
    CHARGE:  cpu time   20.6449: real time   20.6276
    MIXING:  cpu time    0.7659: real time    0.7656
    --------------------------------------------
      LOOP:  cpu time  362.8188: real time  362.5269

 eigenvalue-minimisations  :   432
 total energy-change (2. order) : 0.4851987E+00  (-0.8691274E-01)
 number of electron      57.9999936 magnetization 
 augmentation part        2.5841492 magnetization 

 Broyden mixing:
  rms(total) = 0.15694E+00    rms(broyden)= 0.15687E+00
  rms(prec ) = 0.16451E+00
  weight for this iteration     100.00

 eigenvalues of (default mixing * dielectric matrix)
  average eigenvalue GAMMA=   1.5390
  2.3871  0.9355  1.2946

 Free energy of the ion-electron system (eV)
  ---------------------------------------------------
  alpha Z        PSCENC =         0.51957394
  Ewald energy   TEWEN  =      6052.95511305
  -Hartree energ DENC   =     -8013.13795801
  -exchange      EXHF   =         0.00000000
  -V(xc)+E(xc)   XCENC  =       213.22011508
  PAW double counting   =      4545.18448676    -4556.48419056
  entropy T*S    EENTRO =         0.00000000
  eigenvalues    EBANDS =      -797.50413501
  atomic energy  EATOM  =      2425.98333211
  Solvation  Ediel_sol  =         0.00000000
  ---------------------------------------------------
  free energy    TOTEN  =      -129.26366263 eV

  energy without entropy =     -129.26366263  energy(sigma->0) =     -129.26366263


--------------------------------------------------------------------------------------------------------




----------------------------------------- Iteration    1(   9)  ---------------------------------------


    POTLOK:  cpu time   21.2498: real time   21.2326
    SETDIJ:  cpu time    0.0290: real time    0.0290
     EDDAV:  cpu time  333.2443: real time  332.9724
       DOS:  cpu time    0.0000: real time    0.0005
    CHARGE:  cpu time   20.8178: real time   20.8010
    MIXING:  cpu time    1.0138: real time    1.0128
    --------------------------------------------
      LOOP:  cpu time  376.3568: real time  376.0517

 eigenvalue-minimisations  :   464
 total energy-change (2. order) : 0.7065478E-01  (-0.1043813E-01)
 number of electron      57.9999936 magnetization 
 augmentation part        2.5765745 magnetization 

 Broyden mixing:
  rms(total) = 0.56879E-01    rms(broyden)= 0.56850E-01
  rms(prec ) = 0.65418E-01
  weight for this iteration     100.00

 eigenvalues of (default mixing * dielectric matrix)
  average eigenvalue GAMMA=   1.5095
  2.1958  1.0463  1.0463  1.7496

 Free energy of the ion-electron system (eV)
  ---------------------------------------------------
  alpha Z        PSCENC =         0.51957394
  Ewald energy   TEWEN  =      6052.95511305
  -Hartree energ DENC   =     -8027.07510784
  -exchange      EXHF   =         0.00000000
  -V(xc)+E(xc)   XCENC  =       213.79160919
  PAW double counting   =      4786.49306773    -4797.76351284
  entropy T*S    EENTRO =         0.00000000
  eigenvalues    EBANDS =      -784.09708318
  atomic energy  EATOM  =      2425.98333211
  Solvation  Ediel_sol  =         0.00000000
  ---------------------------------------------------
  free energy    TOTEN  =      -129.19300785 eV

  energy without entropy =     -129.19300785  energy(sigma->0) =     -129.19300785


--------------------------------------------------------------------------------------------------------




----------------------------------------- Iteration    1(  10)  ---------------------------------------


    POTLOK:  cpu time   22.7695: real time   22.7518
    SETDIJ:  cpu time    0.0290: real time    0.0285
     EDDAV:  cpu time  323.4428: real time  323.1787
       DOS:  cpu time    0.0010: real time    0.0005
    CHARGE:  cpu time   19.0141: real time   18.9989
    MIXING:  cpu time    0.9489: real time    0.9479
    --------------------------------------------
      LOOP:  cpu time  366.2073: real time  365.9435

 eigenvalue-minimisations  :   445
 total energy-change (2. order) : 0.1188990E-01  (-0.2573396E-02)
 number of electron      57.9999936 magnetization 
 augmentation part        2.5827187 magnetization 

 Broyden mixing:
  rms(total) = 0.26497E-01    rms(broyden)= 0.26474E-01
  rms(prec ) = 0.36404E-01
  weight for this iteration     100.00

 eigenvalues of (default mixing * dielectric matrix)
  average eigenvalue GAMMA=   1.4788
  2.1593  2.1593  0.9608  0.9608  1.1539

 Free energy of the ion-electron system (eV)
  ---------------------------------------------------
  alpha Z        PSCENC =         0.51957394
  Ewald energy   TEWEN  =      6052.95511305
  -Hartree energ DENC   =     -8032.05791353
  -exchange      EXHF   =         0.00000000
  -V(xc)+E(xc)   XCENC  =       213.80422240
  PAW double counting   =      4777.94593160    -4789.16774770
  entropy T*S    EENTRO =         0.00000000
  eigenvalues    EBANDS =      -779.16362982
  atomic energy  EATOM  =      2425.98333211
  Solvation  Ediel_sol  =         0.00000000
  ---------------------------------------------------
  free energy    TOTEN  =      -129.18111795 eV

  energy without entropy =     -129.18111795  energy(sigma->0) =     -129.18111795


--------------------------------------------------------------------------------------------------------




----------------------------------------- Iteration    1(  11)  ---------------------------------------


    POTLOK:  cpu time   20.6939: real time   20.6773
    SETDIJ:  cpu time    0.0290: real time    0.0286
     EDDAV:  cpu time  330.0028: real time  329.7347
       DOS:  cpu time    0.0000: real time    0.0005
    CHARGE:  cpu time   20.6729: real time   20.6564
    MIXING:  cpu time    1.0568: real time    1.0556
    --------------------------------------------
      LOOP:  cpu time  372.4574: real time  372.1568

 eigenvalue-minimisations  :   456
 total energy-change (2. order) : 0.6356114E-02  (-0.8183756E-03)
 number of electron      57.9999936 magnetization 
 augmentation part        2.5784385 magnetization 

 Broyden mixing:
  rms(total) = 0.16296E-01    rms(broyden)= 0.16289E-01
  rms(prec ) = 0.25103E-01
  weight for this iteration     100.00

 eigenvalues of (default mixing * dielectric matrix)
  average eigenvalue GAMMA=   1.5382
  2.4629  2.4629  0.9376  0.9376  1.2141  1.2141

 Free energy of the ion-electron system (eV)
  ---------------------------------------------------
  alpha Z        PSCENC =         0.51957394
  Ewald energy   TEWEN  =      6052.95511305
  -Hartree energ DENC   =     -8037.95359377
  -exchange      EXHF   =         0.00000000
  -V(xc)+E(xc)   XCENC  =       213.91197481
  PAW double counting   =      4782.19287180    -4793.41245912
  entropy T*S    EENTRO =         0.00000000
  eigenvalues    EBANDS =      -773.37157466
  atomic energy  EATOM  =      2425.98333211
  Solvation  Ediel_sol  =         0.00000000
  ---------------------------------------------------
  free energy    TOTEN  =      -129.17476184 eV

  energy without entropy =     -129.17476184  energy(sigma->0) =     -129.17476184


--------------------------------------------------------------------------------------------------------




----------------------------------------- Iteration    1(  12)  ---------------------------------------


    POTLOK:  cpu time   23.8384: real time   23.8197
    SETDIJ:  cpu time    0.0290: real time    0.0296
     EDDAV:  cpu time  327.5752: real time  327.3079
       DOS:  cpu time    0.0000: real time    0.0005
    CHARGE:  cpu time   17.8013: real time   17.7867
    MIXING:  cpu time    0.9819: real time    0.9813
    --------------------------------------------
      LOOP:  cpu time  370.2287: real time  369.9298

 eigenvalue-minimisations  :   448
 total energy-change (2. order) : 0.3954877E-03  (-0.5502865E-03)
 number of electron      57.9999936 magnetization 
 augmentation part        2.5779042 magnetization 

 Broyden mixing:
  rms(total) = 0.99037E-02    rms(broyden)= 0.98996E-02
  rms(prec ) = 0.16195E-01
  weight for this iteration     100.00

 eigenvalues of (default mixing * dielectric matrix)
  average eigenvalue GAMMA=   1.5899
  2.7220  2.7220  1.3289  1.2170  1.2170  0.9614  0.9614

 Free energy of the ion-electron system (eV)
  ---------------------------------------------------
  alpha Z        PSCENC =         0.51957394
  Ewald energy   TEWEN  =      6052.95511305
  -Hartree energ DENC   =     -8044.58540463
  -exchange      EXHF   =         0.00000000
  -V(xc)+E(xc)   XCENC  =       213.99730624
  PAW double counting   =      4777.85490764    -4789.06382099
  entropy T*S    EENTRO =         0.00000000
  eigenvalues    EBANDS =      -766.83537369
  atomic energy  EATOM  =      2425.98333211
  Solvation  Ediel_sol  =         0.00000000
  ---------------------------------------------------
  free energy    TOTEN  =      -129.17436635 eV

  energy without entropy =     -129.17436635  energy(sigma->0) =     -129.17436635


--------------------------------------------------------------------------------------------------------




----------------------------------------- Iteration    1(  13)  ---------------------------------------


    POTLOK:  cpu time   20.0639: real time   20.0478
    SETDIJ:  cpu time    0.0280: real time    0.0286
     EDDAV:  cpu time  312.8234: real time  312.5675
       DOS:  cpu time    0.0000: real time    0.0005
    CHARGE:  cpu time   18.9641: real time   18.9485
    MIXING:  cpu time    1.1218: real time    1.1207
    --------------------------------------------
      LOOP:  cpu time  353.0033: real time  352.7179

 eigenvalue-minimisations  :   432
 total energy-change (2. order) :-0.5848277E-02  (-0.4226780E-03)
 number of electron      57.9999936 magnetization 
 augmentation part        2.5767651 magnetization 

 Broyden mixing:
  rms(total) = 0.58474E-02    rms(broyden)= 0.58424E-02
  rms(prec ) = 0.96458E-02
  weight for this iteration     100.00

 eigenvalues of (default mixing * dielectric matrix)
  average eigenvalue GAMMA=   1.7095
  4.1040  2.4928  1.6430  1.4472  1.0232  1.0232  0.9712  0.9712

 Free energy of the ion-electron system (eV)
  ---------------------------------------------------
  alpha Z        PSCENC =         0.51957394
  Ewald energy   TEWEN  =      6052.95511305
  -Hartree energ DENC   =     -8050.35275778
  -exchange      EXHF   =         0.00000000
  -V(xc)+E(xc)   XCENC  =       214.06419325
  PAW double counting   =      4771.54068153    -4782.74815453
  entropy T*S    EENTRO =         0.00000000
  eigenvalues    EBANDS =      -761.14219619
  atomic energy  EATOM  =      2425.98333211
  Solvation  Ediel_sol  =         0.00000000
  ---------------------------------------------------
  free energy    TOTEN  =      -129.18021463 eV

  energy without entropy =     -129.18021463  energy(sigma->0) =     -129.18021463


--------------------------------------------------------------------------------------------------------




----------------------------------------- Iteration    1(  14)  ---------------------------------------


    POTLOK:  cpu time   22.4856: real time   22.4681
    SETDIJ:  cpu time    0.0290: real time    0.0289
     EDDAV:  cpu time  316.7548: real time  316.4958
       DOS:  cpu time    0.0000: real time    0.0005
    CHARGE:  cpu time   17.7583: real time   17.7440
    MIXING:  cpu time    1.0398: real time    1.0389
    --------------------------------------------
      LOOP:  cpu time  358.0696: real time  357.7807

 eigenvalue-minimisations  :   432
 total energy-change (2. order) :-0.6639579E-02  (-0.2044092E-03)
 number of electron      57.9999936 magnetization 
 augmentation part        2.5759568 magnetization 

 Broyden mixing:
  rms(total) = 0.38378E-02    rms(broyden)= 0.38336E-02
  rms(prec ) = 0.58459E-02
  weight for this iteration     100.00

 eigenvalues of (default mixing * dielectric matrix)
  average eigenvalue GAMMA=   1.8237
  5.0511  2.4445  2.1789  1.2903  1.2364  1.2364  1.0543  0.9605  0.9605

 Free energy of the ion-electron system (eV)
  ---------------------------------------------------
  alpha Z        PSCENC =         0.51957394
  Ewald energy   TEWEN  =      6052.95511305
  -Hartree energ DENC   =     -8054.13873069
  -exchange      EXHF   =         0.00000000
  -V(xc)+E(xc)   XCENC  =       214.09239700
  PAW double counting   =      4766.30470648    -4777.50977943
  entropy T*S    EENTRO =         0.00000000
  eigenvalues    EBANDS =      -757.39346667
  atomic energy  EATOM  =      2425.98333211
  Solvation  Ediel_sol  =         0.00000000
  ---------------------------------------------------
  free energy    TOTEN  =      -129.18685421 eV

  energy without entropy =     -129.18685421  energy(sigma->0) =     -129.18685421


--------------------------------------------------------------------------------------------------------




----------------------------------------- Iteration    1(  15)  ---------------------------------------


    POTLOK:  cpu time   19.8800: real time   19.8635
    SETDIJ:  cpu time    0.0290: real time    0.0285
     EDDAV:  cpu time  268.8691: real time  268.6507
       DOS:  cpu time    0.0000: real time    0.0005
    CHARGE:  cpu time   19.5330: real time   19.5164
    MIXING:  cpu time    1.4808: real time    1.4802
    --------------------------------------------
      LOOP:  cpu time  309.7939: real time  309.5441

 eigenvalue-minimisations  :   364
 total energy-change (2. order) :-0.7795096E-02  (-0.8433674E-04)
 number of electron      57.9999936 magnetization 
 augmentation part        2.5758300 magnetization 

 Broyden mixing:
  rms(total) = 0.24381E-02    rms(broyden)= 0.24362E-02
  rms(prec ) = 0.35535E-02
  weight for this iteration     100.00

 eigenvalues of (default mixing * dielectric matrix)
  average eigenvalue GAMMA=   1.9064
  5.6170  2.7519  2.3340  1.7929  1.4301  1.0199  1.0596  1.0596  0.9995  0.9995

 Free energy of the ion-electron system (eV)
  ---------------------------------------------------
  alpha Z        PSCENC =         0.51957394
  Ewald energy   TEWEN  =      6052.95511305
  -Hartree energ DENC   =     -8055.86786198
  -exchange      EXHF   =         0.00000000
  -V(xc)+E(xc)   XCENC  =       214.09137610
  PAW double counting   =      4765.45432308    -4776.65809680
  entropy T*S    EENTRO =         0.00000000
  eigenvalues    EBANDS =      -755.67240879
  atomic energy  EATOM  =      2425.98333211
  Solvation  Ediel_sol  =         0.00000000
  ---------------------------------------------------
  free energy    TOTEN  =      -129.19464930 eV

  energy without entropy =     -129.19464930  energy(sigma->0) =     -129.19464930


--------------------------------------------------------------------------------------------------------




----------------------------------------- Iteration    1(  16)  ---------------------------------------


    POTLOK:  cpu time   24.1443: real time   24.1255
    SETDIJ:  cpu time    0.0290: real time    0.0290
     EDDAV:  cpu time  323.0649: real time  322.8006
       DOS:  cpu time    0.0000: real time    0.0005
    CHARGE:  cpu time   18.2292: real time   18.2145
    MIXING:  cpu time    1.2658: real time    1.2646
    --------------------------------------------
      LOOP:  cpu time  366.7352: real time  366.4494

 eigenvalue-minimisations  :   428
 total energy-change (2. order) :-0.5881256E-02  (-0.4604519E-04)
 number of electron      57.9999936 magnetization 
 augmentation part        2.5757896 magnetization 

 Broyden mixing:
  rms(total) = 0.13361E-02    rms(broyden)= 0.13355E-02
  rms(prec ) = 0.20039E-02
  weight for this iteration     100.00

 eigenvalues of (default mixing * dielectric matrix)
  average eigenvalue GAMMA=   1.9462
  6.3191  3.1579  2.3393  1.9101  1.2968  1.2968  1.0368  1.0455  1.0455  0.9801
  0.9801

 Free energy of the ion-electron system (eV)
  ---------------------------------------------------
  alpha Z        PSCENC =         0.51957394
  Ewald energy   TEWEN  =      6052.95511305
  -Hartree energ DENC   =     -8056.51794961
  -exchange      EXHF   =         0.00000000
  -V(xc)+E(xc)   XCENC  =       214.08236891
  PAW double counting   =      4765.53226479    -4776.73572258
  entropy T*S    EENTRO =         0.00000000
  eigenvalues    EBANDS =      -755.01951116
  atomic energy  EATOM  =      2425.98333211
  Solvation  Ediel_sol  =         0.00000000
  ---------------------------------------------------
  free energy    TOTEN  =      -129.20053056 eV

  energy without entropy =     -129.20053056  energy(sigma->0) =     -129.20053056


--------------------------------------------------------------------------------------------------------




----------------------------------------- Iteration    1(  17)  ---------------------------------------


    POTLOK:  cpu time   20.6799: real time   20.6632
    SETDIJ:  cpu time    0.0290: real time    0.0292
     EDDAV:  cpu time  235.6392: real time  235.4452
       DOS:  cpu time    0.0000: real time    0.0006
    CHARGE:  cpu time   20.5379: real time   20.5214
    MIXING:  cpu time    1.4838: real time    1.4828
    --------------------------------------------
      LOOP:  cpu time  278.3707: real time  278.1467

 eigenvalue-minimisations  :   300
 total energy-change (2. order) :-0.2459864E-02  (-0.1125031E-04)
 number of electron      57.9999936 magnetization 
 augmentation part        2.5758094 magnetization 

 Broyden mixing:
  rms(total) = 0.90549E-03    rms(broyden)= 0.90515E-03
  rms(prec ) = 0.13327E-02
  weight for this iteration     100.00

 eigenvalues of (default mixing * dielectric matrix)
  average eigenvalue GAMMA=   2.0159
  6.9923  3.5913  2.2505  2.2505  1.5231  1.5231  1.0537  1.0537  1.0196  1.0196
  0.9565  0.9565

 Free energy of the ion-electron system (eV)
  ---------------------------------------------------
  alpha Z        PSCENC =         0.51957394
  Ewald energy   TEWEN  =      6052.95511305
  -Hartree energ DENC   =     -8056.82780475
  -exchange      EXHF   =         0.00000000
  -V(xc)+E(xc)   XCENC  =       214.07824913
  PAW double counting   =      4765.51594677    -4776.71917423
  entropy T*S    EENTRO =         0.00000000
  eigenvalues    EBANDS =      -754.70822643
  atomic energy  EATOM  =      2425.98333211
  Solvation  Ediel_sol  =         0.00000000
  ---------------------------------------------------
  free energy    TOTEN  =      -129.20299042 eV

  energy without entropy =     -129.20299042  energy(sigma->0) =     -129.20299042


--------------------------------------------------------------------------------------------------------




----------------------------------------- Iteration    1(  18)  ---------------------------------------


    POTLOK:  cpu time   21.5807: real time   21.5635
    SETDIJ:  cpu time    0.0290: real time    0.0290
     EDDAV:  cpu time  275.5331: real time  275.3096
       DOS:  cpu time    0.0000: real time    0.0005
    CHARGE:  cpu time   19.0911: real time   19.0752
    MIXING:  cpu time    1.4698: real time    1.4686
    --------------------------------------------
      LOOP:  cpu time  317.7067: real time  317.4541

 eigenvalue-minimisations  :   364
 total energy-change (2. order) :-0.1902682E-02  (-0.1283513E-04)
 number of electron      57.9999936 magnetization 
 augmentation part        2.5757518 magnetization 

 Broyden mixing:
  rms(total) = 0.53881E-03    rms(broyden)= 0.53860E-03
  rms(prec ) = 0.78107E-03
  weight for this iteration     100.00

 eigenvalues of (default mixing * dielectric matrix)
  average eigenvalue GAMMA=   2.0750
  7.5652  4.1195  2.3931  2.3931  1.7170  1.3616  1.3616  1.0614  1.0614  1.0164
  1.0164  0.9540  0.9540

 Free energy of the ion-electron system (eV)
  ---------------------------------------------------
  alpha Z        PSCENC =         0.51957394
  Ewald energy   TEWEN  =      6052.95511305
  -Hartree energ DENC   =     -8057.00953754
  -exchange      EXHF   =         0.00000000
  -V(xc)+E(xc)   XCENC  =       214.07522776
  PAW double counting   =      4765.74605809    -4776.94931872
  entropy T*S    EENTRO =         0.00000000
  eigenvalues    EBANDS =      -754.52534180
  atomic energy  EATOM  =      2425.98333211
  Solvation  Ediel_sol  =         0.00000000
  ---------------------------------------------------
  free energy    TOTEN  =      -129.20489310 eV

  energy without entropy =     -129.20489310  energy(sigma->0) =     -129.20489310


--------------------------------------------------------------------------------------------------------




----------------------------------------- Iteration    1(  19)  ---------------------------------------


    POTLOK:  cpu time   21.5827: real time   21.5653
    SETDIJ:  cpu time    0.0290: real time    0.0295
     EDDAV:  cpu time  227.4354: real time  227.2485
       DOS:  cpu time    0.0000: real time    0.0005
    CHARGE:  cpu time   16.8424: real time   16.8287
    MIXING:  cpu time    1.3378: real time    1.3359
    --------------------------------------------
      LOOP:  cpu time  267.2294: real time  267.0125

 eigenvalue-minimisations  :   302
 total energy-change (2. order) :-0.9755445E-03  (-0.5649190E-05)
 number of electron      57.9999936 magnetization 
 augmentation part        2.5757252 magnetization 

 Broyden mixing:
  rms(total) = 0.32340E-03    rms(broyden)= 0.32319E-03
  rms(prec ) = 0.46102E-03
  weight for this iteration     100.00

 eigenvalues of (default mixing * dielectric matrix)
  average eigenvalue GAMMA=   2.1304
  8.0584  4.7413  2.5787  2.5787  1.5906  1.5906  1.6253  1.0431  1.0431  0.9530
  1.0505  1.0505  0.9606  0.9606

 Free energy of the ion-electron system (eV)
  ---------------------------------------------------
  alpha Z        PSCENC =         0.51957394
  Ewald energy   TEWEN  =      6052.95511305
  -Hartree energ DENC   =     -8057.10068615
  -exchange      EXHF   =         0.00000000
  -V(xc)+E(xc)   XCENC  =       214.07443580
  PAW double counting   =      4765.98580980    -4777.18916714
  entropy T*S    EENTRO =         0.00000000
  eigenvalues    EBANDS =      -754.43428006
  atomic energy  EATOM  =      2425.98333211
  Solvation  Ediel_sol  =         0.00000000
  ---------------------------------------------------
  free energy    TOTEN  =      -129.20586865 eV

  energy without entropy =     -129.20586865  energy(sigma->0) =     -129.20586865


--------------------------------------------------------------------------------------------------------




----------------------------------------- Iteration    1(  20)  ---------------------------------------


    POTLOK:  cpu time   20.2169: real time   20.2003
    SETDIJ:  cpu time    0.0300: real time    0.0293
     EDDAV:  cpu time  271.0168: real time  270.7967
       DOS:  cpu time    0.0000: real time    0.0005
    CHARGE:  cpu time   18.6572: real time   18.6430
    MIXING:  cpu time    1.4978: real time    1.4954
    --------------------------------------------
      LOOP:  cpu time  311.4197: real time  311.1692

 eigenvalue-minimisations  :   356
 total energy-change (2. order) :-0.4389354E-03  (-0.1885444E-05)
 number of electron      57.9999936 magnetization 
 augmentation part        2.5757287 magnetization 

 Broyden mixing:
  rms(total) = 0.19183E-03    rms(broyden)= 0.19177E-03
  rms(prec ) = 0.27576E-03
  weight for this iteration     100.00

 eigenvalues of (default mixing * dielectric matrix)
  average eigenvalue GAMMA=   2.1542
  8.3260  5.1822  2.8302  2.5455  1.9153  1.7669  1.3058  1.3058  0.9791  1.0773
  1.0773  0.9618  0.9618  1.0391  1.0391

 Free energy of the ion-electron system (eV)
  ---------------------------------------------------
  alpha Z        PSCENC =         0.51957394
  Ewald energy   TEWEN  =      6052.95511305
  -Hartree energ DENC   =     -8057.12593512
  -exchange      EXHF   =         0.00000000
  -V(xc)+E(xc)   XCENC  =       214.07329938
  PAW double counting   =      4765.75790706    -4776.96122702
  entropy T*S    EENTRO =         0.00000000
  eigenvalues    EBANDS =      -754.40837097
  atomic energy  EATOM  =      2425.98333211
  Solvation  Ediel_sol  =         0.00000000
  ---------------------------------------------------
  free energy    TOTEN  =      -129.20630758 eV

  energy without entropy =     -129.20630758  energy(sigma->0) =     -129.20630758


--------------------------------------------------------------------------------------------------------




----------------------------------------- Iteration    1(  21)  ---------------------------------------


    POTLOK:  cpu time   21.7097: real time   21.6923
    SETDIJ:  cpu time    0.0290: real time    0.0292
     EDDAV:  cpu time  268.4492: real time  268.2300
       DOS:  cpu time    0.0000: real time    0.0005
    CHARGE:  cpu time   17.6733: real time   17.6591
    MIXING:  cpu time    1.5808: real time    1.5789
    --------------------------------------------
      LOOP:  cpu time  309.4430: real time  309.1945

 eigenvalue-minimisations  :   352
 total energy-change (2. order) :-0.2383532E-03  (-0.8848116E-06)
 number of electron      57.9999936 magnetization 
 augmentation part        2.5757168 magnetization 

 Broyden mixing:
  rms(total) = 0.12019E-03    rms(broyden)= 0.12012E-03
  rms(prec ) = 0.16759E-03
  weight for this iteration     100.00

 eigenvalues of (default mixing * dielectric matrix)
  average eigenvalue GAMMA=   2.2161
  8.4605  5.7619  3.3845  2.6237  2.3112  1.6268  1.6268  1.5284  1.0474  1.0474
  1.0932  1.0932  0.9667  0.9667  0.9592  0.9592

 Free energy of the ion-electron system (eV)
  ---------------------------------------------------
  alpha Z        PSCENC =         0.51957394
  Ewald energy   TEWEN  =      6052.95511305
  -Hartree energ DENC   =     -8057.13979326
  -exchange      EXHF   =         0.00000000
  -V(xc)+E(xc)   XCENC  =       214.07303111
  PAW double counting   =      4765.76236369    -4776.96569393
  entropy T*S    EENTRO =         0.00000000
  eigenvalues    EBANDS =      -754.39447265
  atomic energy  EATOM  =      2425.98333211
  Solvation  Ediel_sol  =         0.00000000
  ---------------------------------------------------
  free energy    TOTEN  =      -129.20654594 eV

  energy without entropy =     -129.20654594  energy(sigma->0) =     -129.20654594


--------------------------------------------------------------------------------------------------------




----------------------------------------- Iteration    1(  22)  ---------------------------------------


    POTLOK:  cpu time   20.6299: real time   20.6130
    SETDIJ:  cpu time    0.0290: real time    0.0289
     EDDAV:  cpu time  250.3819: real time  250.1775
       DOS:  cpu time    0.0000: real time    0.0005
    CHARGE:  cpu time   19.0661: real time   19.0509
    MIXING:  cpu time    1.7307: real time    1.7289
    --------------------------------------------
      LOOP:  cpu time  291.8396: real time  291.6038

 eigenvalue-minimisations  :   348
 total energy-change (2. order) :-0.1336839E-03  (-0.3849290E-06)
 number of electron      57.9999936 magnetization 
 augmentation part        2.5757207 magnetization 

 Broyden mixing:
  rms(total) = 0.83680E-04    rms(broyden)= 0.83637E-04
  rms(prec ) = 0.10468E-03
  weight for this iteration     100.00

 eigenvalues of (default mixing * dielectric matrix)
  average eigenvalue GAMMA=   2.2115
  8.5472  6.1512  3.6461  2.4797  2.4797  1.7467  1.7467  1.3023  1.3023  1.0394
  1.0394  1.1408  1.1408  0.9585  0.9585  0.9578  0.9578

 Free energy of the ion-electron system (eV)
  ---------------------------------------------------
  alpha Z        PSCENC =         0.51957394
  Ewald energy   TEWEN  =      6052.95511305
  -Hartree energ DENC   =     -8057.15407198
  -exchange      EXHF   =         0.00000000
  -V(xc)+E(xc)   XCENC  =       214.07281644
  PAW double counting   =      4765.70139837    -4776.90472671
  entropy T*S    EENTRO =         0.00000000
  eigenvalues    EBANDS =      -754.38011483
  atomic energy  EATOM  =      2425.98333211
  Solvation  Ediel_sol  =         0.00000000
  ---------------------------------------------------
  free energy    TOTEN  =      -129.20667962 eV

  energy without entropy =     -129.20667962  energy(sigma->0) =     -129.20667962


--------------------------------------------------------------------------------------------------------




----------------------------------------- Iteration    1(  23)  ---------------------------------------


    POTLOK:  cpu time   21.5437: real time   21.5252
    SETDIJ:  cpu time    0.0280: real time    0.0288
     EDDAV:  cpu time  275.6351: real time  275.4096
       DOS:  cpu time    0.0000: real time    0.0005
    --------------------------------------------
      LOOP:  cpu time  297.2088: real time  296.9690

 eigenvalue-minimisations  :   368
 total energy-change (2. order) :-0.4127104E-04  (-0.9962684E-07)
 number of electron      57.9999936 magnetization 
 augmentation part        2.5757207 magnetization 

 Free energy of the ion-electron system (eV)
  ---------------------------------------------------
  alpha Z        PSCENC =         0.51957394
  Ewald energy   TEWEN  =      6052.95511305
  -Hartree energ DENC   =     -8057.16277544
  -exchange      EXHF   =         0.00000000
  -V(xc)+E(xc)   XCENC  =       214.07280312
  PAW double counting   =      4765.72813137    -4776.93145675
  entropy T*S    EENTRO =         0.00000000
  eigenvalues    EBANDS =      -754.37144229
  atomic energy  EATOM  =      2425.98333211
  Solvation  Ediel_sol  =         0.00000000
  ---------------------------------------------------
  free energy    TOTEN  =      -129.20672089 eV

  energy without entropy =     -129.20672089  energy(sigma->0) =     -129.20672089


--------------------------------------------------------------------------------------------------------




 average (electrostatic) potential at core
  the test charge radii are     0.5201  0.6991  0.7089  0.7215
  (the norm of the test charge is              1.0000)
       1 -42.2697       2 -42.5841       3 -42.5648       4 -44.7349       5 -42.3036
       6 -41.8578       7 -41.8079       8 -42.0989       9 -43.0914      10 -41.7173
      11 -41.6272      12 -41.9069      13 -59.0822      14 -61.5427      15 -60.0483
      16 -58.6392      17 -60.7967      18 -59.0092      19 -74.7848      20 -73.6882
      21 -80.0466      22 -79.3804
 
 
 
 E-fermi :  -4.5118     XC(G=0):  -0.1528     alpha+bet : -0.0465


 k-point     1 :       0.2500    0.2500    0.2500
  band No.  band energies     occupation 
      1     -26.2273      2.00000
      2     -25.5725      2.00000
      3     -23.4942      2.00000
      4     -22.5871      2.00000
      5     -19.6231      2.00000
      6     -18.2420      2.00000
      7     -17.4336      2.00000
      8     -15.7704      2.00000
      9     -15.0069      2.00000
     10     -13.7108      2.00000
     11     -12.7892      2.00000
     12     -12.5735      2.00000
     13     -12.0417      2.00000
     14     -11.3557      2.00000
     15     -11.1190      2.00000
     16     -10.6299      2.00000
     17     -10.1879      2.00000
     18     -10.0983      2.00000
     19     -10.0215      2.00000
     20      -9.5990      2.00000
     21      -9.2578      2.00000
     22      -9.1520      2.00000
     23      -9.0089      2.00000
     24      -8.7052      2.00000
     25      -8.6044      2.00000
     26      -6.7788      2.00000
     27      -6.3569      2.00000
     28      -5.7950      2.00000
     29      -5.4433      2.00000
     30      -1.1352      0.00000
     31      -1.0749      0.00000
     32      -0.6487      0.00000
     33      -0.2753      0.00000
     34      -0.1970      0.00000
     35      -0.0404      0.00000
     36       0.0104      0.00000
     37       0.0915      0.00000
     38       0.1051      0.00000
     39       0.1138      0.00000
     40       0.1565      0.00000
     41       0.1689      0.00000

 k-point     2 :      -0.2500    0.2500    0.2500
  band No.  band energies     occupation 
      1     -26.2273      2.00000
      2     -25.5725      2.00000
      3     -23.4942      2.00000
      4     -22.5871      2.00000
      5     -19.6231      2.00000
      6     -18.2420      2.00000
      7     -17.4336      2.00000
      8     -15.7704      2.00000
      9     -15.0069      2.00000
     10     -13.7108      2.00000
     11     -12.7892      2.00000
     12     -12.5735      2.00000
     13     -12.0417      2.00000
     14     -11.3557      2.00000
     15     -11.1190      2.00000
     16     -10.6299      2.00000
     17     -10.1879      2.00000
     18     -10.0983      2.00000
     19     -10.0214      2.00000
     20      -9.5990      2.00000
     21      -9.2578      2.00000
     22      -9.1520      2.00000
     23      -9.0089      2.00000
     24      -8.7052      2.00000
     25      -8.6044      2.00000
     26      -6.7788      2.00000
     27      -6.3569      2.00000
     28      -5.7950      2.00000
     29      -5.4433      2.00000
     30      -1.1352      0.00000
     31      -1.0749      0.00000
     32      -0.6487      0.00000
     33      -0.2753      0.00000
     34      -0.1970      0.00000
     35      -0.0419      0.00000
     36       0.0162      0.00000
     37       0.0810      0.00000
     38       0.1002      0.00000
     39       0.1176      0.00000
     40       0.1557      0.00000
     41       0.1762      0.00000

 k-point     3 :       0.2500   -0.2500    0.2500
  band No.  band energies     occupation 
      1     -26.2273      2.00000
      2     -25.5725      2.00000
      3     -23.4942      2.00000
      4     -22.5871      2.00000
      5     -19.6231      2.00000
      6     -18.2420      2.00000
      7     -17.4336      2.00000
      8     -15.7704      2.00000
      9     -15.0069      2.00000
[...]
 augmentation part        2.5810737 magnetization 

 Free energy of the ion-electron system (eV)
  ---------------------------------------------------
  alpha Z        PSCENC =         0.51957394
  Ewald energy   TEWEN  =      6050.94689216
  -Hartree energ DENC   =     -8054.19277641
  -exchange      EXHF   =         0.00000000
  -V(xc)+E(xc)   XCENC  =       214.11100641
  PAW double counting   =      4779.07389633    -4790.28954965
  entropy T*S    EENTRO =         0.00000000
  eigenvalues    EBANDS =      -755.59024423
  atomic energy  EATOM  =      2425.98333211
  Solvation  Ediel_sol  =         0.00000000
  ---------------------------------------------------
  free energy    TOTEN  =      -129.43786934 eV

  energy without entropy =     -129.43786934  energy(sigma->0) =     -129.43786934


--------------------------------------------------------------------------------------------------------




 average (electrostatic) potential at core
  the test charge radii are     0.5201  0.6991  0.7089  0.7215
  (the norm of the test charge is              1.0000)
       1 -42.3759       2 -42.5869       3 -42.5535       4 -44.7445       5 -42.3489
       6 -41.8299       7 -41.9175       8 -42.0818       9 -43.2482      10 -41.6980
      11 -41.6926      12 -41.9999      13 -59.1195      14 -61.5041      15 -60.0420
      16 -58.6595      17 -60.7543      18 -59.0942      19 -74.7821      20 -73.8581
      21 -80.0113      22 -79.2791
 
 
 
 E-fermi :  -4.4966     XC(G=0):  -0.1322     alpha+bet : -0.0465


 k-point     1 :       0.2500    0.2500    0.2500
  band No.  band energies     occupation 
      1     -26.2293      2.00000
      2     -25.5273      2.00000
      3     -23.5089      2.00000
      4     -22.6156      2.00000
      5     -19.6333      2.00000
      6     -18.2430      2.00000
      7     -17.4906      2.00000
      8     -15.7997      2.00000
      9     -14.9624      2.00000
     10     -13.9404      2.00000
     11     -12.9752      2.00000
     12     -12.5157      2.00000
     13     -12.0671      2.00000
     14     -11.3133      2.00000
     15     -11.1356      2.00000
     16     -10.6654      2.00000
     17     -10.2234      2.00000
     18     -10.1002      2.00000
     19     -10.0189      2.00000
     20      -9.5630      2.00000
     21      -9.3355      2.00000
     22      -9.1647      2.00000
     23      -9.0639      2.00000
     24      -8.8139      2.00000
     25      -8.5220      2.00000
     26      -6.8422      2.00000
     27      -6.2898      2.00000
     28      -5.7941      2.00000
     29      -5.4409      2.00000
     30      -1.1127      0.00000
     31      -0.9619      0.00000
     32      -0.4949      0.00000
     33      -0.2670      0.00000
     34      -0.1937      0.00000
     35      -0.0655      0.00000
     36       0.0359      0.00000
     37       0.1224      0.00000
     38       0.1271      0.00000
     39       0.1309      0.00000
     40       0.1745      0.00000
     41       0.1921      0.00000

 k-point     2 :      -0.2500    0.2500    0.2500
  band No.  band energies     occupation 
      1     -26.2293      2.00000
      2     -25.5273      2.00000
      3     -23.5089      2.00000
      4     -22.6156      2.00000
      5     -19.6333      2.00000
      6     -18.2430      2.00000
      7     -17.4906      2.00000
      8     -15.7997      2.00000
      9     -14.9624      2.00000
     10     -13.9404      2.00000
     11     -12.9752      2.00000
     12     -12.5157      2.00000
     13     -12.0671      2.00000
     14     -11.3133      2.00000
     15     -11.1355      2.00000
     16     -10.6654      2.00000
     17     -10.2234      2.00000
     18     -10.1002      2.00000
     19     -10.0189      2.00000
     20      -9.5629      2.00000
     21      -9.3355      2.00000
     22      -9.1647      2.00000
     23      -9.0639      2.00000
     24      -8.8139      2.00000
     25      -8.5220      2.00000
     26      -6.8422      2.00000
     27      -6.2898      2.00000
     28      -5.7941      2.00000
     29      -5.4409      2.00000
     30      -1.1128      0.00000
     31      -0.9619      0.00000
     32      -0.4949      0.00000
     33      -0.2670      0.00000
     34      -0.1938      0.00000
     35      -0.0656      0.00000
     36       0.0411      0.00000
     37       0.1030      0.00000
     38       0.1223      0.00000
     39       0.1395      0.00000
     40       0.1785      0.00000
     41       0.1958      0.00000

 k-point     3 :       0.2500   -0.2500    0.2500
  band No.  band energies     occupation 
      1     -26.2293      2.00000
      2     -25.5273      2.00000
      3     -23.5089      2.00000
      4     -22.6156      2.00000
      5     -19.6333      2.00000
      6     -18.2430      2.00000
      7     -17.4906      2.00000
      8     -15.7997      2.00000
      9     -14.9624      2.00000
     10     -13.9404      2.00000
     11     -12.9752      2.00000
     12     -12.5157      2.00000
     13     -12.0671      2.00000
     14     -11.3133      2.00000
     15     -11.1356      2.00000
     16     -10.6654      2.00000
     17     -10.2234      2.00000
     18     -10.1002      2.00000
     19     -10.0189      2.00000
     20      -9.5629      2.00000
     21      -9.3355      2.00000
     22      -9.1647      2.00000
     23      -9.0639      2.00000
     24      -8.8139      2.00000
     25      -8.5220      2.00000
     26      -6.8422      2.00000
     27      -6.2898      2.00000
     28      -5.7941      2.00000
     29      -5.4409      2.00000
     30      -1.1127      0.00000
     31      -0.9619      0.00000
     32      -0.4949      0.00000
     33      -0.2670      0.00000
     34      -0.1938      0.00000
     35      -0.0657      0.00000
     36       0.0420      0.00000
     37       0.0975      0.00000
     38       0.1287      0.00000
     39       0.1394      0.00000
     40       0.1795      0.00000
     41       0.1943      0.00000

 k-point     4 :      -0.2500   -0.2500    0.2500
  band No.  band energies     occupation 
      1     -26.2293      2.00000
      2     -25.5273      2.00000
      3     -23.5089      2.00000
      4     -22.6156      2.00000
      5     -19.6333      2.00000
      6     -18.2430      2.00000
      7     -17.4906      2.00000
      8     -15.7997      2.00000
      9     -14.9624      2.00000
     10     -13.9404      2.00000
     11     -12.9752      2.00000
     12     -12.5157      2.00000
     13     -12.0671      2.00000
     14     -11.3133      2.00000
     15     -11.1356      2.00000
     16     -10.6654      2.00000
     17     -10.2234      2.00000
     18     -10.1002      2.00000
     19     -10.0189      2.00000
     20      -9.5629      2.00000
     21      -9.3355      2.00000
     22      -9.1647      2.00000
     23      -9.0639      2.00000
     24      -8.8139      2.00000
     25      -8.5220      2.00000
     26      -6.8422      2.00000
     27      -6.2898      2.00000
     28      -5.7941      2.00000
     29      -5.4409      2.00000
     30      -1.1128      0.00000
     31      -0.9619      0.00000
     32      -0.4949      0.00000
     33      -0.2670      0.00000
     34      -0.1937      0.00000
     35      -0.0665      0.00000
     36       0.0444      0.00000
     37       0.1023      0.00000
     38       0.1273      0.00000
     39       0.1374      0.00000
     40       0.1667      0.00000
     41       0.1962      0.00000


--------------------------------------------------------------------------------------------------------


 soft charge-density along one line, spin component           1
         0         1         2         3         4         5         6         7         8         9
 total charge-density along one line
 
 pseudopotential strength for first ion, spin component:           1
 -2.353  -4.057   0.002   0.000  -0.001
 -4.057  -6.908   0.005  -0.001  -0.002
  0.002   0.005  -0.332  -0.001  -0.002
  0.000  -0.001  -0.001  -0.336   0.000
 -0.001  -0.002  -0.002   0.000  -0.335
 total augmentation occupancy for first ion, spin component:           1
  3.522  -0.634  -0.396   0.058   0.184
 -0.634   0.129   0.073  -0.011  -0.033
 -0.396   0.073   0.046  -0.006  -0.018
  0.058  -0.011  -0.006   0.010   0.002
  0.184  -0.033  -0.018   0.002   0.016


------------------------ aborting loop because EDIFF is reached ----------------------------------------


    CHARGE:  cpu time   16.5205: real time   16.5068
    FORLOC:  cpu time    5.7871: real time    5.7827
    FORNL :  cpu time   60.3698: real time   60.3195
    STRESS:  cpu time  182.0933: real time  181.9402
    FORCOR:  cpu time   23.5454: real time   23.5254
    FORHAR:  cpu time   10.4594: real time   10.4502
    MIXING:  cpu time    0.7459: real time    0.7460
    OFIELD:  cpu time    0.0000: real time    0.0000

  FORCE on cell =-STRESS in cart. coord.  units (eV):
  Direction    XX          YY          ZZ          XY          YZ          ZX
  --------------------------------------------------------------------------------------
  Alpha Z     0.51957     0.51957     0.51957
  Ewald    3241.25187  2516.24131   293.45257   169.69595   668.67992  -547.10921
  Hartree  3703.45849  3022.78667  1327.94195   145.85331   434.93426  -431.13119
  E(xc)    -229.55722  -229.79896  -231.75847     0.02654     1.13233    -0.58352
  Local   -7543.18854 -6137.56555 -2247.74895  -316.97026 -1073.74657   968.02773
  n-local  -133.08908  -133.20485  -133.40115     0.47852    -1.45633     1.28600
  augment    14.51364    14.59633    14.27950    -0.04315    -0.69148     0.12952
  Kinetic   942.24010   942.93496   973.14488     0.77631   -28.62553     9.24956
  Fock        0.00000     0.00000     0.00000     0.00000     0.00000     0.00000
  -------------------------------------------------------------------------------------
  Total      -3.85117    -3.49053    -3.57010    -0.18277     0.22659    -0.13111
  in kB      -0.22853    -0.20713    -0.21185    -0.01085     0.01345    -0.00778
  external pressure =       -0.22 kB  Pullay stress =        0.00 kB


 VOLUME and BASIS-vectors are now :
 -----------------------------------------------------------------------------
  energy-cutoff  :      400.00
  volume of cell :    27000.00
      direct lattice vectors                 reciprocal lattice vectors
    30.000000000  0.000000000  0.000000000     0.033333333  0.000000000  0.000000000
     0.000000000 30.000000000  0.000000000     0.000000000  0.033333333  0.000000000
     0.000000000  0.000000000 30.000000000     0.000000000  0.000000000  0.033333333

  length of vectors
    30.000000000 30.000000000 30.000000000     0.033333333  0.033333333  0.033333333


 FORCES acting on ions
    electron-ion (+dipol)            ewald-force                    non-local-force                 convergence-correction
 -----------------------------------------------------------------------------------------------
   0.623E+02 -.578E+02 0.138E+02   -.646E+02 0.629E+02 -.145E+02   0.236E+01 -.507E+01 0.739E+00   0.523E-04 0.840E-04 -.142E-04
   0.520E+02 0.359E+02 0.550E+02   -.533E+02 -.391E+02 -.594E+02   0.123E+01 0.316E+01 0.433E+01   0.195E-04 0.926E-04 -.608E-05
   0.624E+02 0.280E+02 -.522E+02   -.648E+02 -.302E+02 0.566E+02   0.234E+01 0.221E+01 -.444E+01   0.279E-04 0.935E-04 -.279E-04
   0.599E+02 0.815E+02 0.498E+02   -.634E+02 -.870E+02 -.532E+02   0.357E+01 0.560E+01 0.334E+01   -.593E-04 0.114E-03 -.132E-04
   -.144E+02 0.280E+02 -.945E+02   0.149E+02 -.282E+02 0.100E+03   -.506E+00 0.208E+00 -.554E+01   -.121E-03 0.127E-03 -.543E-05
   -.662E+02 0.596E+02 -.932E+01   0.716E+02 -.610E+02 0.103E+02   -.544E+01 0.138E+01 -.911E+00   -.159E-03 0.547E-04 -.175E-04
   0.205E+01 0.401E+02 0.792E+02   -.251E+01 -.400E+02 -.847E+02   0.466E+00 -.129E+00 0.550E+01   -.126E-03 0.762E-04 -.196E-04
   0.295E+02 0.822E+02 -.200E+02   -.327E+02 -.861E+02 0.221E+02   0.321E+01 0.390E+01 -.206E+01   -.992E-04 0.669E-04 -.201E-04
   0.365E+02 -.558E+02 -.442E+02   -.426E+02 0.573E+02 0.474E+02   0.615E+01 -.155E+01 -.322E+01   -.277E-04 0.137E-03 -.412E-04
   -.824E+02 -.139E+02 -.264E+02   0.874E+02 0.123E+02 0.284E+02   -.499E+01 0.162E+01 -.196E+01   -.167E-03 0.165E-03 0.603E-05
   -.286E+02 -.449E+02 0.688E+02   0.293E+02 0.458E+02 -.742E+02   -.712E+00 -.940E+00 0.545E+01   -.148E-03 0.131E-03 0.123E-04
   -.366E+01 -.824E+02 -.281E+02   0.215E+01 0.872E+02 0.306E+02   0.150E+01 -.482E+01 -.253E+01   -.129E-03 0.872E-04 -.106E-04
   0.224E+03 0.492E+01 0.238E+02   -.224E+03 -.422E+01 -.242E+02   0.798E+00 -.689E+00 0.384E+00   0.679E-04 0.377E-03 -.624E-04
   0.174E+03 0.963E+01 0.134E+02   -.179E+03 -.978E+01 -.140E+02   0.492E+01 0.140E+00 0.613E+00   -.181E-03 0.380E-03 -.126E-03
   -.346E+02 0.110E+03 -.834E+02   0.400E+02 -.111E+03 0.844E+02   -.544E+01 0.124E+01 -.100E+01   -.518E-03 0.491E-03 -.161E-04
   -.377E+02 0.230E+03 0.402E+02   0.389E+02 -.231E+03 -.407E+02   -.115E+01 0.873E+00 0.536E+00   -.538E-03 0.343E-03 -.575E-04
   -.223E+02 0.193E+02 -.407E+01   0.193E+02 -.219E+02 0.464E+01   0.305E+01 0.254E+01 -.599E+00   -.571E-03 0.773E-03 0.434E-04
   -.142E+03 -.196E+03 0.119E+02   0.146E+03 0.200E+03 -.131E+02   -.397E+01 -.329E+01 0.119E+01   -.666E-03 0.476E-03 0.417E-04
   0.112E+03 0.137E+03 0.913E+02   -.108E+03 -.134E+03 -.953E+02   -.374E+01 -.219E+01 0.398E+01   -.362E-03 0.583E-03 -.889E-04
   -.279E+02 -.191E+03 -.695E+02   0.259E+02 0.193E+03 0.725E+02   0.205E+01 -.277E+01 -.300E+01   -.655E-03 0.919E-03 0.226E-04
   0.728E+02 -.316E+03 -.236E+03   -.588E+02 0.357E+03 0.264E+03   -.140E+02 -.414E+02 -.271E+02   -.185E-03 0.822E-03 -.766E-04
   -.376E+03 0.115E+03 0.220E+03   0.419E+03 -.132E+03 -.247E+03   -.423E+02 0.163E+02 0.274E+02   -.106E-02 0.972E-03 0.192E-03
 -----------------------------------------------------------------------------------------------
   0.507E+02 0.237E+02 -.107E+01   -.568E-13 0.284E-13 0.000E+00   -.507E+02 -.237E+02 0.109E+01   -.560E-02 0.737E-02 -.286E-03
 
 
 POSITION                                       TOTAL-FORCE (eV/Angst)
 -----------------------------------------------------------------------------------
     11.28163     16.12862     14.97959         0.024403      0.016625     -0.006202
     11.51866     14.50046     14.26590         0.001763      0.008471     -0.002474
     11.28022     14.69239     16.02172        -0.016589      0.015624     -0.002662
     13.51501     13.54256     14.45460         0.011840      0.014910     -0.101258
     15.50628     13.96130     16.33272        -0.021638      0.017444      0.004428
     16.76522     12.35908     14.83175         0.002747     -0.009575      0.026463
     15.60240     12.66505     13.54110         0.013659     -0.023463      0.008517
     15.05884     11.86446     15.05354         0.000477     -0.004354      0.021343
     15.41161     16.52918     15.64076        -0.003177     -0.002811      0.023338
     18.28277     17.00521     15.32138        -0.005781      0.002755     -0.014317
     17.43517     17.51234     13.84720        -0.015267      0.001532     -0.017498
     16.99835     18.24891     15.42054        -0.014295      0.003259     -0.009563
     11.73994     15.14414     15.12894         0.007694      0.009298      0.001400
     13.22407     15.30899     15.39087         0.005179     -0.013481      0.023269
     15.41284     14.00106     15.23124        -0.001396     -0.000573     -0.003672
     15.72403     12.63418     14.63430         0.004993     -0.010863      0.012553
     16.48265     15.03276     14.75411         0.031429     -0.015254     -0.025727
     17.30589     17.32071     14.92360        -0.007971      0.002155     -0.010360
     14.00860     14.30786     14.90616         0.000995      0.006735     -0.035564
     16.30296     16.30258     15.17292        -0.015743      0.005094     -0.007886
     13.66502     16.28039     16.02979         0.008105     -0.029366      0.106263
     17.47788     14.65779     14.11717        -0.011428      0.005836      0.009611
 -----------------------------------------------------------------------------------
    total drift:                                0.000921     -0.018466      0.022900


--------------------------------------------------------------------------------------------------------



  FREE ENERGIE OF THE ION-ELECTRON SYSTEM (eV)
  ---------------------------------------------------
  free  energy   TOTEN  =      -129.43786934 eV

  energy  without entropy=     -129.43786934  energy(sigma->0) =     -129.43786934
 
 d Force = 0.7105735E-05[ 0.619E-05, 0.802E-05]  d Energy = 0.4558111E-04-0.385E-04
 d Force =-0.1185658E-01[-0.119E-01,-0.119E-01]  d Ewald  =-0.1185658E-01-0.467E-09


--------------------------------------------------------------------------------------------------------


    POTLOK:  cpu time   19.5470: real time   19.5309


--------------------------------------------------------------------------------------------------------


 NEB: the previous image is higher in energy: F
 NEB: the next image is higher in energy    : T
 NEB: only next energy greater

 NEB: Tangent
 ----------------------------------------------
     -0.05950     -0.06117     -0.02169
     -0.01964     -0.09327      0.08015
      0.06246      0.01423      0.07182
     -0.04421     -0.08311      0.41467
      0.08881     -0.16749      0.00876
     -0.03159      0.01704     -0.21406
     -0.10334      0.16429     -0.10932
     -0.02362      0.01047     -0.18294
     -0.07676      0.05237     -0.23473
     -0.04850      0.03175      0.17413
      0.15978     -0.08878      0.04510
     -0.04187      0.02479     -0.09445
     -0.00824     -0.02615      0.02170
     -0.00429      0.06572     -0.09675
      0.02152     -0.02487      0.03331
     -0.03459      0.04586     -0.13185
      0.05068     -0.01654      0.13526
      0.01810     -0.00704      0.02670
     -0.00701     -0.01600      0.16226
     -0.01093      0.00972     -0.03384
     -0.03111      0.20733     -0.42582
      0.14386     -0.05923      0.37166

 NEB: forces: par spring, perp REAL, dneb     0.068816    0.118303    0.000000
 NEB: distance to prev, next image, angle between     1.286110    1.299873  148.175039
 NEB: projections on to tangent (spring, REAL)     0.068816   -0.141655

 stress matrix after NEB project (eV)
     -3.85117     -0.18277     -0.13111
     -0.18277     -3.49053      0.22659
     -0.13111      0.22659     -3.57010
  FORCES: max atom, RMS     0.090079    0.029179
  FORCE total and by dimension    0.136862    0.087835
  Stress total and by dimension    6.321770    3.851167
 OPT: skip step - force has converged


--------------------------------------------------------------------------------------------------------


  
 reached required accuracy - stopping structural energy minimisation
     LOOP+:  cpu time 1818.5335: real time 1817.0725
    4ORBIT:  cpu time    0.0000: real time    0.0000

 total amount of memory used by VASP on root node  4333707. kBytes
========================================================================

   base      :      30000. kBytes
   nonlr-proj:       2402. kBytes
   fftplans  :     924480. kBytes
   grid      :    2089440. kBytes
   one-center:         67. kBytes
   wavefun   :    1287318. kBytes
 
  
  
 General timing and accounting informations for this job:
 ========================================================
  
                  Total CPU time used (sec):   226679.688
                            User time (sec):   225226.454
                          System time (sec):     1453.226
                         Elapsed time (sec):   226579.203
  
                   Maximum memory used (kb):     5900544.
                   Average memory used (kb):           0.
  
                          Minor page faults:    322967493
                          Major page faults:            9
                 Voluntary context switches:        13744
