unknown system                          
           1
    30.000000    0.000000    0.000000
     0.000000   30.000000    0.000000
     0.000000    0.000000   30.000000
   H    C    N    O 
  12   6   2   2
Direct configuration=     1
   0.37457317  0.53800961  0.50352385
   0.38010012  0.48600806  0.47456171
   0.37871404  0.48711308  0.53387193
   0.44798825  0.44568956  0.49691094
   0.51951708  0.46484012  0.54355363
   0.56044702  0.41373734  0.49435859
   0.52187513  0.42101195  0.45069173
   0.50447089  0.39494880  0.50186494
   0.51460451  0.55117981  0.52038629
   0.61218859  0.56724782  0.51193345
   0.57913569  0.58392245  0.46544884
   0.56812789  0.60623292  0.51990700
   0.39040131  0.50508908  0.50406408
   0.44046338  0.51195203  0.50662798
   0.51355231  0.46640343  0.50719992
   0.52541210  0.42123126  0.48715354
   0.54713446  0.50191872  0.48938359
   0.57829374  0.57641986  0.50131284
   0.46552472  0.47457819  0.49995121
   0.54648766  0.54137389  0.51151699
   0.45588295  0.54953296  0.51478380
   0.57510595  0.49156213  0.46098828
Direct configuration=     2
   0.37457241  0.53796070  0.50349699
   0.38010731  0.48596655  0.47452036
   0.37871796  0.48711791  0.53386195
   0.44794647  0.44572620  0.49685160
   0.51949550  0.46485971  0.54356581
   0.56042634  0.41369438  0.49436548
   0.52182149  0.42107083  0.45070900
   0.50446108  0.39490934  0.50184681
   0.51464054  0.55112567  0.52051347
   0.61216464  0.56719329  0.51191275
   0.57918630  0.58395681  0.46539113
   0.56814965  0.60626452  0.51986028
   0.39039604  0.50513358  0.50410589
   0.44046318  0.51195352  0.50665791
   0.51355643  0.46639434  0.50720779
   0.52540238  0.42121473  0.48719357
   0.54720486  0.50193860  0.48935833
   0.57822524  0.57643726  0.50130572
   0.46553926  0.47456155  0.49992300
   0.54643527  0.54145044  0.51146977
   0.45589104  0.54949000  0.51484955
   0.57519757  0.49158313  0.46102796
Direct configuration=     3
   0.37455392  0.53792878  0.50346037
   0.38013170  0.48593443  0.47450178
   0.37871867  0.48712130  0.53385806
   0.44788468  0.44576807  0.49675953
   0.51946478  0.46489209  0.54358408
   0.56040243  0.41363073  0.49437802
   0.52174716  0.42115272  0.45074762
   0.50444451  0.39485098  0.50182482
   0.51465987  0.55105990  0.52070626
   0.61210649  0.56711969  0.51187698
   0.57925432  0.58400313  0.46533036
   0.56817709  0.60632388  0.51980129
   0.39039800  0.50512649  0.50410852
   0.44046108  0.51191932  0.50669591
   0.51357090  0.46638663  0.50721879
   0.52538387  0.42119441  0.48723108
   0.54724958  0.50199160  0.48937659
   0.57817329  0.57646702  0.50126477
   0.46554767  0.47456489  0.49988167
   0.54639654  0.54150141  0.51137300
   0.45591395  0.54945790  0.51495846
   0.57536046  0.49160770  0.46105720
Direct configuration=     4
   0.37451776  0.53791869  0.50341637
   0.38017478  0.48591642  0.47451172
   0.37871339  0.48712009  0.53386208
   0.44781177  0.44581413  0.49662976
   0.51942415  0.46493969  0.54360881
   0.56037706  0.41354914  0.49439731
   0.52165837  0.42125029  0.45080921
   0.50442087  0.39477855  0.50180365
   0.51466126  0.55098571  0.52095965
   0.61201056  0.56703126  0.51182330
   0.57933266  0.58405907  0.46527568
   0.56820863  0.60640883  0.51973481
   0.39040793  0.50506023  0.50406259
   0.44046812  0.51187790  0.50674389
   0.51359539  0.46638943  0.50723226
   0.52535925  0.42117278  0.48726060
   0.54730219  0.50203510  0.48938765
   0.57816040  0.57651229  0.50118189
   0.46554583  0.47458084  0.49982574
   0.54636705  0.54153170  0.51123650
   0.45594069  0.54941883  0.51511485
   0.57554283  0.49165207  0.46111681
Direct configuration=     5
   0.37447843  0.53790303  0.50336545
   0.38022841  0.48589430  0.47452324
   0.37870244  0.48711306  0.53386663
   0.44774037  0.44586848  0.49645681
   0.51937253  0.46500520  0.54363930
   0.56034769  0.41345331  0.49442228
   0.52156062  0.42135581  0.45088364
   0.50439171  0.39470140  0.50178564
   0.51467058  0.55089728  0.52125895
   0.61189431  0.56692883  0.51175274
   0.57941656  0.58412632  0.46521777
   0.56824738  0.60650526  0.51965739
   0.39041958  0.50498676  0.50400559
   0.44048897  0.51186491  0.50680170
   0.51362096  0.46640512  0.50724577
   0.52533329  0.42115076  0.48729499
   0.54738785  0.50203008  0.48935065
   0.57817316  0.57657435  0.50107136
   0.46554291  0.47458941  0.49975374
   0.54631889  0.54158015  0.51108736
   0.45595606  0.54934940  0.51532563
   0.57570828  0.49171981  0.46122852
Direct configuration=     6
   0.37445102  0.53785125  0.50330667
   0.38028265  0.48584433  0.47450252
   0.37868893  0.48710210  0.53386006
   0.44768068  0.44593078  0.49623816
   0.51931102  0.46509092  0.54367232
   0.56031115  0.41334735  0.49444942
   0.52145870  0.42146172  0.45095543
   0.50435933  0.39463155  0.50177048
   0.51471500  0.55079117  0.52158268
   0.61178955  0.56681278  0.51167129
   0.57950345  0.58420881  0.46513562
   0.56829903  0.60659673  0.51956108
   0.39042833  0.50496595  0.50398585
   0.44050562  0.51186290  0.50685962
   0.51363685  0.46642031  0.50725605
   0.52530801  0.42112826  0.48735376
   0.54745420  0.50201054  0.48932158
   0.57816723  0.57664855  0.50096587
   0.46555515  0.47458982  0.49966685
   0.54623989  0.54166195  0.51093734
   0.45596012  0.54926594  0.51560283
   0.57589505  0.49177929  0.46133967
Direct configuration=     7
   0.37443221  0.53776225  0.50323325
   0.38034389  0.48575958  0.47444701
   0.37867361  0.48708907  0.53383484
   0.44763743  0.44600272  0.49594607
   0.51923440  0.46520823  0.54370631
   0.56026401  0.41322431  0.49447856
   0.52134830  0.42157060  0.45102746
   0.50431897  0.39457292  0.50175892
   0.51480118  0.55066580  0.52195068
   0.61170726  0.56667538  0.51157455
   0.57959806  0.58431656  0.46500997
   0.56837069  0.60668877  0.51943399
   0.39043803  0.50499012  0.50400622
   0.44050476  0.51183693  0.50692029
   0.51363784  0.46642092  0.50726789
   0.52527985  0.42110367  0.48744273
   0.54747559  0.50203164  0.48934822
   0.57811163  0.57672351  0.50087106
   0.46558545  0.47460210  0.49955601
   0.54613992  0.54176288  0.51075797
   0.45595856  0.54918597  0.51599107
   0.57613931  0.49180909  0.46143207
Direct configuration=     8
   0.37440227  0.53768481  0.50314379
   0.38043031  0.48566898  0.47440578
   0.37865394  0.48707385  0.53379488
   0.44763195  0.44608560  0.49555847
   0.51913843  0.46536156  0.54373947
   0.56021009  0.41308725  0.49450929
   0.52123847  0.42167179  0.45111515
   0.50426021  0.39453424  0.50176124
   0.51490777  0.55054161  0.52236753
   0.61163741  0.56652847  0.51145468
   0.57969054  0.58444479  0.46485859
   0.56845521  0.60679523  0.51928498
   0.39045559  0.50496240  0.50399544
   0.44050850  0.51181699  0.50701414
   0.51362726  0.46641610  0.50729684
   0.52524613  0.42108233  0.48752842
   0.54755098  0.50207649  0.48934595
   0.57803532  0.57676554  0.50075554
   0.46560827  0.47464154  0.49941252
   0.54604344  0.54186137  0.51053409
   0.45593518  0.54907756  0.51651258
   0.57633371  0.49182452  0.46160578
Direct configuration=     9
   0.37435425  0.53763992  0.50303344
   0.38055418  0.48558471  0.47440983
   0.37862668  0.48705345  0.53375285
   0.44768115  0.44618428  0.49506718
   0.51902278  0.46554170  0.54378257
   0.56015083  0.41294372  0.49453367
   0.52113580  0.42175722  0.45121947
   0.50416986  0.39452370  0.50178107
   0.51502233  0.55043489  0.52281167
   0.61154341  0.56639866  0.51130276
   0.57976780  0.58457345  0.46472321
   0.56853842  0.60691360  0.51911614
   0.39048318  0.50484285  0.50389706
   0.44052286  0.51181605  0.50717360
   0.51362136  0.46644792  0.50733467
   0.52520057  0.42107294  0.48758470
   0.54762876  0.50209868  0.48935191
   0.57802282  0.57678039  0.50057379
   0.46561979  0.47471017  0.49923834
   0.54594345  0.54196664  0.51028621
   0.45588106  0.54892078  0.51718161
   0.57650963  0.49179727  0.46183943
Direct configuration=    10
   0.37432654  0.53754096  0.50288709
   0.38069613  0.48543488  0.47437251
   0.37859824  0.48703348  0.53369750
   0.44778683  0.44629991  0.49448250
   0.51889272  0.46572471  0.54384822
   0.56007222  0.41280589  0.49452989
   0.52103594  0.42182821  0.45129104
   0.50404060  0.39456089  0.50180443
   0.51515612  0.55036217  0.52323025
   0.61144688  0.56629848  0.51113078
   0.57982809  0.58468008  0.46458738
   0.56862309  0.60698794  0.51888980
   0.39050268  0.50480261  0.50382538
   0.44048756  0.51173498  0.50737808
   0.51361876  0.46653149  0.50735105
   0.52514207  0.42108194  0.48765476
   0.54758385  0.50208448  0.48948464
   0.57805187  0.57684627  0.50037603
   0.46568033  0.47481818  0.49905566
   0.54582397  0.54209775  0.51004220
   0.45581942  0.54877880  0.51803021
   0.57678705  0.49166889  0.46204579
Direct configuration=    11
   0.37431295  0.53741305  0.50269452
   0.38085677  0.48521368  0.47428983
   0.37856705  0.48702842  0.53361773
   0.44797422  0.44645942  0.49381464
   0.51874605  0.46588714  0.54391554
   0.55996808  0.41268942  0.49449069
   0.52093799  0.42188708  0.45132339
   0.50386383  0.39466081  0.50182991
   0.51527608  0.55036340  0.52359463
   0.61140563  0.56622615  0.51095952
   0.57987583  0.58475095  0.46440220
   0.56869745  0.60703269  0.51861636
   0.39051179  0.50479043  0.50380781
   0.44049559  0.51179930  0.50768693
   0.51361940  0.46662597  0.50739545
   0.52506522  0.42112681  0.48772748
   0.54778321  0.50197787  0.48943969
   0.57803315  0.57692165  0.50019956
   0.46575403  0.47491728  0.49886457
   0.54571417  0.54224193  0.50979325
   0.45567241  0.54846468  0.51901198
   0.57687005  0.49152483  0.46251952
Direct configuration=    12
   0.37430635  0.53742303  0.50268437
   0.38086803  0.48521307  0.47430243
   0.37856332  0.48703099  0.53362189
   0.44798128  0.44646191  0.49380588
   0.51874750  0.46587894  0.54391558
   0.55996360  0.41269363  0.49448229
   0.52093532  0.42188886  0.45132139
   0.50385456  0.39467255  0.50182679
   0.51527795  0.55037413  0.52356966
   0.61141164  0.56623707  0.51096296
   0.57987587  0.58474179  0.46439475
   0.56868845  0.60704431  0.51861563
   0.39051704  0.50476708  0.50379208
   0.44047559  0.51173425  0.50768003
   0.51362049  0.46661519  0.50739937
   0.52505777  0.42113222  0.48771771
   0.54769733  0.50203272  0.48954151
   0.57803032  0.57690472  0.50019333
   0.46575710  0.47494248  0.49887110
   0.54571777  0.54222674  0.50978663
   0.45569027  0.54850965  0.51905024
   0.57696341  0.49147760  0.46245957
Direct configuration=    13
   0.37429678  0.53743725  0.50266312
   0.38088999  0.48520755  0.47432152
   0.37855418  0.48703516  0.53362843
   0.44800115  0.44647188  0.49377830
   0.51874699  0.46586245  0.54391734
   0.55995377  0.41270397  0.49446742
   0.52093135  0.42189059  0.45131689
   0.50383439  0.39469849  0.50182381
   0.51527906  0.55039943  0.52352142
   0.61142465  0.56625801  0.51096653
   0.57987383  0.58472181  0.46437903
   0.56867145  0.60706212  0.51861283
   0.39052426  0.50472818  0.50376642
   0.44045477  0.51166208  0.50768700
   0.51362170  0.46660248  0.50740940
   0.52504488  0.42114299  0.48769931
   0.54761673  0.50209032  0.48965319
   0.57802737  0.57687520  0.50018080
   0.46576215  0.47497718  0.49887893
   0.54572105  0.54221301  0.50978109
   0.45570551  0.54855012  0.51912641
   0.57706498  0.49141267  0.46241600
Direct configuration=    14
   0.37429751  0.53743577  0.50266095
   0.38089135  0.48520513  0.47432063
   0.37855305  0.48703545  0.53362834
   0.44800425  0.44647413  0.49377406
   0.51874621  0.46586065  0.54391821
   0.55995251  0.41270530  0.49446634
   0.52093111  0.42189059  0.45131590
   0.50383223  0.39470123  0.50182407
   0.51527780  0.55040266  0.52351789
   0.61142572  0.56625959  0.51096621
   0.57987322  0.58471943  0.46437765
   0.56867033  0.60706135  0.51861147
   0.39052362  0.50472892  0.50376723
   0.44045885  0.51167370  0.50769345
   0.51362162  0.46660438  0.50741052
   0.52504437  0.42114381  0.48769836
   0.54763611  0.50207883  0.48963613
   0.57802780  0.57687550  0.50018028
   0.46576254  0.47497477  0.49887848
   0.54572045  0.54221697  0.50978302
   0.45570066  0.54853891  0.51913134
   0.57704967  0.49141588  0.46243467
Direct configuration=    15
   0.37429887  0.53743287  0.50265652
   0.38089419  0.48520028  0.47431898
   0.37855080  0.48703606  0.53362817
   0.44801030  0.44647844  0.49376560
   0.51874475  0.46585701  0.54391993
   0.55994996  0.41270792  0.49446409
   0.52093056  0.42189064  0.45131388
   0.50382786  0.39470674  0.50182450
   0.51527529  0.55040912  0.52351058
   0.61142788  0.56626285  0.51096563
   0.57987208  0.58471465  0.46437485
   0.56866807  0.60705993  0.51860868
   0.39052247  0.50473025  0.50376873
   0.44046610  0.51169438  0.50770566
   0.51362152  0.46660785  0.50741262
   0.52504319  0.42114549  0.48769650
   0.54767088  0.50205817  0.48960612
   0.57802862  0.57687615  0.50017926
   0.46576346  0.47497073  0.49887777
   0.54571955  0.54222399  0.50978641
   0.45569179  0.54851854  0.51914185
   0.57702278  0.49142087  0.46246888
Direct configuration=    16
   0.37430070  0.53742861  0.50264948
   0.38089889  0.48519283  0.47431679
   0.37854735  0.48703713  0.53362800
   0.44801923  0.44648461  0.49375261
   0.51874275  0.46585130  0.54392258
   0.55994603  0.41271187  0.49446038
   0.52092952  0.42189089  0.45131058
   0.50382103  0.39471532  0.50182489
   0.51527145  0.55041907  0.52349867
   0.61143124  0.56626815  0.51096494
   0.57987046  0.58470720  0.46437045
   0.56866455  0.60705802  0.51860415
   0.39052109  0.50473192  0.50377078
   0.44047476  0.51171918  0.50772251
   0.51362153  0.46661230  0.50741547
   0.52504099  0.42114818  0.48769375
   0.54771340  0.50203275  0.48957130
   0.57802971  0.57687721  0.50017769
   0.46576538  0.47496669  0.49887713
   0.54571897  0.54223228  0.50979027
   0.45568037  0.54849274  0.51915988
   0.57699160  0.49142469  0.46251292
Direct configuration=    17
   0.37430268  0.53742318  0.50263925
   0.38090604  0.48518253  0.47431447
   0.37854252  0.48703884  0.53362795
   0.44803086  0.44649225  0.49373452
   0.51874044  0.46584318  0.54392621
   0.55994060  0.41271716  0.49445481
   0.52092767  0.42189153  0.45130568
   0.50381133  0.39472739  0.50182495
   0.51526621  0.55043283  0.52348089
   0.61143594  0.56627603  0.51096430
   0.57986848  0.58469672  0.46436416
   0.56865956  0.60705592  0.51859743
   0.39051994  0.50473344  0.50377305
   0.44048180  0.51173993  0.50774214
   0.51362185  0.46661676  0.50741866
   0.52503722  0.42115210  0.48769012
   0.54775062  0.50200992  0.48954547
   0.57803098  0.57687867  0.50017545
   0.46576900  0.47496535  0.49887712
   0.54571971  0.54223900  0.50979306
   0.45566897  0.54846788  0.51918863
   0.57696856  0.49142232  0.46255690
Direct configuration=    18
   0.37430267  0.53742302  0.50263867
   0.38090651  0.48518205  0.47431451
   0.37854228  0.48703896  0.53362798
   0.44803129  0.44649247  0.49373361
   0.51874040  0.46584275  0.54392638
   0.55994035  0.41271739  0.49445447
   0.52092751  0.42189161  0.45130539
   0.50381082  0.39472800  0.50182488
   0.51526598  0.55043348  0.52347980
   0.61143616  0.56627651  0.51096432
   0.57986843  0.58469619  0.46436382
   0.56865929  0.60705593  0.51859703
   0.39052002  0.50473332  0.50377304
   0.44048128  0.51173849  0.50774244
   0.51362192  0.46661668  0.50741869
   0.52503691  0.42115233  0.48768997
   0.54774857  0.50201100  0.48954818
   0.57803101  0.57687872  0.50017531
   0.46576932  0.47496604  0.49887726
   0.54571999  0.54223853  0.50979276
   0.45566921  0.54846862  0.51919073
   0.57697105  0.49142085  0.46255599
Direct configuration=    19
   0.37430264  0.53742271  0.50263752
   0.38090745  0.48518109  0.47431458
   0.37854177  0.48703920  0.53362804
   0.44803216  0.44649290  0.49373177
   0.51874033  0.46584190  0.54392671
   0.55993983  0.41271783  0.49445380
   0.52092719  0.42189178  0.45130482
   0.50380979  0.39472922  0.50182474
   0.51526552  0.55043479  0.52347762
   0.61143662  0.56627746  0.51096435
   0.57986833  0.58469512  0.46436316
   0.56865877  0.60705594  0.51859623
   0.39052020  0.50473310  0.50377301
   0.44048025  0.51173571  0.50774308
   0.51362206  0.46661653  0.50741876
   0.52503631  0.42115279  0.48768966
   0.54774461  0.50201307  0.48955346
   0.57803107  0.57687879  0.50017501
   0.46576998  0.47496740  0.49887754
   0.54572054  0.54223760  0.50979217
   0.45566966  0.54847003  0.51919492
   0.57697590  0.49141794  0.46255427
Direct configuration=    20
   0.37430259  0.53742224  0.50263578
   0.38090887  0.48517965  0.47431468
   0.37854101  0.48703956  0.53362812
   0.44803348  0.44649358  0.49372896
   0.51874020  0.46584062  0.54392720
   0.55993906  0.41271851  0.49445281
   0.52092671  0.42189202  0.45130396
   0.50380824  0.39473107  0.50182454
   0.51526484  0.55043676  0.52347435
   0.61143730  0.56627890  0.51096439
   0.57986816  0.58469352  0.46436216
   0.56865798  0.60705596  0.51859505
   0.39052045  0.50473276  0.50377296
   0.44047879  0.51173171  0.50774412
   0.51362225  0.46661633  0.50741889
   0.52503542  0.42115348  0.48768919
   0.54773900  0.50201599  0.48956107
   0.57803118  0.57687890  0.50017455
   0.46577095  0.47496939  0.49887793
   0.54572134  0.54223629  0.50979133
   0.45567027  0.54847201  0.51920123
   0.57698288  0.49141367  0.46255196
Direct configuration=    21
   0.37430254  0.53742160  0.50263345
   0.38091077  0.48517772  0.47431481
   0.37853997  0.48704004  0.53362823
   0.44803530  0.44649452  0.49372511
   0.51874000  0.46583891  0.54392787
   0.55993802  0.41271944  0.49445150
   0.52092609  0.42189233  0.45130284
   0.50380615  0.39473355  0.50182431
   0.51526393  0.55043941  0.52346998
   0.61143822  0.56628081  0.51096440
   0.57986793  0.58469137  0.46436081
   0.56865691  0.60705597  0.51859346
   0.39052077  0.50473228  0.50377289
   0.44047696  0.51172673  0.50774565
   0.51362251  0.46661612  0.50741909
   0.52503424  0.42115441  0.48768854
   0.54773215  0.50201953  0.48957059
   0.57803135  0.57687902  0.50017391
   0.46577221  0.47497195  0.49887841
   0.54572236  0.54223469  0.50979029
   0.45567096  0.54847433  0.51920969
   0.57699163  0.49140818  0.46254940
Direct configuration=    22
   0.37430249  0.53742080  0.50263050
   0.38091318  0.48517528  0.47431496
   0.37853862  0.48704064  0.53362834
   0.44803766  0.44649578  0.49372013
   0.51873970  0.46583676  0.54392871
   0.55993671  0.41272062  0.49444988
   0.52092532  0.42189269  0.45130145
   0.50380350  0.39473669  0.50182407
   0.51526280  0.55044278  0.52346448
   0.61143939  0.56628322  0.51096438
   0.57986761  0.58468866  0.46435910
   0.56865557  0.60705597  0.51859148
   0.39052115  0.50473164  0.50377280
   0.44047489  0.51172109  0.50774782
   0.51362282  0.46661594  0.50741940
   0.52503277  0.42115559  0.48768771
   0.54772464  0.50202336  0.48958148
   0.57803161  0.57687914  0.50017306
   0.46577373  0.47497501  0.49887894
   0.54572355  0.54223293  0.50978911
   0.45567161  0.54847673  0.51922037
   0.57700166  0.49140160  0.46254706
Direct configuration=    23
   0.37430245  0.53741982  0.50262690
   0.38091612  0.48517231  0.47431513
   0.37853693  0.48704134  0.53362846
   0.44804061  0.44649740  0.49371387
   0.51873927  0.46583414  0.54392974
   0.55993510  0.41272208  0.49444798
   0.52092442  0.42189310  0.45129980
   0.50380025  0.39474053  0.50182385
   0.51526143  0.55044689  0.52345782
   0.61144082  0.56628614  0.51096428
   0.57986718  0.58468535  0.46435702
   0.56865394  0.60705595  0.51858911
   0.39052157  0.50473082  0.50377266
   0.44047273  0.51171520  0.50775082
   0.51362318  0.46661587  0.50741986
   0.52503104  0.42115702  0.48768668
   0.54771716  0.50202707  0.48959302
   0.57803199  0.57687924  0.50017196
   0.46577549  0.47497846  0.49887948
   0.54572484  0.54223119  0.50978788
   0.45567208  0.54847885  0.51923336
   0.57701234  0.49139414  0.46254554
Direct configuration=    24
   0.37430242  0.53741852  0.50262218
   0.38092000  0.48516843  0.47431532
   0.37853465  0.48704223  0.53362857
   0.44804463  0.44649967  0.49370536
   0.51873861  0.46583074  0.54393109
   0.55993299  0.41272403  0.49444560
   0.52092330  0.42189357  0.45129772
   0.50379596  0.39474559  0.50182368
   0.51525967  0.55045232  0.52344916
   0.61144271  0.56628994  0.51096403
   0.57986658  0.58468102  0.46435428
   0.56865182  0.60705590  0.51858604
   0.39052206  0.50472967  0.50377246
   0.44047044  0.51170895  0.50775530
   0.51362361  0.46661598  0.50742059
   0.52502884  0.42115890  0.48768529
   0.54770991  0.50203050  0.48960556
   0.57803259  0.57687930  0.50017042
   0.46577765  0.47498257  0.49888002
   0.54572631  0.54222951  0.50978658
   0.45567218  0.54848040  0.51925041
   0.57702402  0.49138518  0.46254557
Direct configuration=    25
   0.37430242  0.53741685  0.50261615
   0.38092497  0.48516350  0.47431552
   0.37853164  0.48704333  0.53362866
   0.44804995  0.44650277  0.49369401
   0.51873760  0.46582645  0.54393283
   0.55993030  0.41272657  0.49444272
   0.52092194  0.42189408  0.45129517
   0.50379046  0.39475207  0.50182366
   0.51525747  0.55045928  0.52343820
   0.61144516  0.56629476  0.51096354
   0.57986573  0.58467552  0.46435075
   0.56864914  0.60705577  0.51858220
   0.39052259  0.50472811  0.50377217
   0.44046825  0.51170301  0.50776179
   0.51362413  0.46661641  0.50742170
   0.52502614  0.42116130  0.48768349
   0.54770418  0.50203288  0.48961797
   0.57803349  0.57687927  0.50016832
   0.46578017  0.47498724  0.49888044
   0.54572789  0.54222822  0.50978536
   0.45567162  0.54848064  0.51927222
   0.57703573  0.49137490  0.46254836
Direct configuration=    26
   0.37430247  0.53741476  0.50260866
   0.38093120  0.48515739  0.47431571
   0.37852774  0.48704464  0.53362867
   0.44805680  0.44650687  0.49367924
   0.51873615  0.46582119  0.54393500
   0.55992695  0.41272980  0.49443938
   0.52092036  0.42189458  0.45129217
   0.50378358  0.39476015  0.50182388
   0.51525479  0.55046797  0.52342474
   0.61144824  0.56630067  0.51096268
   0.57986457  0.58466872  0.46434634
   0.56864585  0.60705556  0.51857751
   0.39052314  0.50472606  0.50377177
   0.44046648  0.51169819  0.50777084
   0.51362470  0.46661731  0.50742328
   0.52502291  0.42116428  0.48768123
   0.54770142  0.50203336  0.48962892
   0.57803478  0.57687912  0.50016552
   0.46578303  0.47499232  0.49888062
   0.54572949  0.54222767  0.50978438
   0.45567005  0.54847875  0.51929946
   0.57704629  0.49136355  0.46255522
Direct configuration=    27
   0.37430260  0.53741217  0.50259951
   0.38093887  0.48514997  0.47431584
   0.37852278  0.48704616  0.53362857
   0.44806543  0.44651220  0.49366030
   0.51873410  0.46581491  0.54393765
   0.55992288  0.41273379  0.49443564
   0.52091857  0.42189503  0.45128874
   0.50377516  0.39477004  0.50182449
   0.51525157  0.55047859  0.52340853
   0.61145205  0.56630780  0.51096131
   0.57986304  0.58466050  0.46434090
   0.56864193  0.60705521  0.51857189
   0.39052367  0.50472345  0.50377124
   0.44046542  0.51169531  0.50778311
   0.51362532  0.46661885  0.50742545
   0.52501913  0.42116792  0.48767846
   0.54770306  0.50203112  0.48963711
   0.57803653  0.57687881  0.50016190
   0.46578619  0.47499768  0.49888038
   0.54573104  0.54222821  0.50978376
   0.45566709  0.54847383  0.51933300
   0.57705457  0.49135136  0.46256744
Direct configuration=    28
   0.37430281  0.53740897  0.50258844
   0.38094824  0.48514105  0.47431589
   0.37851650  0.48704790  0.53362827
   0.44807614  0.44651898  0.49363613
   0.51873128  0.46580753  0.54394087
   0.55991799  0.41273868  0.49443156
   0.52091657  0.42189536  0.45128487
   0.50376494  0.39478201  0.50182566
   0.51524774  0.55049145  0.52338923
   0.61145675  0.56631629  0.51095921
   0.57986102  0.58465071  0.46433424
   0.56863735  0.60705467  0.51856520
   0.39052418  0.50472018  0.50377056
   0.44046530  0.51169503  0.50779932
   0.51362596  0.46662119  0.50742831
   0.52501474  0.42117230  0.48767519
   0.54771023  0.50202546  0.48964163
   0.57803884  0.57687831  0.50015727
   0.46578964  0.47500329  0.49887952
   0.54573254  0.54223010  0.50978357
   0.45566241  0.54846504  0.51937419
   0.57705980  0.49133838  0.46258610
Direct configuration=    29
   0.37430312  0.53740501  0.50257505
   0.38095975  0.48513034  0.47431578
   0.37850854  0.48704986  0.53362769
   0.44808931  0.44652754  0.49360515
   0.51872746  0.46579895  0.54394477
   0.55991214  0.41274462  0.49442728
   0.52091436  0.42189548  0.45128058
   0.50375260  0.39479647  0.50182762
   0.51524318  0.55050692  0.52336633
   0.61146254  0.56632636  0.51095607
   0.57985840  0.58463913  0.46432602
   0.56863210  0.60705390  0.51855721
   0.39052467  0.50471618  0.50376972
   0.44046624  0.51169762  0.50782036
   0.51362660  0.46662446  0.50743191
   0.52500962  0.42117752  0.48767144
   0.54772330  0.50201621  0.48964243
   0.57804179  0.57687763  0.50015139
   0.46579347  0.47500933  0.49887774
   0.54573409  0.54223344  0.50978371
   0.45565573  0.54845168  0.51942520
   0.57706196  0.49132424  0.46261177
Direct configuration=    30
   0.37430351  0.53740004  0.50255874
   0.38097402  0.48511743  0.47431543
   0.37849837  0.48705209  0.53362666
   0.44810541  0.44653826  0.49356513
   0.51872231  0.46578904  0.54394951
   0.55990514  0.41275178  0.49442294
   0.52091189  0.42189530  0.45127585
   0.50373768  0.39481397  0.50183067
   0.51523773  0.55052552  0.52333905
   0.61146973  0.56633833  0.51095148
   0.57985504  0.58462548  0.46431578
   0.56862619  0.60705280  0.51854749
   0.39052520  0.50471136  0.50376872
   0.44046794  0.51170227  0.50784708
   0.51362715  0.46662870  0.50743631
   0.52500355  0.42118375  0.48766738
   0.54774093  0.50200416  0.48964132
   0.57804542  0.57687684  0.50014396
   0.46579789  0.47501639  0.49887474
   0.54573603  0.54223789  0.50978376
   0.45564705  0.54843363  0.51948939
   0.57706277  0.49130785  0.46264385
Direct configuration=    31
   0.37430392  0.53739374  0.50253883
   0.38099183  0.48510181  0.47431476
   0.37848536  0.48705461  0.53362503
   0.44812478  0.44655148  0.49351340
   0.51871552  0.46577774  0.54395524
   0.55989682  0.41276030  0.49441876
   0.52090904  0.42189474  0.45127067
   0.50371969  0.39483507  0.50183510
   0.51523120  0.55054772  0.52330653
   0.61147866  0.56635252  0.51094496
   0.57985084  0.58460952  0.46430295
   0.56861972  0.60705133  0.51853551
   0.39052595  0.50470572  0.50376760
   0.44046945  0.51170645  0.50787997
   0.51362765  0.46663401  0.50744139
   0.52499616  0.42119119  0.48766327
   0.54775908  0.50199166  0.48964290
   0.57804970  0.57687607  0.50013467
   0.46580331  0.47502561  0.49887019
   0.54573889  0.54224250  0.50978288
   0.45563689  0.54841193  0.51957110
   0.57706651  0.49128718  0.46267955
Direct configuration=    32
   0.37430424  0.53738588  0.50251473
   0.38101391  0.48508313  0.47431374
   0.37846895  0.48705751  0.53362264
   0.44814749  0.44656748  0.49344764
   0.51870686  0.46576508  0.54396208
   0.55988702  0.41277014  0.49441495
   0.52090566  0.42189385  0.45126510
   0.50369832  0.39486012  0.50184109
   0.51522347  0.55057367  0.52326812
   0.61148951  0.56636915  0.51093609
   0.57984581  0.58459120  0.46428705
   0.56861287  0.60704951  0.51852066
   0.39052715  0.50469935  0.50376644
   0.44046933  0.51170634  0.50791899
   0.51362806  0.46664006  0.50744690
   0.52498717  0.42119992  0.48765950
   0.54777211  0.50198200  0.48965331
   0.57805453  0.57687553  0.50012325
   0.46581015  0.47503841  0.49886387
   0.54574319  0.54224604  0.50978002
   0.45562626  0.54838861  0.51967433
   0.57707891  0.49125989  0.46271477
Direct configuration=    33
   0.37430432  0.53737616  0.50248573
   0.38104119  0.48506089  0.47431248
   0.37844851  0.48706093  0.53361933
   0.44817374  0.44658683  0.49336529
   0.51869605  0.46575099  0.54397013
   0.55987551  0.41278124  0.49441167
   0.52090142  0.42189284  0.45125922
   0.50367316  0.39488944  0.50184874
   0.51521450  0.55060348  0.52322300
   0.61150231  0.56638848  0.51092444
   0.57984013  0.58457041  0.46426757
   0.56860578  0.60704750  0.51850214
   0.39052908  0.50469220  0.50376529
   0.44046642  0.51169890  0.50796441
   0.51362823  0.46664671  0.50745267
   0.52497631  0.42121002  0.48765635
   0.54777642  0.50197730  0.48967682
   0.57805988  0.57687533  0.50010910
   0.46581877  0.47505603  0.49885561
   0.54574902  0.54224790  0.50977438
   0.45561590  0.54836497  0.51980337
   0.57710431  0.49122431  0.46274753
Direct configuration=    34
   0.37430401  0.53736416  0.50245052
   0.38107519  0.48503424  0.47431122
   0.37842295  0.48706519  0.53361490
   0.44820425  0.44661103  0.49326222
   0.51868258  0.46573518  0.54397954
   0.55986179  0.41279351  0.49440900
   0.52089576  0.42189219  0.45125325
   0.50364338  0.39492361  0.50185819
   0.51520413  0.55063740  0.52316980
   0.61151697  0.56641095  0.51090935
   0.57983413  0.58454683  0.46424372
   0.56859847  0.60704557  0.51847858
   0.39053190  0.50468372  0.50376404
   0.44046076  0.51168417  0.50801833
   0.51362809  0.46665415  0.50745894
   0.52496327  0.42122172  0.48765384
   0.54777477  0.50197616  0.48971227
   0.57806602  0.57687541  0.50009119
   0.46582926  0.47507905  0.49884488
   0.54575561  0.54224919  0.50976568
   0.45560527  0.54833911  0.51996388
   0.57714242  0.49118032  0.46278192
Direct configuration=    35
   0.37430308  0.53734917  0.50240721
   0.38111798  0.48500166  0.47431072
   0.37839096  0.48707100  0.53360936
   0.44824023  0.44664267  0.49313456
   0.51866594  0.46571655  0.54399049
   0.55984482  0.41280674  0.49440613
   0.52088731  0.42189335  0.45124721
   0.50360764  0.39496317  0.50186882
   0.51519165  0.55067576  0.52310620
   0.61153273  0.56643720  0.51089063