  22  22   0   0
  0.1227273E+04  0.3000000E-08  0.3000000E-08  0.3000000E-08  0.0000000E+00
  1.000000000000000E-004
  CAR 
 unknown system                          
      2.19900163    -28.12399404  301     -4.47166258      1.00000000
    -28.124  0.0000E+00  0.0000E+00
    -28.023  0.0000E+00  0.0000E+00
    -27.922  0.0000E+00  0.0000E+00
    -27.821  0.0000E+00  0.0000E+00
    -27.720  0.0000E+00  0.0000E+00
    -27.619  0.0000E+00  0.0000E+00
    -27.518  0.0000E+00  0.0000E+00
    -27.416  0.0000E+00  0.0000E+00
    -27.315  0.0000E+00  0.0000E+00
    -27.214  0.4174E-15  0.4219E-16
    -27.113  0.8709E-13  0.8845E-14
    -27.012  0.1106E-10  0.1127E-11
    -26.911  0.8508E-09  0.8713E-10
    -26.810  0.3969E-07  0.4099E-08
    -26.709  0.1125E-05  0.1178E-06
    -26.608  0.1938E-04  0.2077E-05
    -26.507  0.2036E-03  0.2266E-04
    -26.406  0.1305E-02  0.1546E-03
    -26.305  0.5117E-02  0.6718E-03
    -26.204  0.1228E-01  0.1913E-02
    -26.102  0.1805E-01  0.3738E-02
    -26.001  0.1636E-01  0.5391E-02
    -25.900  0.9733E-02  0.6375E-02
    -25.799  0.6506E-02  0.7032E-02
    -25.698  0.1038E-01  0.8082E-02
    -25.597  0.1689E-01  0.9789E-02
    -25.496  0.1775E-01  0.1158E-01
    -25.395  0.1148E-01  0.1274E-01
    -25.294  0.4551E-02  0.1320E-01
    -25.193  0.1104E-02  0.1332E-01
    -25.092  0.1638E-03  0.1333E-01
    -24.991  0.1482E-04  0.1333E-01
    -24.890  0.8175E-06  0.1333E-01
    -24.788  0.2742E-07  0.1333E-01
    -24.687  0.5586E-09  0.1333E-01
    -24.586  0.6900E-11  0.1333E-01
    -24.485  0.5201E-13  0.1333E-01
    -24.384  0.8430E-13  0.1333E-01
    -24.283  0.1071E-10  0.1333E-01
    -24.182  0.8270E-09  0.1333E-01
    -24.081  0.3871E-07  0.1333E-01
    -23.980  0.1101E-05  0.1333E-01
    -23.879  0.1904E-04  0.1334E-01
    -23.778  0.2006E-03  0.1336E-01
    -23.677  0.1291E-02  0.1349E-01
    -23.576  0.5077E-02  0.1400E-01
    -23.474  0.1222E-01  0.1523E-01
    -23.373  0.1803E-01  0.1706E-01
    -23.272  0.1630E-01  0.1870E-01
    -23.171  0.9084E-02  0.1962E-01
    -23.070  0.3524E-02  0.1998E-01
    -22.969  0.3049E-02  0.2029E-01
    -22.868  0.7828E-02  0.2108E-01
    -22.767  0.1524E-01  0.2262E-01
    -22.666  0.1835E-01  0.2447E-01
    -22.565  0.1355E-01  0.2584E-01
    -22.464  0.6131E-02  0.2646E-01
    -22.363  0.1698E-02  0.2663E-01
    -22.262  0.2877E-03  0.2666E-01
    -22.160  0.2975E-04  0.2667E-01
    -22.059  0.1876E-05  0.2667E-01
    -21.958  0.7196E-07  0.2667E-01
    -21.857  0.1677E-08  0.2667E-01
    -21.756  0.2371E-10  0.2667E-01
    -21.655  0.2031E-12  0.2667E-01
    -21.554  0.1054E-14  0.2667E-01
    -21.453  0.0000E+00  0.2667E-01
    -21.352  0.0000E+00  0.2667E-01
    -21.251  0.0000E+00  0.2667E-01
    -21.150  0.0000E+00  0.2667E-01
    -21.049  0.0000E+00  0.2667E-01
    -20.948  0.0000E+00  0.2667E-01
    -20.846  0.0000E+00  0.2667E-01
    -20.745  0.0000E+00  0.2667E-01
    -20.644  0.5126E-15  0.2667E-01
    -20.543  0.1054E-12  0.2667E-01
    -20.442  0.1313E-10  0.2667E-01
    -20.341  0.9913E-09  0.2667E-01
    -20.240  0.4539E-07  0.2667E-01
    -20.139  0.1262E-05  0.2667E-01
    -20.038  0.2136E-04  0.2667E-01
    -19.937  0.2202E-03  0.2669E-01
    -19.836  0.1386E-02  0.2683E-01
    -19.735  0.5334E-02  0.2737E-01
    -19.634  0.1257E-01  0.2864E-01
    -19.532  0.1814E-01  0.3047E-01
    -19.431  0.1604E-01  0.3210E-01
    -19.330  0.8697E-02  0.3297E-01
    -19.229  0.2888E-02  0.3327E-01
    -19.128  0.5866E-03  0.3333E-01
    -19.027  0.7280E-04  0.3333E-01
    -18.926  0.5529E-05  0.3333E-01
    -18.825  0.8378E-06  0.3333E-01
    -18.724  0.1117E-04  0.3333E-01
    -18.623  0.1299E-03  0.3335E-01
    -18.522  0.9232E-03  0.3344E-01
    -18.421  0.4009E-02  0.3385E-01
    -18.320  0.1065E-01  0.3492E-01
    -18.218  0.1734E-01  0.3668E-01
    -18.117  0.1730E-01  0.3842E-01
    -18.016  0.1061E-01  0.3950E-01
    -17.915  0.4295E-02  0.3993E-01
    -17.814  0.2800E-02  0.4021E-01
    -17.713  0.6721E-02  0.4089E-01
    -17.612  0.1408E-01  0.4232E-01
    -17.511  0.1840E-01  0.4418E-01
    -17.410  0.1475E-01  0.4567E-01
    -17.309  0.7246E-02  0.4640E-01
    -17.208  0.2179E-02  0.4662E-01
    -17.107  0.4009E-03  0.4666E-01
    -17.006  0.4504E-04  0.4667E-01
    -16.904  0.3086E-05  0.4667E-01
    -16.803  0.1287E-06  0.4667E-01
    -16.702  0.3262E-08  0.4667E-01
    -16.601  0.1987E-09  0.4667E-01
    -16.500  0.8532E-08  0.4667E-01
    -16.399  0.2974E-06  0.4667E-01
    -16.298  0.6301E-05  0.4667E-01
    -16.197  0.8130E-04  0.4668E-01
    -16.096  0.6400E-03  0.4674E-01
    -15.995  0.3077E-02  0.4705E-01
    -15.894  0.9055E-02  0.4797E-01
    -15.793  0.1632E-01  0.4962E-01
    -15.692  0.1802E-01  0.5144E-01
    -15.590  0.1220E-01  0.5267E-01
    -15.489  0.5061E-02  0.5318E-01
    -15.388  0.1316E-02  0.5331E-01
    -15.287  0.5002E-03  0.5337E-01
    -15.186  0.1776E-02  0.5354E-01
    -15.085  0.6274E-02  0.5418E-01
    -14.984  0.1371E-01  0.5556E-01
    -14.883  0.1837E-01  0.5742E-01
    -14.782  0.1508E-01  0.5895E-01
    -14.681  0.7590E-02  0.5971E-01
    -14.580  0.2348E-02  0.5995E-01
    -14.479  0.5533E-03  0.6001E-01
    -14.378  0.8765E-03  0.6010E-01
    -14.276  0.3705E-02  0.6047E-01
    -14.175  0.1015E-01  0.6150E-01
    -14.074  0.1705E-01  0.6322E-01
    -13.973  0.1756E-01  0.6499E-01
    -13.872  0.1108E-01  0.6611E-01
    -13.771  0.4285E-02  0.6655E-01
    -13.670  0.1017E-02  0.6665E-01
    -13.569  0.1932E-03  0.6667E-01
    -13.468  0.4250E-03  0.6671E-01
    -13.367  0.2225E-02  0.6694E-01
    -13.266  0.7344E-02  0.6768E-01
    -13.165  0.1485E-01  0.6918E-01
    -13.064  0.1840E-01  0.7104E-01
    -12.962  0.1397E-01  0.7245E-01
    -12.861  0.6501E-02  0.7311E-01
    -12.760  0.1866E-02  0.7330E-01
    -12.659  0.4833E-03  0.7335E-01
    -12.558  0.1125E-02  0.7346E-01
    -12.457  0.4550E-02  0.7392E-01
    -12.356  0.1182E-01  0.7512E-01
    -12.255  0.1992E-01  0.7713E-01
    -12.154  0.2416E-01  0.7957E-01
    -12.053  0.2464E-01  0.8206E-01
    -11.952  0.2191E-01  0.8428E-01
    -11.851  0.1479E-01  0.8577E-01
    -11.750  0.6783E-02  0.8646E-01
    -11.648  0.2865E-02  0.8675E-01
    -11.547  0.4560E-02  0.8721E-01
    -11.446  0.1128E-01  0.8835E-01
    -11.345  0.1919E-01  0.9029E-01
    -11.244  0.2324E-01  0.9263E-01
    -11.143  0.2388E-01  0.9505E-01
    -11.042  0.2281E-01  0.9735E-01
    -10.941  0.1936E-01  0.9931E-01
    -10.840  0.1726E-01  0.1011E+00
    -10.739  0.1899E-01  0.1030E+00
    -10.638  0.1848E-01  0.1048E+00
    -10.537  0.1276E-01  0.1061E+00
    -10.436  0.8906E-02  0.1070E+00
    -10.335  0.1402E-01  0.1084E+00
    -10.233  0.2668E-01  0.1111E+00
    -10.132  0.3767E-01  0.1150E+00
    -10.031  0.3975E-01  0.1190E+00
     -9.930  0.3416E-01  0.1224E+00
     -9.829  0.2501E-01  0.1250E+00
     -9.728  0.1760E-01  0.1267E+00
     -9.627  0.1857E-01  0.1286E+00
     -9.526  0.2723E-01  0.1314E+00
     -9.425  0.3456E-01  0.1349E+00
     -9.324  0.3606E-01  0.1385E+00
     -9.223  0.3717E-01  0.1423E+00
     -9.122  0.4052E-01  0.1463E+00
     -9.021  0.3915E-01  0.1503E+00
     -8.919  0.3211E-01  0.1536E+00
     -8.818  0.2711E-01  0.1563E+00
     -8.717  0.2558E-01  0.1589E+00
     -8.616  0.2478E-01  0.1614E+00
     -8.515  0.2293E-01  0.1637E+00
     -8.414  0.1711E-01  0.1654E+00
     -8.313  0.8753E-02  0.1663E+00
     -8.212  0.2842E-02  0.1666E+00
     -8.111  0.5703E-03  0.1667E+00
     -8.010  0.7013E-04  0.1667E+00
     -7.909  0.5264E-05  0.1667E+00
     -7.808  0.2407E-06  0.1667E+00
     -7.707  0.6691E-08  0.1667E+00
     -7.605  0.3541E-09  0.1667E+00
     -7.504  0.1309E-07  0.1667E+00
     -7.403  0.4312E-06  0.1667E+00
     -7.302  0.8637E-05  0.1667E+00
     -7.201  0.1054E-03  0.1667E+00
     -7.100  0.7840E-03  0.1668E+00
     -6.999  0.3566E-02  0.1671E+00
     -6.898  0.9922E-02  0.1681E+00
     -6.797  0.1691E-01  0.1698E+00
     -6.696  0.1767E-01  0.1716E+00
     -6.595  0.1139E-01  0.1728E+00
     -6.494  0.5055E-02  0.1733E+00
     -6.393  0.4069E-02  0.1737E+00
     -6.291  0.9171E-02  0.1746E+00
     -6.190  0.1706E-01  0.1763E+00
     -6.089  0.2183E-01  0.1785E+00
     -5.988  0.2260E-01  0.1808E+00
     -5.887  0.2239E-01  0.1831E+00
     -5.786  0.1962E-01  0.1851E+00
     -5.685  0.1475E-01  0.1866E+00
     -5.584  0.1413E-01  0.1880E+00
     -5.483  0.1789E-01  0.1898E+00
     -5.382  0.1783E-01  0.1916E+00
     -5.281  0.1136E-01  0.1928E+00
     -5.180  0.4463E-02  0.1932E+00
     -5.079  0.1074E-02  0.1933E+00
     -4.977  0.1579E-03  0.1933E+00
     -4.876  0.1418E-04  0.1933E+00
     -4.775  0.7754E-06  0.1933E+00
     -4.674  0.2579E-07  0.1933E+00
     -4.573  0.5210E-09  0.1933E+00
     -4.472  0.6381E-11  0.1933E+00
     -4.371  0.4733E-13  0.1933E+00
     -4.270  0.2124E-15  0.1933E+00
     -4.169  0.0000E+00  0.1933E+00
     -4.068  0.0000E+00  0.1933E+00
     -3.967  0.0000E+00  0.1933E+00
     -3.866  0.0000E+00  0.1933E+00
     -3.765  0.0000E+00  0.1933E+00
     -3.663  0.0000E+00  0.1933E+00
     -3.562  0.0000E+00  0.1933E+00
     -3.461  0.0000E+00  0.1933E+00
     -3.360  0.0000E+00  0.1933E+00
     -3.259  0.0000E+00  0.1933E+00
     -3.158  0.0000E+00  0.1933E+00
     -3.057  0.0000E+00  0.1933E+00
     -2.956  0.0000E+00  0.1933E+00
     -2.855  0.0000E+00  0.1933E+00
     -2.754  0.0000E+00  0.1933E+00
     -2.653  0.0000E+00  0.1933E+00
     -2.552  0.0000E+00  0.1933E+00
     -2.451  0.0000E+00  0.1933E+00
     -2.349  0.0000E+00  0.1933E+00
     -2.248  0.0000E+00  0.1933E+00
     -2.147  0.1904E-15  0.1933E+00
     -2.046  0.4257E-13  0.1933E+00
     -1.945  0.5800E-11  0.1933E+00
     -1.844  0.4786E-09  0.1933E+00
     -1.743  0.2396E-07  0.1933E+00
     -1.642  0.7291E-06  0.1933E+00
     -1.541  0.1352E-04  0.1933E+00
     -1.440  0.1536E-03  0.1934E+00
     -1.339  0.1076E-02  0.1935E+00
     -1.238  0.4707E-02  0.1939E+00
     -1.137  0.1317E-01  0.1953E+00
     -1.035  0.2441E-01  0.1977E+00
     -0.934  0.3136E-01  0.2009E+00
     -0.833  0.2915E-01  0.2038E+00
     -0.732  0.2157E-01  0.2060E+00
     -0.631  0.1830E-01  0.2079E+00
     -0.530  0.2369E-01  0.2103E+00
     -0.429  0.3266E-01  0.2136E+00
     -0.328  0.4029E-01  0.2176E+00
     -0.227  0.4715E-01  0.2224E+00
     -0.126  0.5708E-01  0.2282E+00
     -0.025  0.7606E-01  0.2359E+00
      0.076  0.1022E+00  0.2462E+00
      0.177  0.1131E+00  0.2576E+00
      0.279  0.8910E-01  0.2666E+00
      0.380  0.4667E-01  0.2713E+00
      0.481  0.1577E-01  0.2729E+00
      0.582  0.3384E-02  0.2733E+00
      0.683  0.4570E-03  0.2733E+00
      0.784  0.3856E-04  0.2733E+00
      0.885  0.2020E-05  0.2733E+00
      0.986  0.6534E-07  0.2733E+00
      1.087  0.1300E-08  0.2733E+00
      1.188  0.1584E-10  0.2733E+00
      1.289  0.1178E-12  0.2733E+00
      1.390  0.5364E-15  0.2733E+00
      1.491  0.0000E+00  0.2733E+00
      1.593  0.0000E+00  0.2733E+00
      1.694  0.0000E+00  0.2733E+00
      1.795  0.0000E+00  0.2733E+00
      1.896  0.0000E+00  0.2733E+00
      1.997  0.0000E+00  0.2733E+00
      2.098  0.0000E+00  0.2733E+00
      2.199  0.0000E+00  0.2733E+00
