   22   22  300    1
  0.1227273E+04  0.3000000E-08  0.3000000E-08  0.3000000E-08  0.0000000E+00
  1.000000000000000E-004
  CAR 
 unknown system                          
     58      4     41
 
  0.2500000E+00  0.2500000E+00  0.2500000E+00  0.2500000E+00
    1      -26.123990   1.000000
    2      -25.585877   1.000000
    3      -23.394221   1.000000
    4      -22.728466   1.000000
    5      -19.557791   1.000000
    6      -18.218960   1.000000
    7      -17.556621   1.000000
    8      -15.772140   1.000000
    9      -14.923666   1.000000
   10      -14.068295   1.000000
   11      -13.120408   1.000000
   12      -12.265224   1.000000
   13      -12.007981   1.000000
   14      -11.349701   1.000000
   15      -11.080041   1.000000
   16      -10.722395   1.000000
   17      -10.221722   1.000000
   18      -10.109634   1.000000
   19       -9.924048   1.000000
   20       -9.535955   1.000000
   21       -9.392566   1.000000
   22       -9.151406   1.000000
   23       -9.080509   1.000000
   24       -8.803979   1.000000
   25       -8.542068   1.000000
   26       -6.787785   1.000000
   27       -6.167764   1.000000
   28       -5.882198   1.000000
   29       -5.473321   1.000000
   30       -1.042880   0.000000
   31       -0.881971   0.000000
   32       -0.513180   0.000000
   33       -0.336377   0.000000
   34       -0.196350   0.000000
   35       -0.072712   0.000000
   36        0.042107   0.000000
   37        0.123512   0.000000
   38        0.130022   0.000000
   39        0.132292   0.000000
   40        0.177469   0.000000
   41        0.194166   0.000000
 
 -0.2500000E+00  0.2500000E+00  0.2500000E+00  0.2500000E+00
    1      -26.123991   1.000000
    2      -25.585876   1.000000
    3      -23.394220   1.000000
    4      -22.728467   1.000000
    5      -19.557792   1.000000
    6      -18.218958   1.000000
    7      -17.556618   1.000000
    8      -15.772142   1.000000
    9      -14.923662   1.000000
   10      -14.068304   1.000000
   11      -13.120411   1.000000
   12      -12.265221   1.000000
   13      -12.007972   1.000000
   14      -11.349712   1.000000
   15      -11.080047   1.000000
   16      -10.722400   1.000000
   17      -10.221712   1.000000
   18      -10.109630   1.000000
   19       -9.924041   1.000000
   20       -9.535975   1.000000
   21       -9.392575   1.000000
   22       -9.151410   1.000000
   23       -9.080505   1.000000
   24       -8.803966   1.000000
   25       -8.542070   1.000000
   26       -6.787796   1.000000
   27       -6.167766   1.000000
   28       -5.882193   1.000000
   29       -5.473304   1.000000
   30       -1.042860   0.000000
   31       -0.881974   0.000000
   32       -0.513194   0.000000
   33       -0.336368   0.000000
   34       -0.196400   0.000000
   35       -0.072900   0.000000
   36        0.045662   0.000000
   37        0.109943   0.000000
   38        0.125540   0.000000
   39        0.141842   0.000000
   40        0.184047   0.000000
   41        0.197760   0.000000
 
  0.2500000E+00 -0.2500000E+00  0.2500000E+00  0.2500000E+00
    1      -26.123994   1.000000
    2      -25.585876   1.000000
    3      -23.394220   1.000000
    4      -22.728468   1.000000
    5      -19.557794   1.000000
    6      -18.218959   1.000000
    7      -17.556621   1.000000
    8      -15.772138   1.000000
    9      -14.923663   1.000000
   10      -14.068297   1.000000
   11      -13.120409   1.000000
   12      -12.265225   1.000000
   13      -12.007978   1.000000
   14      -11.349702   1.000000
   15      -11.080049   1.000000
   16      -10.722398   1.000000
   17      -10.221715   1.000000
   18      -10.109628   1.000000
   19       -9.924040   1.000000
   20       -9.535961   1.000000
   21       -9.392563   1.000000
   22       -9.151420   1.000000
   23       -9.080503   1.000000
   24       -8.803985   1.000000
   25       -8.542081   1.000000
   26       -6.787781   1.000000
   27       -6.167771   1.000000
   28       -5.882209   1.000000
   29       -5.473325   1.000000
   30       -1.042874   0.000000
   31       -0.881971   0.000000
   32       -0.513178   0.000000
   33       -0.336370   0.000000
   34       -0.196414   0.000000
   35       -0.072639   0.000000
   36        0.044548   0.000000
   37        0.107335   0.000000
   38        0.133736   0.000000
   39        0.139424   0.000000
   40        0.184886   0.000000
   41        0.194372   0.000000
 
 -0.2500000E+00 -0.2500000E+00  0.2500000E+00  0.2500000E+00
    1      -26.123991   1.000000
    2      -25.585874   1.000000
    3      -23.394225   1.000000
    4      -22.728465   1.000000
    5      -19.557792   1.000000
    6      -18.218961   1.000000
    7      -17.556619   1.000000
    8      -15.772135   1.000000
    9      -14.923665   1.000000
   10      -14.068297   1.000000
   11      -13.120406   1.000000
   12      -12.265227   1.000000
   13      -12.007978   1.000000
   14      -11.349705   1.000000
   15      -11.080046   1.000000
   16      -10.722398   1.000000
   17      -10.221714   1.000000
   18      -10.109629   1.000000
   19       -9.924044   1.000000
   20       -9.535964   1.000000
   21       -9.392564   1.000000
   22       -9.151403   1.000000
   23       -9.080508   1.000000
   24       -8.803980   1.000000
   25       -8.542067   1.000000
   26       -6.787808   1.000000
   27       -6.167772   1.000000
   28       -5.882183   1.000000
   29       -5.473327   1.000000
   30       -1.042887   0.000000
   31       -0.881972   0.000000
   32       -0.513175   0.000000
   33       -0.336369   0.000000
   34       -0.196359   0.000000
   35       -0.073511   0.000000
   36        0.050025   0.000000
   37        0.109122   0.000000
   38        0.126882   0.000000
   39        0.135859   0.000000
   40        0.174620   0.000000
   41        0.199002   0.000000
