       N       E                     dE             d eps       ncg     rms          rms(c)
DAV:   1     0.608444652536E+03    0.60844E+03   -0.79837E+03   392   0.485E+02
DAV:   2     0.278766234490E+03   -0.32968E+03   -0.31887E+03   564   0.924E+01
DAV:   3    -0.421415621382E+02   -0.32091E+03   -0.31098E+03   488   0.111E+02
DAV:   4    -0.136274708692E+03   -0.94133E+02   -0.93950E+02   397   0.825E+01
DAV:   5    -0.141826800135E+03   -0.55521E+01   -0.55336E+01   432   0.238E+01    0.195E+01
DAV:   6    -0.131732371313E+03    0.10094E+02   -0.23930E+01   413   0.200E+01    0.999E+00
DAV:   7    -0.129976355923E+03    0.17560E+01   -0.45261E+00   407   0.830E+00    0.515E+00
DAV:   8    -0.129492768037E+03    0.48359E+00   -0.86537E-01   440   0.404E+00    0.156E+00
DAV:   9    -0.129423835435E+03    0.68933E-01   -0.10189E-01   464   0.154E+00    0.564E-01
DAV:  10    -0.129412752240E+03    0.11083E-01   -0.24958E-02   440   0.810E-01    0.260E-01
DAV:  11    -0.129407262244E+03    0.54900E-02   -0.79882E-03   456   0.440E-01    0.160E-01
DAV:  12    -0.129407853555E+03   -0.59131E-03   -0.57064E-03   374   0.349E-01    0.975E-02
DAV:  13    -0.129414331972E+03   -0.64784E-02   -0.46881E-03   432   0.318E-01    0.575E-02
DAV:  14    -0.129420659165E+03   -0.63272E-02   -0.16585E-03   400   0.190E-01    0.380E-02
DAV:  15    -0.129428356117E+03   -0.76970E-02   -0.81699E-04   394   0.100E-01    0.232E-02
DAV:  16    -0.129434457717E+03   -0.61016E-02   -0.50363E-04   334   0.735E-02    0.136E-02
DAV:  17    -0.129436963709E+03   -0.25060E-02   -0.12245E-04   366   0.376E-02    0.876E-03
DAV:  18    -0.129438799457E+03   -0.18357E-02   -0.12790E-04   284   0.318E-02    0.544E-03
DAV:  19    -0.129439656338E+03   -0.85688E-03   -0.47581E-05   366   0.201E-02    0.341E-03
DAV:  20    -0.129440132991E+03   -0.47665E-03   -0.19972E-05   278   0.147E-02    0.223E-03
DAV:  21    -0.129440321964E+03   -0.18897E-03   -0.81756E-06   368   0.821E-03    0.131E-03
DAV:  22    -0.129440475909E+03   -0.15394E-03   -0.43195E-06   245   0.704E-03    0.113E-03
DAV:  23    -0.129440514171E+03   -0.38262E-04   -0.11489E-06   368   0.374E-03
   1 F= -.12944051E+03 E0= -.12944051E+03  d E =-.129441E+03
       N       E                     dE             d eps       ncg     rms          rms(c)
DAV:   1    -0.129442914223E+03   -0.24383E-02   -0.10487E-01   332   0.173E+00    0.722E-02
DAV:   2    -0.129443127175E+03   -0.21295E-03   -0.31457E-03   464   0.266E-01    0.534E-02
DAV:   3    -0.129443105546E+03    0.21629E-04   -0.76332E-05   368   0.506E-02    0.341E-02
DAV:   4    -0.129443109657E+03   -0.41104E-05   -0.87614E-05   271   0.530E-02    0.677E-03
DAV:   5    -0.129443112875E+03   -0.32180E-05   -0.21448E-05   336   0.244E-02    0.391E-03
DAV:   6    -0.129443114517E+03   -0.16418E-05   -0.29189E-06   278   0.901E-03
   2 F= -.12944311E+03 E0= -.12944311E+03  d E =-.260035E-02
       N       E                     dE             d eps       ncg     rms          rms(c)
DAV:   1    -0.129444626800E+03   -0.15139E-02   -0.21564E-01   330   0.244E+00    0.926E-02
DAV:   2    -0.129445022175E+03   -0.39538E-03   -0.53289E-03   398   0.338E-01    0.659E-02
DAV:   3    -0.129444995591E+03    0.26584E-04   -0.10213E-04   368   0.589E-02    0.404E-02
DAV:   4    -0.129445016419E+03   -0.20828E-04   -0.11594E-04   267   0.604E-02    0.731E-03
DAV:   5    -0.129445019057E+03   -0.26379E-05   -0.27019E-05   272   0.275E-02    0.475E-03
DAV:   6    -0.129445020396E+03   -0.13389E-05   -0.41839E-06   236   0.104E-02
   3 F= -.12944502E+03 E0= -.12944502E+03  d E =-.190588E-02
       N       E                     dE             d eps       ncg     rms          rms(c)
DAV:   1    -0.129447843541E+03   -0.28245E-02   -0.35088E-01   328   0.306E+00    0.111E-01
DAV:   2    -0.129448501722E+03   -0.65818E-03   -0.82538E-03   396   0.400E-01    0.741E-02
DAV:   3    -0.129448484756E+03    0.16966E-04   -0.10787E-04   359   0.597E-02    0.446E-02
DAV:   4    -0.129448536280E+03   -0.51524E-04   -0.12795E-04   280   0.631E-02    0.738E-03
DAV:   5    -0.129448541298E+03   -0.50180E-05   -0.28064E-05   336   0.271E-02    0.534E-03
DAV:   6    -0.129448543899E+03   -0.26016E-05   -0.29258E-06   268   0.893E-03
   4 F= -.12944854E+03 E0= -.12944854E+03  d E =-.352350E-02
       N       E                     dE             d eps       ncg     rms          rms(c)
DAV:   1    -0.129451640689E+03   -0.30994E-02   -0.58798E-01   332   0.399E+00    0.143E-01
DAV:   2    -0.129452719351E+03   -0.10787E-02   -0.13733E-02   397   0.524E-01    0.967E-02
DAV:   3    -0.129452680138E+03    0.39213E-04   -0.22378E-04   416   0.837E-02    0.587E-02
DAV:   4    -0.129452755606E+03   -0.75468E-04   -0.18720E-04   280   0.800E-02    0.997E-03
DAV:   5    -0.129452764795E+03   -0.91891E-05   -0.48620E-05   304   0.362E-02    0.750E-03
DAV:   6    -0.129452767928E+03   -0.31333E-05   -0.56441E-06   272   0.126E-02
   5 F= -.12945277E+03 E0= -.12945277E+03  d E =-.422403E-02
       N       E                     dE             d eps       ncg     rms          rms(c)
DAV:   1    -0.129455132855E+03   -0.23681E-02   -0.76002E-01   328   0.449E+00    0.158E-01
DAV:   2    -0.129456562670E+03   -0.14298E-02   -0.17572E-02   396   0.578E-01    0.110E-01
DAV:   3    -0.129456517561E+03    0.45109E-04   -0.27340E-04   431   0.915E-02    0.678E-02
DAV:   4    -0.129456636988E+03   -0.11943E-03   -0.22979E-04   332   0.886E-02    0.109E-02
DAV:   5    -0.129456650104E+03   -0.13116E-04   -0.55984E-05   304   0.383E-02    0.845E-03
DAV:   6    -0.129456653662E+03   -0.35582E-05   -0.57711E-06   246   0.128E-02
   6 F= -.12945665E+03 E0= -.12945665E+03  d E =-.388573E-02
       N       E                     dE             d eps       ncg     rms          rms(c)
DAV:   1    -0.129458938400E+03   -0.22883E-02   -0.91331E-01   328   0.490E+00    0.172E-01
DAV:   2    -0.129460630920E+03   -0.16925E-02   -0.21249E-02   395   0.634E-01    0.118E-01
DAV:   3    -0.129460580214E+03    0.50706E-04   -0.31038E-04   432   0.961E-02    0.721E-02
DAV:   4    -0.129460746483E+03   -0.16627E-03   -0.26686E-04   389   0.921E-02    0.124E-02
DAV:   5    -0.129460758675E+03   -0.12192E-04   -0.51064E-05   304   0.359E-02    0.860E-03
DAV:   6    -0.129460762507E+03   -0.38321E-05   -0.43469E-06   254   0.111E-02
   7 F= -.12946076E+03 E0= -.12946076E+03  d E =-.410884E-02
       N       E                     dE             d eps       ncg     rms          rms(c)
DAV:   1    -0.129462311484E+03   -0.15528E-02   -0.13099E+00   328   0.587E+00    0.206E-01
DAV:   2    -0.129464677946E+03   -0.23665E-02   -0.30245E-02   396   0.763E-01    0.141E-01
DAV:   3    -0.129464589242E+03    0.88704E-04   -0.42338E-04   462   0.111E-01    0.860E-02
DAV:   4    -0.129464832789E+03   -0.24355E-03   -0.35966E-04   395   0.109E-01    0.140E-02
DAV:   5    -0.129464852699E+03   -0.19911E-04   -0.71884E-05   304   0.429E-02    0.101E-02
DAV:   6    -0.129464859713E+03   -0.70140E-05   -0.63785E-06   298   0.132E-02
   8 F= -.12946486E+03 E0= -.12946486E+03  d E =-.409721E-02
       N       E                     dE             d eps       ncg     rms          rms(c)
DAV:   1    -0.129465337938E+03   -0.48524E-03   -0.17444E+00   328   0.675E+00    0.229E-01
DAV:   2    -0.129468555230E+03   -0.32173E-02   -0.40097E-02   396   0.868E-01    0.160E-01
DAV:   3    -0.129468455225E+03    0.10001E-03   -0.57542E-04   438   0.129E-01    0.984E-02
DAV:   4    -0.129468789471E+03   -0.33425E-03   -0.44859E-04   395   0.122E-01    0.160E-02
DAV:   5    -0.129468823572E+03   -0.34100E-04   -0.10026E-04   336   0.491E-02    0.123E-02
DAV:   6    -0.129468833588E+03   -0.10017E-04   -0.69393E-06   298   0.137E-02
   9 F= -.12946883E+03 E0= -.12946883E+03  d E =-.397387E-02
       N       E                     dE             d eps       ncg     rms          rms(c)
DAV:   1    -0.129468082637E+03    0.74093E-03   -0.22935E+00   328   0.771E+00    0.267E-01
DAV:   2    -0.129472546216E+03   -0.44636E-02   -0.54575E-02   420   0.101E+00    0.188E-01
DAV:   3    -0.129472375785E+03    0.17043E-03   -0.76468E-04   463   0.149E-01    0.116E-01
DAV:   4    -0.129472793489E+03   -0.41770E-03   -0.67304E-04   396   0.150E-01    0.193E-02
DAV:   5    -0.129472835789E+03   -0.42299E-04   -0.15336E-04   368   0.605E-02    0.143E-02
DAV:   6    -0.129472844565E+03   -0.87760E-05   -0.78108E-06   270   0.146E-02
  10 F= -.12947284E+03 E0= -.12947284E+03  d E =-.401098E-02
       N       E                     dE             d eps       ncg     rms          rms(c)
DAV:   1    -0.129470147728E+03    0.26881E-02   -0.30531E+00   328   0.884E+00    0.314E-01
DAV:   2    -0.129476319242E+03   -0.61715E-02   -0.75185E-02   388   0.118E+00    0.215E-01
DAV:   3    -0.129476124511E+03    0.19473E-03   -0.12241E-03   448   0.172E-01    0.136E-01
DAV:   4    -0.129476655384E+03   -0.53087E-03   -0.89750E-04   386   0.175E-01    0.223E-02
DAV:   5    -0.129476703498E+03   -0.48114E-04   -0.21855E-04   400   0.708E-02    0.176E-02
DAV:   6    -0.129476719701E+03   -0.16203E-04   -0.11097E-05   318   0.185E-02
  11 F= -.12947672E+03 E0= -.12947672E+03  d E =-.387514E-02
       N       E                     dE             d eps       ncg     rms          rms(c)
DAV:   1    -0.129470348911E+03    0.63546E-02   -0.39625E+00   328   0.100E+01    0.367E-01
DAV:   2    -0.129479254316E+03   -0.89054E-02   -0.10807E-01   364   0.140E+00    0.272E-01
DAV:   3    -0.129478780421E+03    0.47390E-03   -0.21766E-03   463   0.231E-01    0.177E-01
DAV:   4    -0.129479402854E+03   -0.62243E-03   -0.15798E-03   396   0.229E-01    0.324E-02
DAV:   5    -0.129479482373E+03   -0.79519E-04   -0.37231E-04   464   0.911E-02    0.217E-02
DAV:   6    -0.129479496496E+03   -0.14123E-04   -0.16049E-05   336   0.213E-02
  12 F= -.12947950E+03 E0= -.12947950E+03  d E =-.277679E-02
       N       E                     dE             d eps       ncg     rms          rms(c)
DAV:   1    -0.129481935802E+03   -0.24534E-02   -0.13040E-01   330   0.186E+00    0.122E-01
DAV:   2    -0.129482372230E+03   -0.43643E-03   -0.57880E-03   427   0.336E-01    0.713E-02
DAV:   3    -0.129482323008E+03    0.49222E-04   -0.16278E-04   373   0.705E-02    0.393E-02
DAV:   4    -0.129482322989E+03    0.19154E-07   -0.10682E-04   323   0.530E-02    0.899E-03
DAV:   5    -0.129482332707E+03   -0.97180E-05   -0.19782E-05   368   0.217E-02    0.476E-03
DAV:   6    -0.129482339987E+03   -0.72802E-05   -0.25335E-06   298   0.823E-03
  13 F= -.12948234E+03 E0= -.12948234E+03  d E =-.284349E-02
       N       E                     dE             d eps       ncg     rms          rms(c)
DAV:   1    -0.129480913612E+03    0.14191E-02   -0.16266E-01   336   0.209E+00    0.129E-01
DAV:   2    -0.129481424164E+03   -0.51055E-03   -0.70246E-03   411   0.373E-01    0.794E-02
DAV:   3    -0.129481340167E+03    0.83997E-04   -0.20821E-04   432   0.788E-02    0.448E-02
DAV:   4    -0.129481309951E+03    0.30215E-04   -0.11958E-04   296   0.576E-02    0.119E-02
DAV:   5    -0.129481312721E+03   -0.27700E-05   -0.26066E-05   360   0.254E-02    0.571E-03
DAV:   6    -0.129481318586E+03   -0.58646E-05   -0.35264E-06   266   0.101E-02
  14 F= -.12948132E+03 E0= -.12948132E+03  d E =0.102140E-02
       N       E                     dE             d eps       ncg     rms          rms(c)
DAV:   1    -0.129481928862E+03   -0.61614E-03   -0.48103E-03   400   0.354E-01    0.238E-02
DAV:   2    -0.129481951637E+03   -0.22775E-04   -0.20717E-04   378   0.631E-02    0.130E-02
DAV:   3    -0.129481955918E+03   -0.42817E-05   -0.65646E-06   304   0.142E-02    0.723E-03
DAV:   4    -0.129481964233E+03   -0.83148E-05   -0.42594E-06   265   0.104E-02    0.153E-03
DAV:   5    -0.129481968203E+03   -0.39699E-05   -0.93260E-07   304   0.453E-03    0.717E-04
DAV:   6    -0.129481970817E+03   -0.26139E-05   -0.19358E-07   200   0.193E-03
  15 F= -.12948197E+03 E0= -.12948197E+03  d E =-.652231E-03
       N       E                     dE             d eps       ncg     rms          rms(c)
DAV:   1    -0.129482716913E+03   -0.74871E-03   -0.15740E-02   374   0.642E-01    0.424E-02
DAV:   2    -0.129482769837E+03   -0.52925E-04   -0.70075E-04   409   0.116E-01    0.242E-02
DAV:   3    -0.129482763663E+03    0.61741E-05   -0.17811E-05   295   0.239E-02    0.136E-02
DAV:   4    -0.129482762818E+03    0.84555E-06   -0.14742E-05   264   0.198E-02    0.313E-03
DAV:   5    -0.129482763325E+03   -0.50689E-06   -0.31628E-06   336   0.892E-03    0.154E-03
DAV:   6    -0.129482763754E+03   -0.42968E-06   -0.44721E-07   234   0.355E-03
  16 F= -.12948276E+03 E0= -.12948276E+03  d E =-.792937E-03
       N       E                     dE             d eps       ncg     rms          rms(c)
DAV:   1    -0.129483114339E+03   -0.35101E-03   -0.24165E-02   391   0.797E-01    0.521E-02
DAV:   2    -0.129483189311E+03   -0.74972E-04   -0.10683E-03   401   0.143E-01    0.300E-02
DAV:   3    -0.129483176046E+03    0.13264E-04   -0.27437E-05   304   0.296E-02    0.169E-02
DAV:   4    -0.129483170356E+03    0.56907E-05   -0.22587E-05   264   0.247E-02    0.394E-03
DAV:   5    -0.129483170062E+03    0.29413E-06   -0.49127E-06   336   0.111E-02    0.196E-03
DAV:   6    -0.129483170593E+03   -0.53181E-06   -0.74703E-07   232   0.447E-03
  17 F= -.12948317E+03 E0= -.12948317E+03  d E =-.406839E-03
       N       E                     dE             d eps       ncg     rms          rms(c)
DAV:   1    -0.129483052449E+03    0.11761E-03   -0.20569E-02   392   0.738E-01    0.455E-02
DAV:   2    -0.129483113419E+03   -0.60970E-04   -0.86380E-04   421   0.129E-01    0.269E-02
DAV:   3    -0.129483103048E+03    0.10371E-04   -0.20700E-05   272   0.265E-02    0.155E-02
DAV:   4    -0.129483099873E+03    0.31753E-05   -0.22246E-05   264   0.243E-02    0.367E-03
DAV:   5    -0.129483100456E+03   -0.58308E-06   -0.46202E-06   248   0.116E-02    0.177E-03
DAV:   6    -0.129483101549E+03   -0.10933E-05   -0.73044E-07   208   0.444E-03
  18 F= -.12948310E+03 E0= -.12948310E+03  d E =0.690440E-04
       N       E                     dE             d eps       ncg     rms          rms(c)
DAV:   1    -0.129483147835E+03   -0.47379E-04   -0.74596E-05   326   0.440E-02    0.248E-03
DAV:   2    -0.129483149374E+03   -0.15388E-05   -0.34709E-06   262   0.947E-03    0.153E-03
DAV:   3    -0.129483150651E+03   -0.12768E-05   -0.35541E-07   204   0.302E-03    0.941E-04
DAV:   4    -0.129483152831E+03   -0.21799E-05   -0.16241E-07   299   0.171E-03    0.283E-04
DAV:   5    -0.129483153781E+03   -0.95031E-06   -0.44362E-08   272   0.786E-04    0.153E-04
DAV:   6    -0.129483154781E+03   -0.10004E-05   -0.31503E-08   232   0.476E-04
  19 F= -.12948315E+03 E0= -.12948315E+03  d E =-.532320E-04
       N       E                     dE             d eps       ncg     rms          rms(c)
DAV:   1    -0.129483237856E+03   -0.84075E-04   -0.29708E-04   335   0.880E-02    0.457E-03
DAV:   2    -0.129483239235E+03   -0.13795E-05   -0.12749E-05   266   0.168E-02    0.289E-03
DAV:   3    -0.129483239732E+03   -0.49672E-06   -0.13017E-06   206   0.559E-03    0.175E-03
DAV:   4    -0.129483240510E+03   -0.77810E-06   -0.43930E-07   297   0.309E-03    0.537E-04
DAV:   5    -0.129483240838E+03   -0.32792E-06   -0.60250E-08   272   0.147E-03    0.270E-04
DAV:   6    -0.129483241148E+03   -0.31020E-06    0.48849E-09   200   0.712E-04
  20 F= -.12948324E+03 E0= -.12948324E+03  d E =-.863666E-04
       N       E                     dE             d eps       ncg     rms          rms(c)
DAV:   1    -0.129483348604E+03   -0.10777E-03   -0.63015E-04   368   0.128E-01    0.756E-03
DAV:   2    -0.129483350241E+03   -0.16371E-05   -0.23374E-05   232   0.224E-02    0.433E-03
DAV:   3    -0.129483350313E+03   -0.72031E-07   -0.23831E-06   272   0.760E-03    0.228E-03
DAV:   4    -0.129483350402E+03   -0.89843E-07   -0.58900E-07   200   0.396E-03    0.665E-04
DAV:   5    -0.129483350485E+03   -0.82115E-07   -0.16072E-07   336   0.202E-03    0.303E-04
DAV:   6    -0.129483350538E+03   -0.53666E-07    0.39536E-08   202   0.874E-04
  21 F= -.12948335E+03 E0= -.12948335E+03  d E =-.109390E-03
       N       E                     dE             d eps       ncg     rms          rms(c)
DAV:   1    -0.129483468044E+03   -0.11756E-03   -0.10128E-03   392   0.161E-01    0.934E-03
DAV:   2    -0.129483470279E+03   -0.22345E-05   -0.36952E-05   229   0.281E-02    0.541E-03
DAV:   3    -0.129483470081E+03    0.19800E-06   -0.37722E-06   264   0.950E-03    0.288E-03
DAV:   4    -0.129483469871E+03    0.21003E-06   -0.97660E-07   210   0.496E-03    0.837E-04
DAV:   5    -0.129483469862E+03    0.87603E-08   -0.23564E-07   264   0.253E-03    0.349E-04
DAV:   6    -0.129483469927E+03   -0.64895E-07   -0.37560E-08   192   0.123E-03
  22 F= -.12948347E+03 E0= -.12948347E+03  d E =-.119389E-03
       N       E                     dE             d eps       ncg     rms          rms(c)
DAV:   1    -0.129483584453E+03   -0.11459E-03   -0.13822E-03   330   0.188E-01    0.106E-02
DAV:   2    -0.129483587713E+03   -0.32597E-05   -0.51215E-05   242   0.323E-02    0.619E-03
DAV:   3    -0.129483587352E+03    0.36092E-06   -0.34560E-06   254   0.881E-03    0.360E-03
DAV:   4    -0.129483587093E+03    0.25862E-06   -0.15907E-06   200   0.621E-03    0.829E-04
DAV:   5    -0.129483587163E+03   -0.69903E-07   -0.36972E-07   167   0.299E-03    0.434E-04
DAV:   6    -0.129483587266E+03   -0.10311E-06   -0.81372E-08   200   0.135E-03
  23 F= -.12948359E+03 E0= -.12948359E+03  d E =-.117339E-03
       N       E                     dE             d eps       ncg     rms          rms(c)
DAV:   1    -0.129483690410E+03   -0.10325E-03   -0.16725E-03   329   0.206E-01    0.110E-02
DAV:   2    -0.129483694350E+03   -0.39404E-05   -0.59607E-05   233   0.347E-02    0.658E-03
DAV:   3    -0.129483694022E+03    0.32865E-06   -0.39177E-06   182   0.934E-03    0.386E-03
DAV:   4    -0.129483693844E+03    0.17762E-06   -0.18093E-06   218   0.661E-03    0.877E-04
DAV:   5    -0.129483693955E+03   -0.11102E-06   -0.43623E-07   164   0.318E-03    0.465E-04
DAV:   6    -0.129483694094E+03   -0.13858E-06   -0.10728E-07   181   0.144E-03
  24 F= -.12948369E+03 E0= -.12948369E+03  d E =-.106828E-03
       N       E                     dE             d eps       ncg     rms          rms(c)
DAV:   1    -0.129483794308E+03   -0.10035E-03   -0.22657E-03   330   0.238E-01    0.118E-02
DAV:   2    -0.129483799496E+03   -0.51874E-05   -0.75459E-05   234   0.387E-02    0.725E-03
DAV:   3    -0.129483799202E+03    0.29389E-06   -0.46918E-06   172   0.102E-02    0.433E-03
DAV:   4    -0.129483799126E+03    0.75835E-07   -0.21791E-06   193   0.727E-03    0.955E-04
DAV:   5    -0.129483799267E+03   -0.14059E-06   -0.54210E-07   164   0.348E-03    0.517E-04
DAV:   6    -0.129483799429E+03   -0.16273E-06   -0.13996E-07   165   0.157E-03
  25 F= -.12948380E+03 E0= -.12948380E+03  d E =-.105336E-03
       N       E                     dE             d eps       ncg     rms          rms(c)
DAV:   1    -0.129483904990E+03   -0.10572E-03   -0.28890E-03   337   0.266E-01    0.117E-02
DAV:   2    -0.129483911221E+03   -0.62312E-05   -0.86963E-05   241   0.408E-02    0.755E-03
DAV:   3    -0.129483911069E+03    0.15183E-06   -0.49338E-06   164   0.104E-02    0.463E-03
DAV:   4    -0.129483911237E+03   -0.16734E-06   -0.22842E-06   208   0.754E-03    0.969E-04
DAV:   5    -0.129483911409E+03   -0.17197E-06   -0.59641E-07   164   0.358E-03    0.555E-04
DAV:   6    -0.129483911592E+03   -0.18336E-06   -0.15567E-07   172   0.161E-03
  26 F= -.12948391E+03 E0= -.12948391E+03  d E =-.112163E-03
       N       E                     dE             d eps       ncg     rms          rms(c)
DAV:   1    -0.129484044809E+03   -0.13340E-03   -0.36525E-03   329   0.296E-01    0.114E-02
DAV:   2    -0.129484052023E+03   -0.72145E-05   -0.96507E-05   236   0.419E-02    0.762E-03
DAV:   3    -0.129484052102E+03   -0.78238E-07   -0.48353E-06   164   0.101E-02    0.483E-03
DAV:   4    -0.129484052697E+03   -0.59497E-06   -0.21210E-06   235   0.748E-03    0.907E-04
DAV:   5    -0.129484052899E+03   -0.20218E-06   -0.60870E-07   164   0.353E-03    0.577E-04
DAV:   6    -0.129484053089E+03   -0.19070E-06   -0.15075E-07   192   0.154E-03
  27 F= -.12948405E+03 E0= -.12948405E+03  d E =-.141497E-03
       N       E                     dE             d eps       ncg     rms          rms(c)
DAV:   1    -0.129484243999E+03   -0.19110E-03   -0.49189E-03   337   0.340E-01    0.124E-02
DAV:   2    -0.129484252883E+03   -0.88841E-05   -0.11607E-04   269   0.451E-02    0.803E-03
DAV:   3    -0.129484253268E+03   -0.38507E-06   -0.53079E-06   220   0.105E-02    0.496E-03
DAV:   4    -0.129484254399E+03   -0.11303E-05   -0.20766E-06   226   0.761E-03    0.784E-04
DAV:   5    -0.129484254642E+03   -0.24341E-06   -0.64777E-07   204   0.352E-03    0.566E-04
DAV:   6    -0.129484254818E+03   -0.17545E-06   -0.14574E-07   166   0.146E-03
  28 F= -.12948425E+03 E0= -.12948425E+03  d E =-.201728E-03
       N       E                     dE             d eps       ncg     rms          rms(c)
DAV:   1    -0.129484524157E+03   -0.26951E-03   -0.73028E-03   365   0.416E-01    0.151E-02
DAV:   2    -0.129484537409E+03   -0.13252E-04   -0.17268E-04   261   0.551E-02    0.990E-03
DAV:   3    -0.129484537943E+03   -0.53361E-06   -0.78182E-06   264   0.127E-02    0.621E-03
DAV:   4    -0.129484539668E+03   -0.17246E-05   -0.30871E-06   226   0.947E-03    0.101E-03
DAV:   5    -0.129484539914E+03   -0.24670E-06   -0.97828E-07   272   0.438E-03    0.703E-04
DAV:   6    -0.129484540061E+03   -0.14691E-06   -0.20683E-07   202   0.181E-03
  29 F= -.12948454E+03 E0= -.12948454E+03  d E =-.285243E-03
       N       E                     dE             d eps       ncg     rms          rms(c)
DAV:   1    -0.129484880502E+03   -0.34059E-03   -0.11543E-02   340   0.527E-01    0.196E-02
DAV:   2    -0.129484903170E+03   -0.22668E-04   -0.29711E-04   300   0.722E-02    0.133E-02
DAV:   3    -0.129484903137E+03    0.32929E-07   -0.94719E-06   272   0.153E-02    0.858E-03
DAV:   4    -0.129484905335E+03   -0.21983E-05   -0.53858E-06   218   0.133E-02    0.153E-03
DAV:   5    -0.129484905542E+03   -0.20691E-06   -0.15317E-06   272   0.593E-03    0.100E-03
DAV:   6    -0.129484905689E+03   -0.14670E-06   -0.24697E-07   204   0.234E-03
  30 F= -.12948491E+03 E0= -.12948491E+03  d E =-.365628E-03
       N       E                     dE             d eps       ncg     rms          rms(c)
DAV:   1    -0.129485282650E+03   -0.37711E-03   -0.18196E-02   331   0.664E-01    0.252E-02
DAV:   2    -0.129485320453E+03   -0.37804E-04   -0.49394E-04   356   0.922E-02    0.178E-02
DAV:   3    -0.129485318729E+03    0.17248E-05   -0.67613E-06   263   0.146E-02    0.115E-02
DAV:   4    -0.129485322296E+03   -0.35676E-05   -0.10519E-05   273   0.177E-02    0.241E-03
DAV:   5    -0.129485322496E+03   -0.19964E-06   -0.23438E-06   264   0.790E-03    0.142E-03
DAV:   6    -0.129485322675E+03   -0.17891E-06   -0.23703E-07   200   0.262E-03
  31 F= -.12948532E+03 E0= -.12948532E+03  d E =-.416986E-03
       N       E                     dE             d eps       ncg     rms          rms(c)
DAV:   1    -0.129485718930E+03   -0.39643E-03   -0.27381E-02   331   0.811E-01    0.301E-02
DAV:   2    -0.129485774007E+03   -0.55077E-04   -0.71778E-04   348   0.110E-01    0.212E-02
DAV:   3    -0.129485771998E+03    0.20088E-05   -0.91629E-06   226   0.170E-02    0.137E-02
DAV:   4    -0.129485777921E+03   -0.59231E-05   -0.13870E-05   243   0.208E-02    0.270E-03
DAV:   5    -0.129485778336E+03   -0.41544E-06   -0.34212E-06   218   0.939E-03    0.167E-03
DAV:   6    -0.129485778669E+03   -0.33258E-06   -0.35885E-07   224   0.312E-03
  32 F= -.12948578E+03 E0= -.12948578E+03  d E =-.455994E-03
       N       E                     dE             d eps       ncg     rms          rms(c)
DAV:   1    -0.129486242369E+03   -0.46403E-03   -0.40091E-02   332   0.971E-01    0.353E-02
DAV:   2    -0.129486319518E+03   -0.77149E-04   -0.99353E-04   355   0.128E-01    0.242E-02
DAV:   3    -0.129486317884E+03    0.16342E-05   -0.11325E-05   271   0.190E-02    0.153E-02
DAV:   4    -0.129486327427E+03   -0.95435E-05   -0.16527E-05   232   0.229E-02    0.275E-03
DAV:   5    -0.129486328119E+03   -0.69150E-06   -0.41736E-06   242   0.101E-02    0.192E-03
DAV:   6    -0.129486328660E+03   -0.54107E-06   -0.40395E-07   235   0.335E-03
  33 F= -.12948633E+03 E0= -.12948633E+03  d E =-.549991E-03
       N       E                     dE             d eps       ncg     rms          rms(c)
DAV:   1    -0.129486913984E+03   -0.58586E-03   -0.61116E-02   330   0.119E+00    0.434E-02
DAV:   2    -0.129487031510E+03   -0.11753E-03   -0.15033E-03   364   0.157E-01    0.293E-02
DAV:   3    -0.129487029388E+03    0.21227E-05   -0.18843E-05   304   0.230E-02    0.182E-02
DAV:   4    -0.129487043012E+03   -0.13624E-04   -0.20153E-05   288   0.261E-02    0.294E-03
DAV:   5    -0.129487043965E+03   -0.95348E-06   -0.51228E-06   272   0.109E-02    0.240E-03
DAV:   6    -0.129487044711E+03   -0.74548E-06   -0.48563E-07   226   0.373E-03
  34 F= -.12948704E+03 E0= -.12948704E+03  d E =-.716051E-03
       N       E                     dE             d eps       ncg     rms          rms(c)
DAV:   1    -0.129487689154E+03   -0.64519E-03   -0.96814E-02   334   0.150E+00    0.552E-02
DAV:   2    -0.129487880088E+03   -0.19093E-03   -0.24434E-03   365   0.200E-01    0.376E-02
DAV:   3    -0.129487875022E+03    0.50657E-05   -0.32134E-05   336   0.294E-02    0.237E-02
DAV:   4    -0.129487894828E+03   -0.19805E-04   -0.34198E-05   240   0.338E-02    0.387E-03
DAV:   5    -0.129487896472E+03   -0.16443E-05   -0.90685E-06   272   0.145E-02    0.305E-03
DAV:   6    -0.129487897684E+03   -0.12115E-05   -0.94425E-07   264   0.482E-03
  35 F= -.12948790E+03 E0= -.12948790E+03  d E =-.852973E-03
       N       E                     dE             d eps       ncg     rms          rms(c)
DAV:   1    -0.129488529489E+03   -0.63302E-03   -0.14995E-01   331   0.185E+00    0.684E-02
DAV:   2    -0.129488822050E+03   -0.29256E-03   -0.37427E-03   340   0.246E-01    0.464E-02
DAV:   3    -0.129488815421E+03    0.66287E-05   -0.48297E-05   310   0.358E-02    0.290E-02
DAV:   4    -0.129488847951E+03   -0.32530E-04   -0.51271E-05   266   0.413E-02    0.473E-03
DAV:   5    -0.129488850465E+03   -0.25139E-05   -0.13658E-05   256   0.177E-02    0.372E-03
DAV:   6    -0.129488852421E+03   -0.19564E-05   -0.13965E-06   264   0.588E-03
  36 F= -.12948885E+03 E0= -.12948885E+03  d E =-.954738E-03
       N       E                     dE             d eps       ncg     rms          rms(c)
DAV:   1    -0.129489556903E+03   -0.70644E-03   -0.22628E-01   328   0.227E+00    0.835E-02
DAV:   2    -0.129489992374E+03   -0.43547E-03   -0.55483E-03   356   0.298E-01    0.564E-02
DAV:   3    -0.129489984148E+03    0.82258E-05   -0.71532E-05   356   0.434E-02    0.350E-02
DAV:   4    -0.129490037315E+03   -0.53167E-04   -0.75788E-05   252   0.506E-02    0.577E-03
DAV:   5    -0.129490040774E+03   -0.34592E-05   -0.20187E-05   255   0.216E-02    0.429E-03
DAV:   6    -0.129490043310E+03   -0.25359E-05   -0.19338E-06   264   0.695E-03
  37 F= -.12949004E+03 E0= -.12949004E+03  d E =-.119089E-02
       N       E                     dE             d eps       ncg     rms          rms(c)
DAV:   1    -0.129490725577E+03   -0.68480E-03   -0.34499E-01   328   0.280E+00    0.103E-01
DAV:   2    -0.129491407983E+03   -0.68241E-03   -0.85822E-03   364   0.370E-01    0.711E-02
DAV:   3    -0.129491389003E+03    0.18980E-04   -0.11908E-04   399   0.548E-02    0.452E-02
DAV:   4    -0.129491466517E+03   -0.77514E-04   -0.11919E-04   307   0.627E-02    0.741E-03
DAV:   5    -0.129491472063E+03   -0.55465E-05   -0.28681E-05   296   0.254E-02    0.539E-03
DAV:   6    -0.129491474875E+03   -0.28119E-05   -0.21125E-06   232   0.748E-03
  38 F= -.12949147E+03 E0= -.12949147E+03  d E =-.143156E-02
       N       E                     dE             d eps       ncg     rms          rms(c)
DAV:   1    -0.129491988775E+03   -0.51671E-03   -0.50717E-01   328   0.339E+00    0.125E-01
DAV:   2    -0.129492994145E+03   -0.10054E-02   -0.12481E-02   372   0.445E-01    0.852E-02
DAV:   3    -0.129492969960E+03    0.24186E-04   -0.17406E-04   422   0.653E-02    0.534E-02
DAV:   4    -0.129493074661E+03   -0.10470E-03   -0.14924E-04   331   0.713E-02    0.827E-03
DAV:   5    -0.129493083298E+03   -0.86376E-05   -0.39398E-05   280   0.293E-02    0.647E-03
DAV:   6    -0.129493087491E+03   -0.41926E-05   -0.31928E-06   264   0.909E-03
  39 F= -.12949309E+03 E0= -.12949309E+03  d E =-.161262E-02
       N       E                     dE             d eps       ncg     rms          rms(c)
DAV:   1    -0.129493455785E+03   -0.37249E-03   -0.70539E-01   328   0.400E+00    0.148E-01
DAV:   2    -0.129494861997E+03   -0.14062E-02   -0.17491E-02   364   0.528E-01    0.100E-01
DAV:   3    -0.129494833072E+03    0.28925E-04   -0.23838E-04   416   0.764E-02    0.623E-02
DAV:   4    -0.129494971384E+03   -0.13831E-03   -0.21757E-04   395   0.840E-02    0.102E-02
DAV:   5    -0.129494981281E+03   -0.98965E-05   -0.52354E-05   336   0.330E-02    0.845E-03
DAV:   6    -0.129494986913E+03   -0.56316E-05   -0.38015E-06   296   0.974E-03
  40 F= -.12949499E+03 E0= -.12949499E+03  d E =-.189942E-02
       N       E                     dE             d eps       ncg     rms          rms(c)
DAV:   1    -0.129495113331E+03   -0.13205E-03   -0.91194E-01   328   0.455E+00    0.168E-01
DAV:   2    -0.129496924930E+03   -0.18116E-02   -0.22471E-02   364   0.599E-01    0.114E-01
DAV:   3    -0.129496892248E+03    0.32682E-04   -0.31403E-04   405   0.872E-02    0.705E-02
DAV:   4    -0.129497070717E+03   -0.17847E-03   -0.27670E-04   395   0.955E-02    0.116E-02
DAV:   5    -0.129497083452E+03   -0.12734E-04   -0.65751E-05   311   0.374E-02    0.910E-03
DAV:   6    -0.129497090892E+03   -0.74406E-05   -0.44920E-06   296   0.107E-02
  41 F= -.12949709E+03 E0= -.12949709E+03  d E =-.210398E-02
       N       E                     dE             d eps       ncg     rms          rms(c)
DAV:   1    -0.129496895837E+03    0.18761E-03   -0.11070E+00   328   0.507E+00    0.186E-01
DAV:   2    -0.129499132427E+03   -0.22366E-02   -0.27637E-02   364   0.672E-01    0.129E-01
DAV:   3    -0.129499089515E+03    0.42911E-04   -0.42417E-04   463   0.101E-01    0.810E-02
DAV:   4    -0.129499297211E+03   -0.20770E-03   -0.32121E-04   387   0.105E-01    0.131E-02
DAV:   5    -0.129499314749E+03   -0.17537E-04   -0.80681E-05   328   0.418E-02    0.986E-03
DAV:   6    -0.129499321652E+03   -0.69035E-05   -0.45834E-06   296   0.106E-02
  42 F= -.12949932E+03 E0= -.12949932E+03  d E =-.223076E-02
       N       E                     dE             d eps       ncg     rms          rms(c)
DAV:   1    -0.129498961091E+03    0.35366E-03   -0.12415E+00   328   0.544E+00    0.201E-01
DAV:   2    -0.129501479038E+03   -0.25179E-02   -0.31252E-02   364   0.731E-01    0.135E-01
DAV:   3    -0.129501435664E+03    0.43374E-04   -0.46219E-04   438   0.106E-01    0.845E-02
DAV:   4    -0.129501647156E+03   -0.21149E-03   -0.35432E-04   395   0.110E-01    0.135E-02
DAV:   5    -0.129501665721E+03   -0.18565E-04   -0.88826E-05   368   0.439E-02    0.114E-02
DAV:   6    -0.129501675574E+03   -0.98532E-05   -0.58056E-06   288   0.125E-02
  43 F= -.12950168E+03 E0= -.12950168E+03  d E =-.235392E-02
       N       E                     dE             d eps       ncg     rms          rms(c)
DAV:   1    -0.129501218619E+03    0.44710E-03   -0.13347E+00   328   0.574E+00    0.209E-01
DAV:   2    -0.129503930413E+03   -0.27118E-02   -0.33785E-02   364   0.773E-01    0.147E-01
DAV:   3    -0.129503866603E+03    0.63811E-04   -0.57441E-04   462   0.119E-01    0.927E-02
DAV:   4    -0.129504119815E+03   -0.25321E-03   -0.41298E-04   370   0.119E-01    0.165E-02
DAV:   5    -0.129504139428E+03   -0.19613E-04   -0.10392E-04   336   0.488E-02    0.112E-02
DAV:   6    -0.129504147059E+03   -0.76304E-05   -0.63951E-06   308   0.124E-02
  44 F= -.12950415E+03 E0= -.12950415E+03  d E =-.247148E-02
       N       E                     dE             d eps       ncg     rms          rms(c)
DAV:   1    -0.129503299309E+03    0.84012E-03   -0.15351E+00   328   0.624E+00    0.232E-01
DAV:   2    -0.129506399007E+03   -0.30997E-02   -0.38743E-02   348   0.847E-01    0.155E-01
DAV:   3    -0.129506334646E+03    0.64361E-04   -0.62718E-04   430   0.127E-01    0.956E-02
DAV:   4    -0.129506582015E+03   -0.24737E-03   -0.43595E-04   403   0.123E-01    0.160E-02
DAV:   5    -0.129506605195E+03   -0.23180E-04   -0.10421E-04   368   0.494E-02    0.124E-02
DAV:   6    -0.129506616895E+03   -0.11700E-04   -0.67445E-06   304   0.136E-02
  45 F= -.12950662E+03 E0= -.12950662E+03  d E =-.246984E-02
       N       E                     dE             d eps       ncg     rms          rms(c)
DAV:   1    -0.129504463400E+03    0.21418E-02   -0.18307E+00   328   0.694E+00    0.260E-01
DAV:   2    -0.129508369936E+03   -0.39065E-02   -0.49179E-02   364   0.970E-01    0.189E-01
DAV:   3    -0.129508209404E+03    0.16053E-03   -0.10125E-03   463   0.161E-01    0.121E-01
DAV:   4    -0.129508492982E+03   -0.28358E-03   -0.71807E-04   387   0.154E-01    0.235E-02
DAV:   5    -0.129508517961E+03   -0.24979E-04   -0.16746E-04   400   0.629E-02    0.145E-02
DAV:   6    -0.129508526721E+03   -0.87601E-05   -0.11704E-05   296   0.171E-02
  46 F= -.12950853E+03 E0= -.12950853E+03  d E =-.190983E-02
       N       E                     dE             d eps       ncg     rms          rms(c)
DAV:   1    -0.129509523826E+03   -0.10059E-02   -0.60881E-02   329   0.131E+00    0.833E-02
DAV:   2    -0.129509730584E+03   -0.20676E-03   -0.27895E-03   425   0.240E-01    0.484E-02
DAV:   3    -0.129509709520E+03    0.21064E-04   -0.67328E-05   351   0.471E-02    0.272E-02
DAV:   4    -0.129509711456E+03   -0.19353E-05   -0.57806E-05   291   0.403E-02    0.569E-03
DAV:   5    -0.129509719063E+03   -0.76077E-05   -0.11981E-05   368   0.173E-02    0.308E-03
DAV:   6    -0.129509725003E+03   -0.59399E-05   -0.18065E-06   268   0.682E-03
  47 F= -.12950973E+03 E0= -.12950973E+03  d E =-.119828E-02
       N       E                     dE             d eps       ncg     rms          rms(c)
DAV:   1    -0.129508916227E+03    0.80284E-03   -0.67373E-02   373   0.138E+00    0.844E-02
DAV:   2    -0.129509131611E+03   -0.21538E-03   -0.30953E-03   420   0.253E-01    0.510E-02
DAV:   3    -0.129509095482E+03    0.36129E-04   -0.73845E-05   368   0.491E-02    0.294E-02
DAV:   4    -0.129509078210E+03    0.17271E-04   -0.66561E-05   264   0.433E-02    0.638E-03
DAV:   5    -0.129509080828E+03   -0.26173E-05   -0.13876E-05   368   0.188E-02    0.342E-03
DAV:   6    -0.129509084545E+03   -0.37173E-05   -0.20513E-06   232   0.743E-03
  48 F= -.12950908E+03 E0= -.12950908E+03  d E =0.640458E-03
       N       E                     dE             d eps       ncg     rms          rms(c)
DAV:   1    -0.129509413879E+03   -0.33305E-03   -0.26480E-03   392   0.271E-01    0.176E-02
DAV:   2    -0.129509426615E+03   -0.12736E-04   -0.11505E-04   370   0.495E-02    0.955E-03
DAV:   3    -0.129509429450E+03   -0.28345E-05   -0.54328E-06   248   0.121E-02    0.537E-03
DAV:   4    -0.129509433968E+03   -0.45181E-05   -0.29081E-06   280   0.848E-03    0.126E-03
DAV:   5    -0.129509435987E+03   -0.20191E-05   -0.68055E-07   272   0.408E-03    0.608E-04
DAV:   6    -0.129509436940E+03   -0.95296E-06   -0.13961E-07   206   0.179E-03
  49 F= -.12950944E+03 E0= -.12950944E+03  d E =-.352395E-03
       N       E                     dE             d eps       ncg     rms          rms(c)
DAV:   1    -0.129509814103E+03   -0.37812E-03   -0.84875E-03   380   0.486E-01    0.310E-02
DAV:   2    -0.129509842986E+03   -0.28883E-04   -0.38936E-04   362   0.898E-02    0.179E-02
DAV:   3    -0.129509840155E+03    0.28308E-05   -0.12224E-05   286   0.196E-02    0.101E-02
DAV:   4    -0.129509839308E+03    0.84726E-06   -0.77518E-06   274   0.148E-02    0.225E-03
DAV:   5    -0.129509839566E+03   -0.25834E-06   -0.16434E-06   304   0.655E-03    0.111E-03
DAV:   6    -0.129509839824E+03   -0.25797E-06   -0.23798E-07   204   0.270E-03
  50 F= -.12950984E+03 E0= -.12950984E+03  d E =-.402885E-03
       N       E                     dE             d eps       ncg     rms          rms(c)
DAV:   1    -0.129509970314E+03   -0.13075E-03   -0.12501E-02   389   0.590E-01    0.374E-02
DAV:   2    -0.129510010171E+03   -0.39857E-04   -0.58158E-04   404   0.109E-01    0.221E-02
DAV:   3    -0.129510002923E+03    0.72476E-05   -0.13627E-05   272   0.217E-02    0.127E-02
DAV:   4    -0.129509998942E+03    0.39814E-05   -0.14582E-05   264   0.198E-02    0.296E-03
DAV:   5    -0.129509998704E+03    0.23817E-06   -0.33150E-06   304   0.957E-03    0.155E-03
DAV:   6    -0.129509998965E+03   -0.26101E-06   -0.48425E-07   252   0.372E-03
  51 F= -.12951000E+03 E0= -.12951000E+03  d E =-.159140E-03
       N       E                     dE             d eps       ncg     rms          rms(c)
DAV:   1    -0.129510004913E+03   -0.62094E-05   -0.53856E-06   285   0.122E-02    0.706E-04
DAV:   2    -0.129510005452E+03   -0.53851E-06   -0.28859E-07   267   0.298E-03    0.475E-04
DAV:   3    -0.129510006075E+03   -0.62361E-06   -0.48709E-08   204   0.107E-03    0.320E-04
DAV:   4    -0.129510007260E+03   -0.11846E-05   -0.41531E-08   267   0.723E-04    0.116E-04
DAV:   5    -0.129510007939E+03   -0.67900E-06   -0.73241E-09   272   0.434E-04    0.965E-05
DAV:   6    -0.129510009127E+03   -0.11876E-05   -0.16489E-08   264   0.504E-04
  52 F= -.12951001E+03 E0= -.12951001E+03  d E =-.101618E-04
       N       E                     dE             d eps       ncg     rms          rms(c)
DAV:   1    -0.129510020250E+03   -0.12311E-04   -0.22273E-05   270   0.248E-02    0.991E-04
DAV:   2    -0.129510020541E+03   -0.29040E-06   -0.11112E-06   272   0.591E-03    0.639E-04
DAV:   3    -0.129510020722E+03   -0.18132E-06   -0.81586E-08   204   0.178E-03    0.470E-04
DAV:   4    -0.129510021077E+03   -0.35481E-06    0.11330E-08   226   0.957E-04    0.117E-04
DAV:   5    -0.129510021206E+03   -0.12889E-06    0.40617E-08   264   0.437E-04    0.727E-05
DAV:   6    -0.129510021325E+03   -0.11965E-06    0.51403E-08   200   0.231E-04
  53 F= -.12951002E+03 E0= -.12951002E+03  d E =-.121989E-04
       N       E                     dE             d eps       ncg     rms          rms(c)
DAV:   1    -0.129510036649E+03   -0.15443E-04   -0.50707E-05   271   0.374E-02    0.150E-03
DAV:   2    -0.129510036930E+03   -0.28060E-06   -0.28099E-06   226   0.942E-03    0.947E-04
DAV:   3    -0.129510036990E+03   -0.60731E-07   -0.23264E-07   195   0.272E-03    0.724E-04
DAV:   4    -0.129510037046E+03   -0.56017E-07    0.30658E-10   235   0.148E-03    0.179E-04
DAV:   5    -0.129510037067E+03   -0.20450E-07    0.56976E-08   171   0.671E-04    0.121E-04
DAV:   6    -0.129510037077E+03   -0.10210E-07    0.74684E-08   165   0.364E-04
  54 F= -.12951004E+03 E0= -.12951004E+03  d E =-.157515E-04
       N       E                     dE             d eps       ncg     rms          rms(c)
DAV:   1    -0.129510056726E+03   -0.19659E-04   -0.90900E-05   196   0.496E-02    0.195E-03
DAV:   2    -0.129510057087E+03   -0.36129E-06   -0.44232E-06   164   0.117E-02    0.124E-03
DAV:   3    -0.129510057123E+03   -0.36261E-07   -0.37068E-07   164   0.349E-03    0.911E-04
DAV:   4    -0.129510057128E+03   -0.43037E-08   -0.26182E-08   244   0.185E-03    0.202E-04
DAV:   5    -0.129510057134E+03   -0.66693E-08    0.54647E-08   165   0.844E-04    0.140E-04
DAV:   6    -0.129510057139E+03   -0.42337E-08    0.77196E-08   164   0.437E-04
  55 F= -.12951006E+03 E0= -.12951006E+03  d E =-.200617E-04
       N       E                     dE             d eps       ncg     rms          rms(c)
DAV:   1    -0.129510080826E+03   -0.23691E-04   -0.13677E-04   228   0.602E-02    0.235E-03
DAV:   2    -0.129510081201E+03   -0.37489E-06   -0.49022E-06   164   0.117E-02    0.151E-03
DAV:   3    -0.129510081235E+03   -0.34166E-07   -0.39675E-07   164   0.369E-03    0.101E-03
DAV:   4    -0.129510081243E+03   -0.83064E-08   -0.33995E-08   164   0.192E-03    0.218E-04
DAV:   5    -0.129510081247E+03   -0.40545E-08    0.52491E-08   164   0.915E-04    0.141E-04
DAV:   6    -0.129510081252E+03   -0.47121E-08    0.75512E-08   164   0.455E-04
  56 F= -.12951008E+03 E0= -.12951008E+03  d E =-.241133E-04
       N       E                     dE             d eps       ncg     rms          rms(c)
DAV:   1    -0.129510108563E+03   -0.27316E-04   -0.17963E-04   228   0.689E-02    0.265E-03
DAV:   2    -0.129510109050E+03   -0.48699E-06   -0.62811E-06   164   0.132E-02    0.169E-03
DAV:   3    -0.129510109096E+03   -0.46121E-07   -0.52823E-07   164   0.417E-03    0.112E-03
DAV:   4    -0.129510109111E+03   -0.15300E-07   -0.64507E-08   164   0.215E-03    0.234E-04
DAV:   5    -0.129510109118E+03   -0.66921E-08    0.42778E-08   164   0.103E-03    0.156E-04
DAV:   6    -0.129510109124E+03   -0.64401E-08    0.71986E-08   164   0.507E-04
  57 F= -.12951011E+03 E0= -.12951011E+03  d E =-.278724E-04
       N       E                     dE             d eps       ncg     rms          rms(c)
DAV:   1    -0.129510143245E+03   -0.34127E-04   -0.26579E-04   228   0.839E-02    0.318E-03
DAV:   2    -0.129510143963E+03   -0.71815E-06   -0.90311E-06   164   0.159E-02    0.201E-03
DAV:   3    -0.129510144037E+03   -0.74123E-07   -0.79357E-07   164   0.501E-03    0.132E-03
DAV:   4    -0.129510144068E+03   -0.31061E-07   -0.12513E-07   164   0.256E-03    0.265E-04
DAV:   5    -0.129510144077E+03   -0.87593E-08    0.24750E-08   164   0.123E-03    0.181E-04
DAV:   6    -0.129510144085E+03   -0.81627E-08    0.66820E-08   164   0.602E-04
  58 F= -.12951014E+03 E0= -.12951014E+03  d E =-.349604E-04
       N       E                     dE             d eps       ncg     rms          rms(c)
DAV:   1    -0.129510186605E+03   -0.42529E-04   -0.37376E-04   260   0.996E-02    0.374E-03
DAV:   2    -0.129510187282E+03   -0.67662E-06   -0.91177E-06   164   0.148E-02    0.239E-03
DAV:   3    -0.129510187360E+03   -0.78213E-07   -0.82017E-07   164   0.493E-03    0.142E-03
DAV:   4    -0.129510187416E+03   -0.56068E-07   -0.14478E-07   164   0.259E-03    0.297E-04
DAV:   5    -0.129510187430E+03   -0.13881E-07    0.17194E-08   164   0.128E-03    0.174E-04
DAV:   6    -0.129510187440E+03   -0.10102E-07    0.63730E-08   164   0.617E-04
  59 F= -.12951019E+03 E0= -.12951019E+03  d E =-.433555E-04
       N       E                     dE             d eps       ncg     rms          rms(c)
DAV:   1    -0.129510239536E+03   -0.52106E-04   -0.50882E-04   260   0.117E-01    0.436E-03
DAV:   2    -0.129510240446E+03   -0.90995E-06   -0.11908E-05   164   0.171E-02    0.276E-03
DAV:   3    -0.129510240563E+03   -0.11677E-06   -0.11065E-06   164   0.576E-03    0.159E-03
DAV:   4    -0.129510240648E+03   -0.84869E-07   -0.21301E-07   164   0.297E-03    0.320E-04
DAV:   5    -0.129510240666E+03   -0.17541E-07   -0.35924E-09   164   0.147E-03    0.189E-04
DAV:   6    -0.129510240677E+03   -0.11446E-07    0.57171E-08   164   0.711E-04
  60 F= -.12951024E+03 E0= -.12951024E+03  d E =-.532368E-04
       N       E                     dE             d eps       ncg     rms          rms(c)
DAV:   1    -0.129510304039E+03   -0.63373E-04   -0.71470E-04   260   0.140E-01    0.520E-03
DAV:   2    -0.129510305315E+03   -0.12763E-05   -0.16456E-05   164   0.203E-02    0.328E-03
DAV:   3    -0.129510305488E+03   -0.17338E-06   -0.15841E-06   164   0.692E-03    0.185E-03
DAV:   4    -0.129510305608E+03   -0.11959E-06   -0.33125E-07   164   0.353E-03    0.373E-04
DAV:   5    -0.129510305628E+03   -0.20327E-07   -0.38630E-08   164   0.175E-03    0.216E-04
DAV:   6    -0.129510305640E+03   -0.11206E-07    0.46218E-08   164   0.851E-04
  61 F= -.12951031E+03 E0= -.12951031E+03  d E =-.649625E-04
       N       E                     dE             d eps       ncg     rms          rms(c)
DAV:   1    -0.129510382784E+03   -0.77155E-04   -0.10697E-03   292   0.171E-01    0.637E-03
DAV:   2    -0.129510384383E+03   -0.15994E-05   -0.21447E-05   164   0.220E-02    0.413E-03
DAV:   3    -0.129510384569E+03   -0.18559E-06   -0.19653E-06   164   0.726E-03    0.227E-03
DAV:   4    -0.129510384735E+03   -0.16660E-06   -0.45489E-07   164   0.381E-03    0.467E-04
DAV:   5    -0.129510384758E+03   -0.22920E-07   -0.78186E-08   164   0.185E-03    0.247E-04
DAV:   6    -0.129510384770E+03   -0.12227E-07    0.32376E-08   164   0.905E-04
  62 F= -.12951038E+03 E0= -.12951038E+03  d E =-.791310E-04
       N       E                     dE             d eps       ncg     rms          rms(c)
DAV:   1    -0.129510478751E+03   -0.93992E-04   -0.16604E-03   292   0.213E-01    0.798E-03
DAV:   2    -0.129510481264E+03   -0.25137E-05   -0.33875E-05   200   0.276E-02    0.519E-03
DAV:   3    -0.129510481535E+03   -0.27060E-06   -0.31600E-06   164   0.911E-03    0.287E-03
DAV:   4    -0.129510481789E+03   -0.25368E-06   -0.77353E-07   202   0.480E-03    0.609E-04
DAV:   5    -0.129510481821E+03   -0.32760E-07   -0.17354E-07   164   0.234E-03    0.314E-04
DAV:   6    -0.129510481841E+03   -0.19758E-07    0.22235E-09   164   0.114E-03
  63 F= -.12951048E+03 E0= -.12951048E+03  d E =-.970707E-04
       N       E                     dE             d eps       ncg     rms          rms(c)
DAV:   1    -0.129510597202E+03   -0.11538E-03   -0.25668E-03   324   0.265E-01    0.987E-03
DAV:   2    -0.129510601126E+03   -0.39240E-05   -0.52749E-05   202   0.343E-02    0.643E-03
DAV:   3    -0.129510601529E+03   -0.40276E-06   -0.49078E-06   176   0.113E-02    0.359E-03
DAV:   4    -0.129510601927E+03   -0.39795E-06   -0.12252E-06   221   0.595E-03    0.744E-04
DAV:   5    -0.129510601984E+03   -0.56704E-07   -0.30750E-07   164   0.289E-03    0.392E-04
DAV:   6    -0.129510602018E+03   -0.34407E-07   -0.35205E-08   164   0.140E-03
  64 F= -.12951060E+03 E0= -.12951060E+03  d E =-.120177E-03
       N       E                     dE             d eps       ncg     rms          rms(c)
DAV:   1    -0.129510744205E+03   -0.14222E-03   -0.41344E-03   324   0.332E-01    0.124E-02
DAV:   2    -0.129510750874E+03   -0.66689E-05   -0.87586E-05   234   0.428E-02    0.810E-03
DAV:   3    -0.129510751266E+03   -0.39138E-06   -0.53333E-06   174   0.109E-02    0.471E-03
DAV:   4    -0.129510751943E+03   -0.67706E-06   -0.19369E-06   236   0.727E-03    0.856E-04
DAV:   5    -0.129510752033E+03   -0.90173E-07   -0.52544E-07   164   0.349E-03    0.538E-04
DAV:   6    -0.129510752087E+03   -0.53795E-07   -0.84464E-08   164   0.158E-03
  65 F= -.12951075E+03 E0= -.12951075E+03  d E =-.150068E-03
       N       E                     dE             d eps       ncg     rms          rms(c)
DAV:   1    -0.129510927898E+03   -0.17586E-03   -0.77563E-03   324   0.442E-01    0.168E-02
DAV:   2    -0.129510940621E+03   -0.12723E-04   -0.16526E-04   267   0.562E-02    0.109E-02
DAV:   3    -0.129510941327E+03   -0.70601E-06   -0.94031E-06   202   0.141E-02    0.632E-03
DAV:   4    -0.129510942593E+03   -0.12659E-05   -0.34707E-06   269   0.948E-03    0.106E-03
DAV:   5    -0.129510942757E+03   -0.16475E-06   -0.98859E-07   198   0.446E-03    0.693E-04
DAV:   6    -0.129510942842E+03   -0.84387E-07   -0.20931E-07   164   0.197E-03
  66 F= -.12951094E+03 E0= -.12951094E+03  d E =-.190755E-03
       N       E                     dE             d eps       ncg     rms          rms(c)
DAV:   1    -0.129511153374E+03   -0.21062E-03   -0.16678E-02   328   0.636E-01    0.245E-02
DAV:   2    -0.129511183314E+03   -0.29939E-04   -0.38094E-04   347   0.807E-02    0.164E-02
DAV:   3    -0.129511182692E+03    0.62206E-06   -0.50676E-06   261   0.128E-02    0.982E-03
DAV:   4    -0.129511185289E+03   -0.25977E-05   -0.68960E-06   284   0.138E-02    0.180E-03
DAV:   5    -0.129511185474E+03   -0.18407E-06   -0.14238E-06   230   0.598E-03    0.125E-03
DAV:   6    -0.129511185606E+03   -0.13214E-06   -0.74343E-08   199   0.199E-03
  67 F= -.12951119E+03 E0= -.12951119E+03  d E =-.242764E-03
       N       E                     dE             d eps       ncg     rms          rms(c)
DAV:   1    -0.129511420235E+03   -0.23476E-03   -0.33956E-02   328   0.908E-01    0.348E-02
DAV:   2    -0.129511481889E+03   -0.61654E-04   -0.78086E-04   355   0.116E-01    0.234E-02
DAV:   3    -0.129511480450E+03    0.14393E-05   -0.10205E-05   236   0.181E-02    0.140E-02
DAV:   4    -0.129511486008E+03   -0.55585E-05   -0.14547E-05   308   0.199E-02    0.253E-03
DAV:   5    -0.129511486363E+03   -0.35505E-06   -0.27471E-06   245   0.828E-03    0.176E-03
DAV:   6    -0.129511486625E+03   -0.26161E-06   -0.22721E-07   200   0.272E-03
  68 F= -.12951149E+03 E0= -.12951149E+03  d E =-.301019E-03
       N       E                     dE             d eps       ncg     rms          rms(c)
DAV:   1    -0.129511730321E+03   -0.24396E-03   -0.63417E-02   330   0.124E+00    0.473E-02
DAV:   2    -0.129511846634E+03   -0.11631E-03   -0.14605E-03   364   0.160E-01    0.319E-02
DAV:   3    -0.129511843656E+03    0.29775E-05   -0.20208E-05   252   0.247E-02    0.192E-02
DAV:   4    -0.129511854336E+03   -0.10680E-04   -0.24530E-05   283   0.269E-02    0.328E-03
DAV:   5    -0.129511855002E+03   -0.66618E-06   -0.52728E-06   238   0.115E-02    0.228E-03
DAV:   6    -0.129511855461E+03   -0.45912E-06   -0.48066E-07   208   0.362E-03
  69 F= -.12951186E+03 E0= -.12951186E+03  d E =-.368836E-03
       N       E                     dE             d eps       ncg     rms          rms(c)
DAV:   1    -0.129512087112E+03   -0.23211E-03   -0.10876E-01   330   0.163E+00    0.618E-02
DAV:   2    -0.129512288150E+03   -0.20104E-03   -0.25102E-03   363   0.210E-01    0.418E-02
DAV:   3    -0.129512283439E+03    0.47114E-05   -0.38312E-05   333   0.325E-02    0.252E-02
DAV:   4    -0.129512301714E+03   -0.18276E-04   -0.38915E-05   258   0.352E-02    0.417E-03
DAV:   5    -0.129512302818E+03   -0.11040E-05   -0.92499E-06   247   0.151E-02    0.291E-03
DAV:   6    -0.129512303557E+03   -0.73852E-06   -0.82666E-07   224   0.465E-03
  70 F= -.12951230E+03 E0= -.12951230E+03  d E =-.448096E-03
       N       E                     dE             d eps       ncg     rms          rms(c)
DAV:   1    -0.129512501693E+03   -0.19887E-03   -0.17136E-01   329   0.205E+00    0.774E-02
DAV:   2    -0.129512819310E+03   -0.31762E-03   -0.39625E-03   363   0.264E-01    0.526E-02
DAV:   3    -0.129512812433E+03    0.68775E-05   -0.60336E-05   349   0.408E-02    0.318E-02
DAV:   4    -0.129512841613E+03   -0.29180E-04   -0.61304E-05   258   0.444E-02    0.522E-03
DAV:   5    -0.129512843304E+03   -0.16919E-05   -0.14653E-05   248   0.191E-02    0.366E-03
DAV:   6    -0.129512844420E+03   -0.11155E-05   -0.13242E-06   234   0.588E-03
  71 F= -.12951284E+03 E0= -.12951284E+03  d E =-.540863E-03
       N       E                     dE             d eps       ncg     rms          rms(c)
DAV:   1    -0.129513010247E+03   -0.16694E-03   -0.24512E-01   329   0.244E+00    0.926E-02
DAV:   2    -0.129513463303E+03   -0.45306E-03   -0.56457E-03   363   0.314E-01    0.627E-02
DAV:   3    -0.129513455916E+03    0.73863E-05   -0.84930E-05   331   0.485E-02    0.378E-02
DAV:   4    -0.129513495565E+03   -0.39649E-04   -0.88454E-05   299   0.528E-02    0.631E-03
DAV:   5    -0.129513497882E+03   -0.23172E-05   -0.20040E-05   238   0.222E-02    0.446E-03
DAV:   6    -0.129513499613E+03   -0.17304E-05   -0.20933E-06   265   0.731E-03
  72 F= -.12951350E+03 E0= -.12951350E+03  d E =-.655193E-03
       N       E                     dE             d eps       ncg     rms          rms(c)
DAV:   1    -0.129513685191E+03   -0.18731E-03   -0.30681E-01   328   0.272E+00    0.104E-01
DAV:   2    -0.129514248220E+03   -0.56303E-03   -0.70379E-03   363   0.347E-01    0.703E-02
DAV:   3    -0.129514240708E+03    0.75118E-05   -0.10642E-04   331   0.544E-02    0.421E-02
DAV:   4    -0.129514288950E+03   -0.48242E-04   -0.11214E-04   300   0.589E-02    0.717E-03
DAV:   5    -0.129514292038E+03   -0.30880E-05   -0.25385E-05   255   0.249E-02    0.514E-03
DAV:   6    -0.129514294510E+03   -0.24714E-05   -0.29247E-06   264   0.868E-03
  73 F= -.12951429E+03 E0= -.12951429E+03  d E =-.794897E-03
       N       E                     dE             d eps       ncg     rms          rms(c)
DAV:   1    -0.129514562935E+03   -0.27090E-03   -0.31260E-01   329   0.274E+00    0.107E-01
DAV:   2    -0.129515127737E+03   -0.56480E-03   -0.71421E-03   363   0.348E-01    0.716E-02
DAV:   3    -0.129515121736E+03    0.60011E-05   -0.11195E-04   331   0.561E-02    0.426E-02
DAV:   4    -0.129515173259E+03   -0.51523E-04   -0.11364E-04   276   0.591E-02    0.737E-03
DAV:   5    -0.129515176644E+03   -0.33854E-05   -0.26378E-05   237   0.254E-02    0.508E-03
DAV:   6    -0.129515179457E+03   -0.28129E-05   -0.29555E-06   265   0.879E-03
  74 F= -.12951518E+03 E0= -.12951518E+03  d E =-.884947E-03
       N       E                     dE             d eps       ncg     rms          rms(c)
DAV:   1    -0.129515194909E+03   -0.18265E-04   -0.24333E-04   334   0.782E-02    0.304E-03
DAV:   2    -0.129515196911E+03   -0.20022E-05   -0.69934E-06   208   0.138E-02    0.202E-03
DAV:   3    -0.129515198341E+03   -0.14298E-05   -0.72726E-07   261   0.450E-03    0.124E-03
DAV:   4    -0.129515200818E+03   -0.24769E-05   -0.19779E-07   297   0.241E-03    0.316E-04
DAV:   5    -0.129515201924E+03   -0.11064E-05   -0.45956E-08   272   0.119E-03    0.226E-04
DAV:   6    -0.129515203377E+03   -0.14528E-05   -0.28074E-08   272   0.806E-04
  75 F= -.12951520E+03 E0= -.12951520E+03  d E =-.239204E-04
       N       E                     dE             d eps       ncg     rms          rms(c)
DAV:   1    -0.129515231621E+03   -0.29696E-04   -0.82943E-04   351   0.144E-01    0.554E-03
DAV:   2    -0.129515233559E+03   -0.19386E-05   -0.19252E-05   236   0.209E-02    0.351E-03
DAV:   3    -0.129515234172E+03   -0.61264E-06   -0.17516E-06   230   0.700E-03    0.203E-03
DAV:   4    -0.129515235083E+03   -0.91099E-06   -0.46762E-07   298   0.361E-03    0.437E-04
DAV:   5    -0.129515235536E+03   -0.45341E-06   -0.38606E-08   272   0.159E-03    0.237E-04
DAV:   6    -0.129515235847E+03   -0.31118E-06    0.38350E-08   200   0.716E-04
  76 F= -.12951524E+03 E0= -.12951524E+03  d E =-.324701E-04
       N       E                     dE             d eps       ncg     rms          rms(c)
DAV:   1    -0.129515279908E+03   -0.44372E-04   -0.14500E-03   400   0.189E-01    0.734E-03
DAV:   2    -0.129515282146E+03   -0.22375E-05   -0.29166E-05   216   0.241E-02    0.473E-03
DAV:   3    -0.129515282484E+03   -0.33876E-06   -0.24156E-06   255   0.782E-03    0.263E-03
DAV:   4    -0.129515282972E+03   -0.48797E-06   -0.53118E-07   208   0.416E-03    0.529E-04
DAV:   5    -0.129515283176E+03   -0.20339E-06   -0.86039E-08   272   0.196E-03    0.270E-04
DAV:   6    -0.129515283293E+03   -0.11702E-06    0.46900E-08   200   0.907E-04
  77 F= -.12951528E+03 E0= -.12951528E+03  d E =-.474455E-04
       N       E                     dE             d eps       ncg     rms          rms(c)
DAV:   1    -0.129515347172E+03   -0.63997E-04   -0.17637E-03   384   0.209E-01    0.826E-03
DAV:   2    -0.129515349650E+03   -0.24777E-05   -0.35219E-05   218   0.265E-02    0.526E-03
DAV:   3    -0.129515349930E+03   -0.27995E-06   -0.30390E-06   189   0.879E-03    0.289E-03
DAV:   4    -0.129515350265E+03   -0.33534E-06   -0.69053E-07   222   0.462E-03    0.599E-04
DAV:   5    -0.129515350351E+03   -0.85286E-07   -0.13988E-07   176   0.220E-03    0.302E-04
DAV:   6    -0.129515350392E+03   -0.40784E-07    0.21776E-08   164   0.102E-03
  78 F= -.12951535E+03 E0= -.12951535E+03  d E =-.670987E-04
       N       E                     dE             d eps       ncg     rms          rms(c)
DAV:   1    -0.129515433569E+03   -0.83218E-04   -0.18989E-03   344   0.225E-01    0.882E-03
DAV:   2    -0.129515436205E+03   -0.26363E-05   -0.38610E-05   201   0.291E-02    0.557E-03
DAV:   3    -0.129515436495E+03   -0.28963E-06   -0.34961E-06   164   0.965E-03    0.304E-03
DAV:   4    -0.129515436814E+03   -0.31901E-06   -0.81123E-07   215   0.500E-03    0.645E-04
DAV:   5    -0.129515436883E+03   -0.69008E-07   -0.18237E-07   164   0.242E-03    0.322E-04
DAV:   6    -0.129515436919E+03   -0.35615E-07    0.16830E-09   164   0.113E-03
  79 F= -.12951544E+03 E0= -.12951544E+03  d E =-.865272E-04
       N       E                     dE             d eps       ncg     rms          rms(c)
DAV:   1    -0.129515536325E+03   -0.99442E-04   -0.25815E-03   324   0.262E-01    0.104E-02
DAV:   2    -0.129515540194E+03   -0.38686E-05   -0.55236E-05   241   0.342E-02    0.655E-03
DAV:   3    -0.129515540457E+03   -0.26313E-06   -0.33181E-06   199   0.883E-03    0.372E-03
DAV:   4    -0.129515540918E+03   -0.46121E-06   -0.11583E-06   259   0.576E-03    0.735E-04
DAV:   5    -0.129515540998E+03   -0.79900E-07   -0.29399E-07   172   0.281E-03    0.417E-04
DAV:   6    -0.129515541039E+03   -0.41377E-07   -0.21598E-08   164   0.122E-03
  80 F= -.12951554E+03 E0= -.12951554E+03  d E =-.104120E-03
       N       E                     dE             d eps       ncg     rms          rms(c)
DAV:   1    -0.129515665451E+03   -0.12445E-03   -0.52261E-03   324   0.362E-01    0.147E-02
DAV:   2    -0.129515673567E+03   -0.81168E-05   -0.11249E-04   244   0.469E-02    0.920E-03
DAV:   3    -0.129515674093E+03   -0.52590E-06   -0.64705E-06   234   0.120E-02    0.526E-03
DAV:   4    -0.129515675014E+03   -0.92044E-06   -0.23271E-06   272   0.790E-03    0.977E-04
DAV:   5    -0.129515675142E+03   -0.12840E-06   -0.64531E-07   190   0.381E-03    0.576E-04
DAV:   6    -0.129515675209E+03   -0.67314E-07   -0.11113E-07   164   0.166E-03
  81 F= -.12951568E+03 E0= -.12951568E+03  d E =-.134170E-03
       N       E                     dE             d eps       ncg     rms          rms(c)
DAV:   1    -0.129515826178E+03   -0.15104E-03   -0.10417E-02   328   0.504E-01    0.204E-02
DAV:   2    -0.129515843332E+03   -0.17153E-04   -0.23014E-04   274   0.647E-02    0.129E-02
DAV:   3    -0.129515843881E+03   -0.54977E-06   -0.89807E-06   244   0.149E-02    0.750E-03
DAV:   4    -0.129515845616E+03   -0.17351E-05   -0.39703E-06   254   0.109E-02    0.129E-03
DAV:   5    -0.129515845807E+03   -0.19027E-06   -0.10312E-06   210   0.493E-03    0.795E-04
DAV:   6    -0.129515845920E+03   -0.11376E-06   -0.14922E-07   165   0.195E-03
  82 F= -.12951585E+03 E0= -.12951585E+03  d E =-.170711E-03
       N       E                     dE             d eps       ncg     rms          rms(c)
DAV:   1    -0.129516025482E+03   -0.17968E-03   -0.19474E-02   329   0.686E-01    0.275E-02
DAV:   2    -0.129516059299E+03   -0.33817E-04   -0.44420E-04   354   0.876E-02    0.182E-02
DAV:   3    -0.129516058871E+03    0.42871E-06   -0.61305E-06   227   0.143E-02    0.108E-02
DAV:   4    -0.129516062508E+03   -0.36372E-05   -0.72721E-06   244   0.150E-02    0.182E-03
DAV:   5    -0.129516062780E+03   -0.27243E-06   -0.19291E-06   218   0.672E-03    0.126E-03
DAV:   6    -0.129516062965E+03   -0.18510E-06   -0.23850E-07   181   0.229E-03
  83 F= -.12951606E+03 E0= -.12951606E+03  d E =-.217045E-03
       N       E                     dE             d eps       ncg     rms          rms(c)
DAV:   1    -0.129516273919E+03   -0.21114E-03   -0.33899E-02   330   0.904E-01    0.359E-02
DAV:   2    -0.129516333025E+03   -0.59106E-04   -0.77208E-04   380   0.115E-01    0.239E-02
DAV:   3    -0.129516331925E+03    0.10997E-05   -0.95889E-06   227   0.180E-02    0.141E-02
DAV:   4    -0.129516338801E+03   -0.68760E-05   -0.13304E-05   284   0.193E-02    0.249E-03
DAV:   5    -0.129516339214E+03   -0.41278E-06   -0.26652E-06   219   0.818E-03    0.155E-03
DAV:   6    -0.129516339500E+03   -0.28568E-06   -0.21428E-07   199   0.254E-03
  84 F= -.12951634E+03 E0= -.12951634E+03  d E =-.276534E-03
       N       E                     dE             d eps       ncg     rms          rms(c)
DAV:   1    -0.129516585640E+03   -0.24643E-03   -0.54934E-02   330   0.115E+00    0.456E-02
DAV:   2    -0.129516680724E+03   -0.95084E-04   -0.12384E-03   364   0.146E-01    0.303E-02
DAV:   3    -0.129516679764E+03    0.96059E-06   -0.18670E-05   260   0.234E-02    0.178E-02
DAV:   4    -0.129516690212E+03   -0.10449E-04   -0.17591E-05   236   0.240E-02    0.281E-03
DAV:   5    -0.129516690868E+03   -0.65593E-06   -0.46567E-06   227   0.105E-02    0.209E-03
DAV:   6    -0.129516691361E+03   -0.49300E-06   -0.48507E-07   217   0.345E-03
  85 F= -.12951669E+03 E0= -.12951669E+03  d E =-.351861E-03
       N       E                     dE             d eps       ncg     rms          rms(c)
DAV:   1    -0.129516976264E+03   -0.28540E-03   -0.82635E-02   328   0.141E+00    0.561E-02
DAV:   2    -0.129517119661E+03   -0.14340E-03   -0.18572E-03   363   0.179E-01    0.373E-02
DAV:   3    -0.129517118120E+03    0.15416E-05   -0.29489E-05   332   0.289E-02    0.219E-02
DAV:   4    -0.129517133813E+03   -0.15693E-04   -0.27871E-05   236   0.298E-02    0.359E-03
DAV:   5    -0.129517134751E+03   -0.93824E-06   -0.70660E-06   245   0.131E-02    0.256E-03
DAV:   6    -0.129517135487E+03   -0.73624E-06   -0.70365E-07   224   0.431E-03
  86 F= -.12951714E+03 E0= -.12951714E+03  d E =-.444126E-03
       N       E                     dE             d eps       ncg     rms          rms(c)
DAV:   1    -0.129517465542E+03   -0.33079E-03   -0.11497E-01   329   0.167E+00    0.667E-02
DAV:   2    -0.129517662124E+03   -0.19658E-03   -0.25775E-03   363   0.212E-01    0.443E-02
DAV:   3    -0.129517660941E+03    0.11831E-05   -0.41716E-05   314   0.347E-02    0.260E-02
DAV:   4    -0.129517684631E+03   -0.23690E-04   -0.40570E-05   268   0.354E-02    0.449E-03
DAV:   5    -0.129517685802E+03   -0.11717E-05   -0.92994E-06   237   0.153E-02    0.309E-03
DAV:   6    -0.129517686806E+03   -0.10037E-05   -0.94743E-07   232   0.522E-03
  87 F= -.12951769E+03 E0= -.12951769E+03  d E =-.551319E-03
       N       E                     dE             d eps       ncg     rms          rms(c)
DAV:   1    -0.129518068458E+03   -0.38266E-03   -0.14696E-01   329   0.192E+00    0.761E-02
DAV:   2    -0.129518314232E+03   -0.24577E-03   -0.32834E-03   355   0.244E-01    0.507E-02
DAV:   3    -0.129518314980E+03   -0.74786E-06   -0.54922E-05   321   0.404E-02    0.296E-02
DAV:   4    -0.129518346389E+03   -0.31410E-04   -0.51617E-05   268   0.406E-02    0.516E-03
DAV:   5    -0.129518347918E+03   -0.15283E-05   -0.11826E-05   245   0.175E-02    0.345E-03
DAV:   6    -0.129518349233E+03   -0.13152E-05   -0.13181E-06   256   0.592E-03
  88 F= -.12951835E+03 E0= -.12951835E+03  d E =-.662427E-03
       N       E                     dE             d eps       ncg     rms          rms(c)
DAV:   1    -0.129518780587E+03   -0.43267E-03   -0.18153E-01   328   0.217E+00    0.853E-02
DAV:   2    -0.129519080751E+03   -0.30016E-03   -0.40400E-03   364   0.279E-01    0.569E-02
DAV:   3    -0.129519081991E+03   -0.12401E-05   -0.70585E-05   332   0.465E-02    0.332E-02
DAV:   4    -0.129519121129E+03   -0.39138E-04   -0.61684E-05   268   0.452E-02    0.582E-03
DAV:   5    -0.129519123138E+03   -0.20083E-05   -0.14424E-05   245   0.197E-02    0.374E-03
DAV:   6    -0.129519124725E+03   -0.15877E-05   -0.16727E-06   232   0.651E-03
  89 F= -.12951912E+03 E0= -.12951912E+03  d E =-.775493E-03
       N       E                     dE             d eps       ncg     rms          rms(c)
DAV:   1    -0.129519591691E+03   -0.46855E-03   -0.23210E-01   328   0.249E+00    0.973E-02
DAV:   2    -0.129519966225E+03   -0.37453E-03   -0.51554E-03   364   0.321E-01    0.653E-02
DAV:   3    -0.129519966816E+03   -0.59080E-06   -0.96372E-05   332   0.552E-02    0.382E-02
DAV:   4    -0.129520020341E+03   -0.53526E-04   -0.78827E-05   268   0.517E-02    0.690E-03
DAV:   5    -0.129520022913E+03   -0.25717E-05   -0.18909E-05   263   0.229E-02    0.416E-03
DAV:   6    -0.129520024754E+03   -0.18414E-05   -0.23079E-06   232   0.743E-03
  90 F= -.12952002E+03 E0= -.12952002E+03  d E =-.900029E-03
       N       E                     dE             d eps       ncg     rms          rms(c)
DAV:   1    -0.129520479607E+03   -0.45669E-03   -0.32161E-01   328   0.294E+00    0.115E-01
DAV:   2    -0.129520987978E+03   -0.50837E-03   -0.71092E-03   364   0.379E-01    0.769E-02
DAV:   3    -0.129520987902E+03    0.75971E-07   -0.13763E-04   332   0.662E-02    0.447E-02
DAV:   4    -0.129521062176E+03   -0.74273E-04   -0.10916E-04   260   0.607E-02    0.827E-03
DAV:   5    -0.129521065602E+03   -0.34266E-05   -0.26618E-05   286   0.271E-02    0.490E-03
DAV:   6    -0.129521067754E+03   -0.21517E-05   -0.25353E-06   216   0.810E-03
  91 F= -.12952107E+03 E0= -.12952107E+03  d E =-.104300E-02
       N       E                     dE             d eps       ncg     rms          rms(c)
DAV:   1    -0.129521428717E+03   -0.36312E-03   -0.46556E-01   328   0.353E+00    0.138E-01
DAV:   2    -0.129522167969E+03   -0.73925E-03   -0.10225E-02   364   0.453E-01    0.938E-02
DAV:   3    -0.129522160522E+03    0.74467E-05   -0.21400E-04   363   0.812E-02    0.546E-02
DAV:   4    -0.129522257318E+03   -0.96796E-04   -0.14325E-04   300   0.702E-02    0.995E-03
DAV:   5    -0.129522261571E+03   -0.42530E-05   -0.34864E-05   272   0.312E-02    0.579E-03
DAV:   6    -0.129522264254E+03   -0.26821E-05   -0.43147E-06   236   0.102E-02
  92 F= -.12952226E+03 E0= -.12952226E+03  d E =-.119650E-02
       N       E                     dE             d eps       ncg     rms          rms(c)
DAV:   1    -0.129522120814E+03    0.14076E-03   -0.71004E-01   328   0.437E+00    0.172E-01
DAV:   2    -0.129523305554E+03   -0.11847E-02   -0.16091E-02   364   0.571E-01    0.114E-01
DAV:   3    -0.129523291828E+03    0.13725E-04   -0.32079E-04   405   0.961E-02    0.653E-02
DAV:   4    -0.129523408469E+03   -0.11664E-03   -0.20830E-04   308   0.845E-02    0.108E-02
DAV:   5    -0.129523417055E+03   -0.85856E-05   -0.48839E-05   336   0.364E-02    0.744E-03
DAV:   6    -0.129523421777E+03   -0.47219E-05   -0.46334E-06   260   0.114E-02
  93 F= -.12952342E+03 E0= -.12952342E+03  d E =-.115752E-02
       N       E                     dE             d eps       ncg     rms          rms(c)
DAV:   1    -0.129518816920E+03    0.46001E-02   -0.11781E+00   328   0.575E+00    0.259E-01
DAV:   2    -0.129521580794E+03   -0.27639E-02   -0.38124E-02   361   0.882E-01    0.192E-01
DAV:   3    -0.129521274088E+03    0.30671E-03   -0.10173E-03   464   0.179E-01    0.122E-01
DAV:   4    -0.129521251054E+03    0.23034E-04   -0.70836E-04   368   0.147E-01    0.280E-02
DAV:   5    -0.129521259968E+03   -0.89142E-05   -0.14249E-04   400   0.614E-02    0.142E-02
DAV:   6    -0.129521265308E+03   -0.53395E-05   -0.15190E-05   296   0.207E-02
  94 F= -.12952127E+03 E0= -.12952127E+03  d E =0.215647E-02
       N       E                     dE             d eps       ncg     rms          rms(c)
DAV:   1    -0.129523649761E+03   -0.23898E-02   -0.45481E-01   329   0.350E+00    0.226E-01
DAV:   2    -0.129525133921E+03   -0.14842E-02   -0.21617E-02   393   0.664E-01    0.135E-01
DAV:   3    -0.129524927339E+03    0.20658E-03   -0.66210E-04   428   0.146E-01    0.766E-02
DAV:   4    -0.129524820763E+03    0.10658E-03   -0.35573E-04   336   0.982E-02    0.208E-02
DAV:   5    -0.129524807707E+03    0.13056E-04   -0.80105E-05   368   0.453E-02    0.987E-03
DAV:   6    -0.129524809640E+03   -0.19333E-05   -0.10071E-05   320   0.172E-02
  95 F= -.12952481E+03 E0= -.12952481E+03  d E =-.354433E-02
       N       E                     dE             d eps       ncg     rms          rms(c)
DAV:   1    -0.129525049725E+03   -0.24202E-03   -0.29383E-03   390   0.280E-01    0.188E-02
DAV:   2    -0.129525068905E+03   -0.19179E-04   -0.12653E-04   432   0.519E-02    0.106E-02
DAV:   3    -0.129525076062E+03   -0.71577E-05   -0.50032E-06   264   0.130E-02    0.603E-03
DAV:   4    -0.129525087679E+03   -0.11617E-04   -0.28279E-06   291   0.853E-03    0.145E-03
DAV:   5    -0.129525094287E+03   -0.66080E-05   -0.77612E-07   304   0.399E-03    0.623E-04
DAV:   6    -0.129525098264E+03   -0.39777E-05   -0.18434E-07   222   0.185E-03
  96 F= -.12952510E+03 E0= -.12952510E+03  d E =-.288624E-03
       N       E                     dE             d eps       ncg     rms          rms(c)
DAV:   1    -0.129525295474E+03   -0.20119E-03   -0.85278E-03   348   0.482E-01    0.303E-02
DAV:   2    -0.129525326733E+03   -0.31259E-04   -0.40680E-04   387   0.916E-02    0.186E-02
DAV:   3    -0.129525324695E+03    0.20382E-05   -0.14359E-05   304   0.219E-02    0.109E-02
DAV:   4    -0.129525324792E+03   -0.97010E-07   -0.90642E-06   264   0.160E-02    0.271E-03
DAV:   5    -0.129525325659E+03   -0.86670E-06   -0.23523E-06   310   0.785E-03    0.125E-03
DAV:   6    -0.129525326271E+03   -0.61203E-06   -0.35055E-07   272   0.316E-03
  97 F= -.12952533E+03 E0= -.12952533E+03  d E =-.228006E-03
       N       E                     dE             d eps       ncg     rms          rms(c)
DAV:   1    -0.129525278968E+03    0.46691E-04   -0.97386E-03   329   0.515E-01    0.309E-02
DAV:   2    -0.129525309083E+03   -0.30115E-04   -0.45461E-04   428   0.960E-02    0.198E-02
DAV:   3    -0.129525303005E+03    0.60777E-05   -0.11613E-05   272   0.206E-02    0.119E-02
DAV:   4    -0.129525298663E+03    0.43422E-05   -0.12952E-05   272   0.188E-02    0.294E-03
DAV:   5    -0.129525298305E+03    0.35822E-06   -0.31214E-06   272   0.962E-03    0.146E-03
DAV:   6    -0.129525298672E+03   -0.36725E-06   -0.58915E-07   254   0.389E-03
  98 F= -.12952530E+03 E0= -.12952530E+03  d E =0.275986E-04
       N       E                     dE             d eps       ncg     rms          rms(c)
DAV:   1    -0.129525314413E+03   -0.16108E-04   -0.49199E-05   303   0.367E-02    0.197E-03
DAV:   2    -0.129525315370E+03   -0.95735E-06   -0.27808E-06   270   0.899E-03    0.129E-03
DAV:   3    -0.129525316111E+03   -0.74085E-06   -0.29195E-07   204   0.282E-03    0.816E-04
DAV:   4    -0.129525317347E+03   -0.12363E-05   -0.10831E-07   268   0.151E-03    0.252E-04
DAV:   5    -0.129525317996E+03   -0.64847E-06   -0.30405E-08   272   0.725E-04    0.133E-04
DAV:   6    -0.129525318611E+03   -0.61548E-06   -0.11334E-08   201   0.421E-04
  99 F= -.12952532E+03 E0= -.12952532E+03  d E =-.199388E-04
       N       E                     dE             d eps       ncg     rms          rms(c)
DAV:   1    -0.129525345302E+03   -0.27307E-04   -0.20487E-04   299   0.745E-02    0.348E-03
DAV:   2    -0.129525346307E+03   -0.10048E-05   -0.96237E-06   272   0.161E-02    0.228E-03
DAV:   3    -0.129525346623E+03   -0.31623E-06   -0.96183E-07   200   0.518E-03    0.154E-03
DAV:   4    -0.129525347113E+03   -0.48937E-06   -0.29609E-07   300   0.292E-03    0.491E-04
DAV:   5    -0.129525347285E+03   -0.17261E-06   -0.15212E-08   272   0.134E-03    0.248E-04
DAV:   6    -0.129525347472E+03   -0.18707E-06    0.34704E-08   200   0.739E-04
 100 F= -.12952535E+03 E0= -.12952535E+03  d E =-.288613E-04
       N       E                     dE             d eps       ncg     rms          rms(c)
DAV:   1    -0.129525378111E+03   -0.30825E-04   -0.47038E-04   351   0.112E-01    0.502E-03
DAV:   2    -0.129525379208E+03   -0.10976E-05   -0.17515E-05   234   0.203E-02    0.335E-03
DAV:   3    -0.129525379276E+03   -0.67259E-07   -0.17336E-06   272   0.680E-03    0.217E-03
DAV:   4    -0.129525379262E+03    0.13418E-07   -0.46530E-07   225   0.391E-03    0.603E-04
DAV:   5    -0.129525379272E+03   -0.10064E-07   -0.67036E-08   272   0.195E-03    0.323E-04
DAV:   6    -0.129525379315E+03   -0.42583E-07    0.34738E-08   204   0.101E-03
 101 F= -.12952538E+03 E0= -.12952538E+03  d E =-.318424E-04
       N       E                     dE             d eps       ncg     rms          rms(c)
DAV:   1    -0.129525407746E+03   -0.28474E-04   -0.83544E-04   319   0.149E-01    0.634E-03
DAV:   2    -0.129525409451E+03   -0.17050E-05   -0.28814E-05   212   0.260E-02    0.425E-03
DAV:   3    -0.129525409523E+03   -0.72244E-07   -0.28705E-06   272   0.865E-03    0.277E-03
DAV:   4    -0.129525409491E+03    0.32921E-07   -0.80927E-07   200   0.494E-03    0.755E-04
DAV:   5    -0.129525409498E+03   -0.78871E-08   -0.17787E-07   191   0.247E-03    0.412E-04
DAV:   6    -0.129525409561E+03   -0.62343E-07   -0.14095E-08   222   0.129E-03
 102 F= -.12952541E+03 E0= -.12952541E+03  d E =-.302460E-04
       N       E                     dE             d eps       ncg     rms          rms(c)
DAV:   1    -0.129525432268E+03   -0.22769E-04   -0.12809E-03   338   0.183E-01    0.805E-03
DAV:   2    -0.129525434379E+03   -0.21115E-05   -0.35488E-05   209   0.277E-02    0.512E-03
DAV:   3    -0.129525434466E+03   -0.86868E-07   -0.33109E-06   221   0.902E-03    0.303E-03
DAV:   4    -0.129525434555E+03   -0.88894E-07   -0.92499E-07   215   0.501E-03    0.775E-04
DAV:   5    -0.129525434599E+03   -0.44407E-07   -0.23280E-07   164   0.251E-03    0.370E-04
DAV:   6    -0.129525434694E+03   -0.94318E-07   -0.38013E-08   192   0.126E-03
 103 F= -.12952543E+03 E0= -.12952543E+03  d E =-.251328E-04
       N       E                     dE             d eps       ncg     rms          rms(c)
DAV:   1    -0.129525450918E+03   -0.16319E-04   -0.17484E-03   338   0.213E-01    0.876E-03
DAV:   2    -0.129525453707E+03   -0.27892E-05   -0.44342E-05   209   0.307E-02    0.566E-03
DAV:   3    -0.129525453925E+03   -0.21843E-06   -0.39840E-06   164   0.984E-03    0.337E-03
DAV:   4    -0.129525454213E+03   -0.28767E-06   -0.10976E-06   176   0.546E-03    0.800E-04
DAV:   5    -0.129525454296E+03   -0.82642E-07   -0.28797E-07   164   0.270E-03    0.400E-04
DAV:   6    -0.129525454409E+03   -0.11308E-06   -0.56501E-08   176   0.132E-03
 104 F= -.12952545E+03 E0= -.12952545E+03  d E =-.197153E-04
       N       E                     dE             d eps       ncg     rms          rms(c)
DAV:   1    -0.129525468874E+03   -0.14578E-04   -0.26774E-03   337   0.263E-01    0.103E-02
DAV:   2    -0.129525473149E+03   -0.42755E-05   -0.63963E-05   241   0.361E-02    0.678E-03
DAV:   3    -0.129525473396E+03   -0.24653E-06   -0.35462E-06   164   0.894E-03    0.414E-03
DAV:   4    -0.129525474013E+03   -0.61703E-06   -0.15238E-06   200   0.649E-03    0.793E-04
DAV:   5    -0.129525474120E+03   -0.10726E-06   -0.40704E-07   164   0.310E-03    0.493E-04
DAV:   6    -0.129525474233E+03   -0.11316E-06   -0.79479E-08   175   0.137E-03
 105 F= -.12952547E+03 E0= -.12952547E+03  d E =-.198243E-04
       N       E                     dE             d eps       ncg     rms          rms(c)
DAV:   1    -0.129525494104E+03   -0.19984E-04   -0.40797E-03   337   0.323E-01    0.123E-02
DAV:   2    -0.129525500387E+03   -0.62832E-05   -0.90364E-05   233   0.428E-02    0.800E-03
DAV:   3    -0.129525500918E+03   -0.53093E-06   -0.48688E-06   164   0.104E-02    0.473E-03
DAV:   4    -0.129525501952E+03   -0.10340E-05   -0.18923E-06   244   0.726E-03    0.794E-04
DAV:   5    -0.129525502105E+03   -0.15228E-06   -0.52714E-07   164   0.340E-03    0.522E-04
DAV:   6    -0.129525502221E+03   -0.11591E-06   -0.10016E-07   200   0.144E-03
 106 F= -.12952550E+03 E0= -.12952550E+03  d E =-.279874E-04
