 vasp.5.4.1 24Jun15 (build Jan 13 2020 12:58:22) complex                        
  
 executed on           IFC91_ompi date 2020.02.03  09:56:59
 running on   15 total cores
 each image running on    1 cores
 distrk:  each k-point on    1 cores,    1 groups
 distr:  one band on NCORES_PER_BAND=   1 cores,    1 groups


--------------------------------------------------------------------------------------------------------


 INCAR:
 POTCAR:    PAW_PBE H 15Jun2001                   
 POTCAR:    PAW_PBE C 08Apr2002                   
 POTCAR:    PAW_PBE N 08Apr2002                   
 POTCAR:    PAW_PBE O 08Apr2002                   
 POTCAR:    PAW_PBE H 15Jun2001                   
   VRHFIN =H: ultrasoft test                                                    
   LEXCH  = PE                                                                  
   EATOM  =    12.4884 eV,    0.9179 Ry                                         
                                                                                
   TITEL  = PAW_PBE H 15Jun2001                                                 
   LULTRA =        F    use ultrasoft PP ?                                      
   IUNSCR =        0    unscreen: 0-lin 1-nonlin 2-no                           
   RPACOR =    0.000    partial core radius                                     
   POMASS =    1.000; ZVAL   =    1.000    mass and valenz                      
   RCORE  =    1.100    outmost cutoff radius                                   
   RWIGS  =    0.700; RWIGS  =    0.370    wigner-seitz radius (au A)           
   ENMAX  =  250.000; ENMIN  =  200.000 eV                                      
   RCLOC  =    0.701    cutoff for local pot                                    
   LCOR   =        T    correct aug charges                                     
   LPAW   =        T    paw PP                                                  
   EAUG   =  400.000                                                            
   RMAX   =    1.123    core radius for proj-oper                               
   RAUG   =    1.200    factor for augmentation sphere                          
   RDEP   =    1.112    radius for radial grids                                 
   RDEPT  =    0.926    core radius for aug-charge                              
                                                                                
   Atomic configuration                                                         
    2 entries                                                                   
     n  l   j            E        occ.                                          
     1  0  0.50        -6.4927   1.0000                                         
     2  1  0.50        -3.4015   0.0000                                         
   Description                                                                  
     l       E           TYP  RCUT    TYP  RCUT                                 
     0     -6.4927494     23  1.100                                             
     0      6.8029130     23  1.100                                             
     1     -4.0817478     23  1.100                                             
  local pseudopotential read in
  atomic valenz-charges read in
  non local Contribution for L=           0  read in
    real space projection operators read in
  non local Contribution for L=           0  read in
    real space projection operators read in
  non local Contribution for L=           1  read in
    real space projection operators read in
    PAW grid and wavefunctions read in
 
   number of l-projection  operators is LMAX  =           3
   number of lm-projection operators is LMMAX =           5
 
 POTCAR:    PAW_PBE C 08Apr2002                   
   VRHFIN =C: s2p2                                                              
   LEXCH  = PE                                                                  
   EATOM  =   147.1560 eV,   10.8157 Ry                                         
                                                                                
   TITEL  = PAW_PBE C 08Apr2002                                                 
   LULTRA =        F    use ultrasoft PP ?                                      
   IUNSCR =        1    unscreen: 0-lin 1-nonlin 2-no                           
   RPACOR =    1.200    partial core radius                                     
   POMASS =   12.011; ZVAL   =    4.000    mass and valenz                      
   RCORE  =    1.500    outmost cutoff radius                                   
   RWIGS  =    1.630; RWIGS  =    0.863    wigner-seitz radius (au A)           
   ENMAX  =  400.000; ENMIN  =  300.000 eV                                      
   ICORE  =        2    local potential                                         
   LCOR   =        T    correct aug charges                                     
   LPAW   =        T    paw PP                                                  
   EAUG   =  644.873                                                            
   DEXC   =    0.000                                                            
   RMAX   =    1.529    core radius for proj-oper                               
   RAUG   =    1.300    factor for augmentation sphere                          
   RDEP   =    1.501    radius for radial grids                                 
   RDEPT  =    1.300    core radius for aug-charge                              
                                                                                
   Atomic configuration                                                         
    4 entries                                                                   
     n  l   j            E        occ.                                          
     1  0  0.50      -273.3789   2.0000                                         
     2  0  0.50       -13.7508   2.0000                                         
     2  1  0.50        -5.2854   2.0000                                         
     3  2  1.50        -5.4423   0.0000                                         
   Description                                                                  
     l       E           TYP  RCUT    TYP  RCUT                                 
     0    -13.7508458     23  1.200                                             
     0     -8.2022199     23  1.200                                             
     1     -5.2854383     23  1.500                                             
     1     34.0145650     23  1.500                                             
     2     -5.4423304      7  1.500                                             
  local pseudopotential read in
  partial core-charges read in
  partial kinetic energy density read in
  atomic valenz-charges read in
  non local Contribution for L=           0  read in
    real space projection operators read in
  non local Contribution for L=           0  read in
    real space projection operators read in
  non local Contribution for L=           1  read in
    real space projection operators read in
  non local Contribution for L=           1  read in
    real space projection operators read in
    PAW grid and wavefunctions read in
 
   number of l-projection  operators is LMAX  =           4
   number of lm-projection operators is LMMAX =           8
 
 POTCAR:    PAW_PBE N 08Apr2002                   
   VRHFIN =N: s2p3                                                              
   LEXCH  = PE                                                                  
   EATOM  =   264.5486 eV,   19.4438 Ry                                         
                                                                                
   TITEL  = PAW_PBE N 08Apr2002                                                 
   LULTRA =        F    use ultrasoft PP ?                                      
   IUNSCR =        1    unscreen: 0-lin 1-nonlin 2-no                           
   RPACOR =    1.200    partial core radius                                     
   POMASS =   14.001; ZVAL   =    5.000    mass and valenz                      
   RCORE  =    1.500    outmost cutoff radius                                   
   RWIGS  =    1.400; RWIGS  =    0.741    wigner-seitz radius (au A)           
   ENMAX  =  400.000; ENMIN  =  300.000 eV                                      
   ICORE  =        2    local potential                                         
   LCOR   =        T    correct aug charges                                     
   LPAW   =        T    paw PP                                                  
   EAUG   =  627.112                                                            
   DEXC   =    0.000                                                            
   RMAX   =    1.529    core radius for proj-oper                               
   RAUG   =    1.300    factor for augmentation sphere                          
   RDEP   =    1.514    radius for radial grids                                 
   RDEPT  =    1.338    core radius for aug-charge                              
                                                                                
   Atomic configuration                                                         
    4 entries                                                                   
     n  l   j            E        occ.                                          
     1  0  0.50      -384.7179   2.0000                                         
     2  0  0.50       -18.5828   2.0000                                         
     2  1  0.50        -7.0898   3.0000                                         
     3  2  1.50        -6.8029   0.0000                                         
   Description                                                                  
     l       E           TYP  RCUT    TYP  RCUT                                 
     0    -18.5828119     23  1.200                                             
     0    -13.5018863     23  1.200                                             
     1     -7.0897853     23  1.500                                             
     1      9.5240782     23  1.500                                             
     2     -6.8029130      7  1.500                                             
  local pseudopotential read in
  partial core-charges read in
  partial kinetic energy density read in
  atomic valenz-charges read in
  non local Contribution for L=           0  read in
    real space projection operators read in
  non local Contribution for L=           0  read in
    real space projection operators read in
  non local Contribution for L=           1  read in
    real space projection operators read in
  non local Contribution for L=           1  read in
    real space projection operators read in
    PAW grid and wavefunctions read in
 
   number of l-projection  operators is LMAX  =           4
   number of lm-projection operators is LMMAX =           8
 
 POTCAR:    PAW_PBE O 08Apr2002                   
   VRHFIN =O: s2p4                                                              
   LEXCH  = PE                                                                  
   EATOM  =   432.3788 eV,   31.7789 Ry                                         
                                                                                
   TITEL  = PAW_PBE O 08Apr2002                                                 
   LULTRA =        F    use ultrasoft PP ?                                      
   IUNSCR =        1    unscreen: 0-lin 1-nonlin 2-no                           
   RPACOR =    1.200    partial core radius                                     
   POMASS =   16.000; ZVAL   =    6.000    mass and valenz                      
   RCORE  =    1.520    outmost cutoff radius                                   
   RWIGS  =    1.550; RWIGS  =    0.820    wigner-seitz radius (au A)           
   ENMAX  =  400.000; ENMIN  =  300.000 eV                                      
   ICORE  =        2    local potential                                         
   LCOR   =        T    correct aug charges                                     
   LPAW   =        T    paw PP                                                  
   EAUG   =  605.392                                                            
   DEXC   =    0.000                                                            
   RMAX   =    1.553    core radius for proj-oper                               
   RAUG   =    1.300    factor for augmentation sphere                          
   RDEP   =    1.550    radius for radial grids                                 
   RDEPT  =    1.329    core radius for aug-charge                              
                                                                                
   Atomic configuration                                                         
    4 entries                                                                   
     n  l   j            E        occ.                                          
     1  0  0.50      -514.6923   2.0000                                         
     2  0  0.50       -23.9615   2.0000                                         
     2  1  0.50        -9.0305   4.0000                                         
     3  2  1.50        -9.5241   0.0000                                         
   Description                                                                  
     l       E           TYP  RCUT    TYP  RCUT                                 
     0    -23.9615318     23  1.200                                             
     0     -9.5240782     23  1.200                                             
     1     -9.0304911     23  1.520                                             
     1      8.1634956     23  1.520                                             
     2     -9.5240782      7  1.500                                             
  local pseudopotential read in
  partial core-charges read in
  partial kinetic energy density read in
  kinetic energy density of atom read in
  atomic valenz-charges read in
  non local Contribution for L=           0  read in
    real space projection operators read in
  non local Contribution for L=           0  read in
    real space projection operators read in
  non local Contribution for L=           1  read in
    real space projection operators read in
  non local Contribution for L=           1  read in
    real space projection operators read in
    PAW grid and wavefunctions read in
 
   number of l-projection  operators is LMAX  =           4
   number of lm-projection operators is LMMAX =           8
 
 Optimization of the real space projectors (new method)

 maximal supplied QI-value         = 34.20
 optimisation between [QCUT,QGAM] = [  9.92, 20.18] = [ 27.55,114.04] Ry 
 Optimized for a Real-space Cutoff    1.26 Angstroem

   l    n(q)    QCUT    max X(q) W(low)/X(q) W(high)/X(q)  e(spline) 
   0      8     9.919    19.460    0.50E-03    0.23E-03    0.29E-06
   0      8     9.919    12.209    0.48E-03    0.23E-03    0.28E-06
   1      7     9.919     4.655    0.17E-03    0.75E-03    0.30E-06
 Optimization of the real space projectors (new method)

 maximal supplied QI-value         = 25.13
 optimisation between [QCUT,QGAM] = [ 10.05, 20.36] = [ 28.30,116.06] Ry 
 Optimized for a Real-space Cutoff    1.30 Angstroem

   l    n(q)    QCUT    max X(q) W(low)/X(q) W(high)/X(q)  e(spline) 
   0      8    10.053   115.676    0.49E-03    0.72E-03    0.18E-06
   0      8    10.053    87.132    0.49E-03    0.71E-03    0.18E-06
   1      7    10.053     4.429    0.32E-03    0.31E-03    0.18E-06
   1      7    10.053     2.733    0.23E-03    0.19E-03    0.20E-06
 Optimization of the real space projectors (new method)

 maximal supplied QI-value         = 25.13
 optimisation between [QCUT,QGAM] = [ 10.05, 20.36] = [ 28.30,116.06] Ry 
 Optimized for a Real-space Cutoff    1.65 Angstroem

   l    n(q)    QCUT    max X(q) W(low)/X(q) W(high)/X(q)  e(spline) 
   0     10    10.053    79.467    0.76E-04    0.72E-04    0.56E-06
   0     10    10.053    66.151    0.76E-04    0.72E-04    0.55E-06
   1     10    10.053     8.350    0.25E-03    0.92E-03    0.41E-05
   1     10    10.053     5.531    0.27E-03    0.10E-02    0.45E-05
 Optimization of the real space projectors (new method)

 maximal supplied QI-value         = 24.76
 optimisation between [QCUT,QGAM] = [ 10.15, 20.30] = [ 28.85,115.39] Ry 
 Optimized for a Real-space Cutoff    1.38 Angstroem

   l    n(q)    QCUT    max X(q) W(low)/X(q) W(high)/X(q)  e(spline) 
   0      8    10.150    20.381    0.22E-03    0.32E-03    0.29E-06
   0      8    10.150    15.268    0.23E-03    0.35E-03    0.30E-06
   1      8    10.150     5.964    0.46E-03    0.53E-03    0.21E-06
   1      8    10.150     5.382    0.38E-03    0.45E-03    0.19E-06
  PAW_PBE H 15Jun2001                   :
 energy of atom  1       EATOM=  -12.4884
 kinetic energy error for atom=    0.0098 (will be added to EATOM!!)
  PAW_PBE C 08Apr2002                   :
 energy of atom  2       EATOM= -147.1560
 kinetic energy error for atom=    0.0288 (will be added to EATOM!!)
  PAW_PBE N 08Apr2002                   :
 energy of atom  3       EATOM= -264.5486
 kinetic energy error for atom=    0.0736 (will be added to EATOM!!)
  PAW_PBE O 08Apr2002                   :
 energy of atom  4       EATOM= -432.3788
 kinetic energy error for atom=    0.1156 (will be added to EATOM!!)
 
 
 POSCAR: H12 C6 N2 O2                            
  positions in direct lattice
  velocities in cartesian coordinates
 exchange correlation table for  LEXCH =        8
   RHO(1)=    0.500       N(1)  =     2000
   RHO(2)=  100.500       N(2)  =     4000

 VTST: version 3.2, (02/03/18)

 CHAIN: initializing optimizer
 
 OPT: Using FIRE optimizer
 OPT: FIRE, Init
 OPT: FIRE, MAXMOVE       0.20000
 OPT: FIRE, TIMESTEP      0.10000
 OPT: FIRE, FTIMEMAX      1.00000
 OPT: FIRE, FTIMEINC      1.10000
 OPT: FIRE, FTIMEDEC      0.50000
 OPT: FIRE, FALPHADEC     0.99000
 OPT: FIRE, FALPHA        0.10000
 OPT: FIRE, FNMIN         5
 
 CHAIN: Read ICHAIN            0
 CHAIN: Running the NEB
 NEB:          SPRING     -5.000000
 NEB:          LCLIMB      T
 NEB:     LTANGENTOLD      F
 NEB:           LDNEB      F
 NEB:        LDNEBORG      F
 NEB:        LNEBCELL      F
 NEB:          EFIRST      0.000000
 NEB:           ELAST      0.000000
 
 POSCAR: H12 C6 N2 O2                            
  positions in direct lattice
  No initial velocities read in
 
 POSCAR: H12 C6 N2 O2                            
  positions in direct lattice
  No initial velocities read in
 


--------------------------------------------------------------------------------------------------------


 ion  position               nearest neighbor table
   1  0.376  0.539  0.509-  13 1.10
   2  0.383  0.493  0.471-  13 1.10
   3  0.376  0.483  0.529-  13 1.10
   4  0.450  0.450  0.480-  19 1.02
   5  0.515  0.473  0.544-  15 1.10
   6  0.561  0.417  0.502-  16 1.10
   7  0.522  0.415  0.459-  16 1.10
   8  0.506  0.396  0.514-  16 1.10
   9  0.517  0.550  0.523-  20 1.03
  10  0.612  0.565  0.503-  18 1.10
  11  0.578  0.584  0.459-  18 1.10
  12  0.570  0.606  0.514-  18 1.10
  13  0.391  0.506  0.504-   2 1.10   1 1.10   3 1.10  14 1.51
  14  0.440  0.509  0.513-  21 1.25  19 1.36  13 1.51
  15  0.512  0.468  0.508-   5 1.10  19 1.47  16 1.52  17 1.56
  16  0.526  0.421  0.495-   6 1.10   8 1.10   7 1.10  15 1.52
  17  0.546  0.502  0.486-  22 1.24  20 1.35  15 1.56
  18  0.578  0.576  0.495-  11 1.10  12 1.10  10 1.10  20 1.45
  19  0.466  0.475  0.496-   4 1.02  14 1.36  15 1.47
  20  0.546  0.542  0.506-   9 1.03  17 1.35  18 1.45
  21  0.457  0.540  0.535-  14 1.25
  22  0.572  0.490  0.456-  17 1.24
 
  LATTYP: Found a simple cubic cell.
 ALAT       =    30.0000000000
  
  Lattice vectors:
  
 A1 = (  30.0000000000,   0.0000000000,   0.0000000000)
 A2 = (   0.0000000000,  30.0000000000,   0.0000000000)
 A3 = (   0.0000000000,   0.0000000000,  30.0000000000)


Analysis of symmetry for initial positions (statically):
=====================================================================
 Subroutine PRICEL returns:
 Original cell was already a primitive cell.
 

 Routine SETGRP: Setting up the symmetry group for a 
 simple cubic supercell.


 Subroutine GETGRP returns: Found  1 space group operations
 (whereof  1 operations were pure point group operations)
 out of a pool of 48 trial point group operations.


The static configuration has the point symmetry C_1 .


Analysis of symmetry for dynamics (positions and initial velocities):
=====================================================================
 Subroutine PRICEL returns:
 Original cell was already a primitive cell.
 

 Routine SETGRP: Setting up the symmetry group for a 
 simple cubic supercell.


 Subroutine GETGRP returns: Found  1 space group operations
 (whereof  1 operations were pure point group operations)
 out of a pool of 48 trial point group operations.


The dynamic configuration has the point symmetry C_1 .
 
 
 KPOINTS: Mo2C                                    

Automatic generation of k-mesh.
Space group operators:
 irot       det(A)        alpha          n_x          n_y          n_z        tau_x        tau_y        tau_z
    1     1.000000     0.000000     1.000000     0.000000     0.000000     0.000000     0.000000     0.000000
 
 Subroutine IBZKPT returns following result:
 ===========================================
 
 Found      4 irreducible k-points:
 
 Following reciprocal coordinates:
            Coordinates               Weight
  0.250000  0.250000  0.250000      2.000000
 -0.250000  0.250000  0.250000      2.000000
  0.250000 -0.250000  0.250000      2.000000
 -0.250000 -0.250000  0.250000      2.000000
 
 Following cartesian coordinates:
            Coordinates               Weight
  0.008333  0.008333  0.008333      2.000000
 -0.008333  0.008333  0.008333      2.000000
  0.008333 -0.008333  0.008333      2.000000
 -0.008333 -0.008333  0.008333      2.000000
 


--------------------------------------------------------------------------------------------------------




 Dimension of arrays:
   k-points           NKPTS =      4   k-points in BZ     NKDIM =      4   number of bands    NBANDS=     41
   number of dos      NEDOS =    301   number of ions     NIONS =     22
   non local maximal  LDIM  =      4   non local SUM 2l+1 LMDIM =      8
   total plane-waves  NPLWV = ******
   max r-space proj   IRMAX =   2395   max aug-charges    IRDMAX=   1821
   dimension x,y,z NGX =   150 NGY =  150 NGZ =  150
   dimension x,y,z NGXF=   300 NGYF=  300 NGZF=  300
   support grid    NGXF=   300 NGYF=  300 NGZF=  300
   ions per type =              12   6   2   2
 NGX,Y,Z   is equivalent  to a cutoff of   8.31,  8.31,  8.31 a.u.
 NGXF,Y,Z  is equivalent  to a cutoff of  16.62, 16.62, 16.62 a.u.


 I would recommend the setting:
   dimension x,y,z NGX =   147 NGY =  147 NGZ =  147
 SYSTEM =  unknown system                          
 POSCAR =  H12 C6 N2 O2                            

 Startparameter for this run:
   NWRITE =      2    write-flag & timer
   PREC   = normal    normal or accurate (medium, high low for compatibility)
   ISTART =      0    job   : 0-new  1-cont  2-samecut
   ICHARG =      2    charge: 1-file 2-atom 10-const
   ISPIN  =      1    spin polarized calculation?
   LNONCOLLINEAR =      F non collinear calculations
   LSORBIT =      F    spin-orbit coupling
   INIWAV =      1    electr: 0-lowe 1-rand  2-diag
   LASPH  =      F    aspherical Exc in radial PAW
   METAGGA=      F    non-selfconsistent MetaGGA calc.

 Electronic Relaxation 1
   ENCUT  =  400.0 eV  29.40 Ry    5.42 a.u.  48.92 48.92 48.92*2*pi/ulx,y,z
   ENINI  =  400.0     initial cutoff
   ENAUG  =  644.9 eV  augmentation charge cutoff
   NELM   =    500;   NELMIN=  6; NELMDL= -5     # of ELM steps 
   EDIFF  = 0.1E-03   stopping-criterion for ELM
   LREAL  =      T    real-space projection
   NLSPLINE    = F    spline interpolate recip. space projectors
   LCOMPAT=      F    compatible to vasp.4.4
   GGA_COMPAT  = T    GGA compatible to vasp.4.4-vasp.4.6
   LMAXPAW     = -100 max onsite density
   LMAXMIX     =    2 max onsite mixed and CHGCAR
   VOSKOWN=      0    Vosko Wilk Nusair interpolation
   ROPT   =   -0.00050  -0.00050  -0.00050  -0.00050
 Ionic relaxation
   EDIFFG = -.1E+00   stopping-criterion for IOM
   NSW    =    300    number of steps for IOM
   NBLOCK =      1;   KBLOCK =    300    inner block; outer block 
   IBRION =      3    ionic relax: 0-MD 1-quasi-New 2-CG
   NFREE  =      0    steps in history (QN), initial steepest desc. (CG)
   ISIF   =      2    stress and relaxation
   IWAVPR =     11    prediction:  0-non 1-charg 2-wave 3-comb
   ISYM   =      2    0-nonsym 1-usesym 2-fastsym
   LCORR  =      T    Harris-Foulkes like correction to forces

   POTIM  = 0.0000    time-step for ionic-motion
   TEIN   =    0.0    initial temperature
   TEBEG  =    0.0;   TEEND  =   0.0 temperature during run
   SMASS  =   2.00    Nose mass-parameter (am)
   estimated Nose-frequenzy (Omega)   =  0.24E+10 period in steps =  0.00 mass=   0.137E-25a.u.
   SCALEE = 1.0000    scale energy and forces
   NPACO  =    256;   APACO  = 16.0  distance and # of slots for P.C.
   PSTRESS=    0.0 pullay stress

  Mass of Ions in am
   POMASS =   1.00 12.01 14.00 16.00
  Ionic Valenz
   ZVAL   =   1.00  4.00  5.00  6.00
  Atomic Wigner-Seitz radii
   RWIGS  =  -1.00 -1.00 -1.00 -1.00
  virtual crystal weights 
   VCA    =   1.00  1.00  1.00  1.00
   NELECT =      58.0000    total number of electrons
   NUPDOWN=      -1.0000    fix difference up-down

 DOS related values:
   EMIN   =  10.00;   EMAX   =-10.00  energy-range for DOS
   EFERMI =   0.00
   ISMEAR =     0;   SIGMA  =   0.20  broadening in eV -4-tet -1-fermi 0-gaus

 Electronic relaxation 2 (details)
   IALGO  =     38    algorithm
   LDIAG  =      T    sub-space diagonalisation (order eigenvalues)
   LSUBROT=      F    optimize rotation matrix (better conditioning)
   TURBO    =      0    0=normal 1=particle mesh
   IRESTART =      0    0=no restart 2=restart with 2 vectors
   NREBOOT  =      0    no. of reboots
   NMIN     =      0    reboot dimension
   EREF     =   0.00    reference energy to select bands
   IMIX   =      4    mixing-type and parameters
     AMIX     =   0.40;   BMIX     =  1.00
     AMIX_MAG =   1.60;   BMIX_MAG =  1.00
     AMIN     =   0.10
     WC   =   100.;   INIMIX=   1;  MIXPRE=   1;  MAXMIX= -45

 Intra band minimization:
   WEIMIN = 0.0010     energy-eigenvalue tresh-hold
   EBREAK =  0.61E-06  absolut break condition
   DEPER  =   0.30     relativ break condition  

   TIME   =   0.40     timestep for ELM

  volume/ion in A,a.u.               =    1227.27      8282.05
  Fermi-wavevector in a.u.,A,eV,Ry     =   0.211234  0.399174  0.607087  0.044620
  Thomas-Fermi vector in A             =   0.980021
 
 Write flags
   LWAVE  =      F    write WAVECAR
   LCHARG =      F    write CHGCAR
   LVTOT  =      F    write LOCPOT, total local potential
   LVHAR  =      F    write LOCPOT, Hartree potential only
   LELF   =      F    write electronic localiz. function (ELF)
   LORBIT =      0    0 simple, 1 ext, 2 COOP (PROOUT)


 Dipole corrections
   LMONO  =      F    monopole corrections only (constant potential shift)
   LDIPOL =      F    correct potential (dipole corrections)
   IDIPOL =      0    1-x, 2-y, 3-z, 4-all directions 
   EPSILON=  1.0000000 bulk dielectric constant

 Exchange correlation treatment:
   GGA     =    PE    GGA type
   LEXCH   =     8    internal setting for exchange type
   VOSKOWN=      0    Vosko Wilk Nusair interpolation
   LHFCALC =     F    Hartree Fock is set to
   LHFONE  =     F    Hartree Fock one center treatment
   AEXX    =    0.0000 exact exchange contribution

 Linear response parameters
   LEPSILON=     F    determine dielectric tensor
   LRPA    =     F    only Hartree local field effects (RPA)
   LNABLA  =     F    use nabla operator in PAW spheres
   LVEL    =     F    velocity operator in full k-point grid
   LINTERFAST=   F  fast interpolation
   KINTER  =     0    interpolate to denser k-point grid
   CSHIFT  =0.1000    complex shift for real part using Kramers Kronig
   OMEGAMAX=  -1.0    maximum frequency
   DEG_THRESHOLD= 0.2000000E-02 threshold for treating states as degnerate
   RTIME   =    0.100 relaxation time in fs

 Orbital magnetization related:
   ORBITALMAG=     F  switch on orbital magnetization
   LCHIMAG   =     F  perturbation theory with respect to B field
   DQ        =  0.001000  dq finite difference perturbation B field



--------------------------------------------------------------------------------------------------------


 quickmin algorithm: (dynamic with friction)
 charge density and potential will be updated during run
 non-spin polarized calculation
 Variant of blocked Davidson
 Davidson routine will perform the subspace rotation
 perform sub-space diagonalisation
    after iterative eigenvector-optimisation
 modified Broyden-mixing scheme, WC =      100.0
 initial mixing is a Kerker type mixing with AMIX =  0.4000 and BMIX =      1.0000
 Hartree-type preconditioning will be used
 using additional bands           12
 real space projection scheme for non local part
 use partial core corrections
 calculate Harris-corrections to forces 
   (improved forces if not selfconsistent)
 use gradient corrections 
 use of overlap-Matrix (Vanderbilt PP)
 Gauss-broadening in eV      SIGMA  =   0.20


--------------------------------------------------------------------------------------------------------


  energy-cutoff  :      400.00
  volume of cell :    27000.00
      direct lattice vectors                 reciprocal lattice vectors
    30.000000000  0.000000000  0.000000000     0.033333333  0.000000000  0.000000000
     0.000000000 30.000000000  0.000000000     0.000000000  0.033333333  0.000000000
     0.000000000  0.000000000 30.000000000     0.000000000  0.000000000  0.033333333

  length of vectors
    30.000000000 30.000000000 30.000000000     0.033333333  0.033333333  0.033333333


 
 k-points in units of 2pi/SCALE and weight: Mo2C                                    
   0.00833333  0.00833333  0.00833333       0.250
  -0.00833333  0.00833333  0.00833333       0.250
   0.00833333 -0.00833333  0.00833333       0.250
  -0.00833333 -0.00833333  0.00833333       0.250
 
 k-points in reciprocal lattice and weights: Mo2C                                    
   0.25000000  0.25000000  0.25000000       0.250
  -0.25000000  0.25000000  0.25000000       0.250
   0.25000000 -0.25000000  0.25000000       0.250
  -0.25000000 -0.25000000  0.25000000       0.250
 
 position of ions in fractional coordinates (direct lattice) 
   0.37566557  0.53894289  0.50862300
   0.38310291  0.49292756  0.47111099
   0.37575254  0.48319684  0.52923445
   0.44989614  0.44976820  0.48001116
   0.51543283  0.47265739  0.54392574
   0.56146904  0.41652774  0.50211559
   0.52187137  0.41512438  0.45885850
   0.50640245  0.39629752  0.51370913
   0.51720200  0.55010496  0.52319278
   0.61217943  0.56513043  0.50334716
   0.57771214  0.58383180  0.45884312
   0.57043386  0.60616632  0.51391672
   0.39068845  0.50587780  0.50439002
   0.44028699  0.50908309  0.51281837
   0.51239338  0.46798244  0.50751964
   0.52591232  0.42091878  0.49482517
   0.54557942  0.50154847  0.48603109
   0.57821629  0.57602929  0.49460558
   0.46550893  0.47542013  0.49596857
   0.54586690  0.54207082  0.50589618
   0.45673701  0.54017230  0.53491627
   0.57169432  0.49022655  0.45614133
 
 position of ions in cartesian coordinates  (Angst):
  11.26996709 16.16828681 15.25868989
  11.49308725 14.78782676 14.13332964
  11.27257624 14.49590532 15.87703363
  13.49688425 13.49304607 14.40033474
  15.46298497 14.17972185 16.31777232
  16.84407122 12.49583207 15.06346782
  15.65614102 12.45373131 13.76575506
  15.19207349 11.88892557 15.41127404
  15.51605997 16.50314867 15.69578348
  18.36538299 16.95391275 15.10041478
  17.33136429 17.51495389 13.76529347
  17.11301594 18.18498963 15.41750160
  11.72065353 15.17633392 15.13170050
  13.20860973 15.27249275 15.38455106
  15.37180127 14.03947310 15.22558929
  15.77736960 12.62756341 14.84475500
  16.36738260 15.04645423 14.58093265
  17.34648864 17.28087862 14.83816731
  13.96526791 14.26260378 14.87905722
  16.37600712 16.26212465 15.17688535
  13.70211040 16.20516906 16.04748800
  17.15082970 14.70679642 13.68424004
 


--------------------------------------------------------------------------------------------------------


 k-point  1 :   0.2500 0.2500 0.2500  plane waves:  490454
 k-point  2 :  -0.2500 0.2500 0.2500  plane waves:  490454
 k-point  3 :   0.2500-0.2500 0.2500  plane waves:  490454
 k-point  4 :  -0.2500-0.2500 0.2500  plane waves:  490454

 maximum and minimum number of plane-waves per node :    490454   490454

 maximum number of plane-waves:    490454
 maximum index in each direction: 
   IXMAX=   49   IYMAX=   49   IZMAX=   48
   IXMIN=  -49   IYMIN=  -49   IZMIN=  -49

 WARNING: aliasing errors must be expected set NGX to 198 to avoid them
 WARNING: aliasing errors must be expected set NGY to 198 to avoid them
 WARNING: aliasing errors must be expected set NGZ to 196 to avoid them
 aliasing errors are usually negligible using standard VASP settings
 and one can safely disregard these warnings

 serial   3D FFT for wavefunctions
 parallel 3D FFT for charge:
    minimum data exchange during FFTs selected (reduces bandwidth)


 total amount of memory used by VASP on root node  4333711. kBytes
========================================================================

   base      :      30000. kBytes
   nonlr-proj:       2406. kBytes
   fftplans  :     924480. kBytes
   grid      :    2089440. kBytes
   one-center:         67. kBytes
   wavefun   :    1287318. kBytes
 
     INWAV:  cpu time    0.0010: real time    0.0003
 Broyden mixing: mesh for mixing (old mesh)
   NGX = 97   NGY = 97   NGZ = 97
  (NGX  =300   NGY  =300   NGZ  =300)
  gives a total of 912673 points

 initial charge density was supplied:
 charge density of overlapping atoms calculated
 number of electron      58.0000000 magnetization 
 keeping initial charge density in first step


--------------------------------------------------------------------------------------------------------


 Maximum index for non-local projection operator         2279
 Maximum index for augmentation-charges         1573 (set IRDMAX)


--------------------------------------------------------------------------------------------------------


 First call to EWALD:  gamma=   0.059
 Maximum number of real-space cells 3x 3x 3
 Maximum number of reciprocal cells 3x 3x 3

 FEWALD executed in parallel
    FEWALD:  cpu time    0.0050: real time    0.0048


----------------------------------------- Iteration    1(   1)  ---------------------------------------


    POTLOK:  cpu time   20.8518: real time   20.8356
    SETDIJ:  cpu time    0.0290: real time    0.0285
     EDDAV:  cpu time  270.2859: real time  270.0639
       DOS:  cpu time    0.0000: real time    0.0009
    --------------------------------------------
      LOOP:  cpu time  291.1697: real time  290.9339

 eigenvalue-minimisations  :   392
 total energy-change (2. order) : 0.6084447E+03  (-0.7983687E+03)
 number of electron      58.0000000 magnetization 
 augmentation part       58.0000000 magnetization 

 Free energy of the ion-electron system (eV)
  ---------------------------------------------------
  alpha Z        PSCENC =         0.51957394
  Ewald energy   TEWEN  =      6068.07946826
  -Hartree energ DENC   =     -7810.20526352
  -exchange      EXHF   =         0.00000000
  -V(xc)+E(xc)   XCENC  =       202.10403966
  PAW double counting   =      1779.70502452    -1789.20730229
  entropy T*S    EENTRO =        -0.79615639
  eigenvalues    EBANDS =      -267.73806374
  atomic energy  EATOM  =      2425.98333211
  Solvation  Ediel_sol  =         0.00000000
  ---------------------------------------------------
  free energy    TOTEN  =       608.44465254 eV

  energy without entropy =      609.24080893  energy(sigma->0) =      608.84273073


--------------------------------------------------------------------------------------------------------




----------------------------------------- Iteration    1(   2)  ---------------------------------------


     EDDAV:  cpu time  364.0187: real time  363.7199
       DOS:  cpu time    0.0010: real time    0.0008
    --------------------------------------------
      LOOP:  cpu time  364.0207: real time  363.7249

 eigenvalue-minimisations  :   564
 total energy-change (2. order) :-0.3296784E+03  (-0.3188675E+03)
 number of electron      58.0000000 magnetization 
 augmentation part       58.0000000 magnetization 

 Free energy of the ion-electron system (eV)
  ---------------------------------------------------
  alpha Z        PSCENC =         0.51957394
  Ewald energy   TEWEN  =      6068.07946826
  -Hartree energ DENC   =     -7810.20526352
  -exchange      EXHF   =         0.00000000
  -V(xc)+E(xc)   XCENC  =       202.10403966
  PAW double counting   =      1779.70502452    -1789.20730229
  entropy T*S    EENTRO =        -0.42752597
  eigenvalues    EBANDS =      -597.78511221
  atomic energy  EATOM  =      2425.98333211
  Solvation  Ediel_sol  =         0.00000000
  ---------------------------------------------------
  free energy    TOTEN  =       278.76623449 eV

  energy without entropy =      279.19376046  energy(sigma->0) =      278.97999748


--------------------------------------------------------------------------------------------------------




----------------------------------------- Iteration    1(   3)  ---------------------------------------


     EDDAV:  cpu time  321.1302: real time  320.8676
       DOS:  cpu time    0.0000: real time    0.0006
    --------------------------------------------
      LOOP:  cpu time  321.1312: real time  320.8716

 eigenvalue-minimisations  :   488
 total energy-change (2. order) :-0.3209078E+03  (-0.3109778E+03)
 number of electron      58.0000000 magnetization 
 augmentation part       58.0000000 magnetization 

 Free energy of the ion-electron system (eV)
  ---------------------------------------------------
  alpha Z        PSCENC =         0.51957394
  Ewald energy   TEWEN  =      6068.07946826
  -Hartree energ DENC   =     -7810.20526352
  -exchange      EXHF   =         0.00000000
  -V(xc)+E(xc)   XCENC  =       202.10403966
  PAW double counting   =      1779.70502452    -1789.20730229
  entropy T*S    EENTRO =        -0.00001829
  eigenvalues    EBANDS =      -919.12041652
  atomic energy  EATOM  =      2425.98333211
  Solvation  Ediel_sol  =         0.00000000
  ---------------------------------------------------
  free energy    TOTEN  =       -42.14156214 eV

  energy without entropy =      -42.14154385  energy(sigma->0) =      -42.14155300


--------------------------------------------------------------------------------------------------------




----------------------------------------- Iteration    1(   4)  ---------------------------------------


     EDDAV:  cpu time  272.0756: real time  271.8538
       DOS:  cpu time    0.0000: real time    0.0005
    --------------------------------------------
      LOOP:  cpu time  272.0786: real time  271.8579

 eigenvalue-minimisations  :   397
 total energy-change (2. order) :-0.9413315E+02  (-0.9395006E+02)
 number of electron      58.0000000 magnetization 
 augmentation part       58.0000000 magnetization 

 Free energy of the ion-electron system (eV)
  ---------------------------------------------------
  alpha Z        PSCENC =         0.51957394
  Ewald energy   TEWEN  =      6068.07946826
  -Hartree energ DENC   =     -7810.20526352
  -exchange      EXHF   =         0.00000000
  -V(xc)+E(xc)   XCENC  =       202.10403966
  PAW double counting   =      1779.70502452    -1789.20730229
  entropy T*S    EENTRO =         0.00000000
  eigenvalues    EBANDS =     -1013.25358136
  atomic energy  EATOM  =      2425.98333211
  Solvation  Ediel_sol  =         0.00000000
  ---------------------------------------------------
  free energy    TOTEN  =      -136.27470869 eV

  energy without entropy =     -136.27470869  energy(sigma->0) =     -136.27470869


--------------------------------------------------------------------------------------------------------




----------------------------------------- Iteration    1(   5)  ---------------------------------------


     EDDAV:  cpu time  294.2253: real time  293.9859
       DOS:  cpu time    0.0000: real time    0.0005
    CHARGE:  cpu time   17.5263: real time   17.5122
    MIXING:  cpu time    0.6269: real time    0.6258
    --------------------------------------------
      LOOP:  cpu time  312.3805: real time  312.1278

 eigenvalue-minimisations  :   432
 total energy-change (2. order) :-0.5552091E+01  (-0.5533611E+01)
 number of electron      58.0000064 magnetization 
 augmentation part        2.9693996 magnetization 

 Broyden mixing:
  rms(total) = 0.19541E+01    rms(broyden)= 0.19518E+01
  rms(prec ) = 0.20292E+01
  weight for this iteration     100.00

 Free energy of the ion-electron system (eV)
  ---------------------------------------------------
  alpha Z        PSCENC =         0.51957394
  Ewald energy   TEWEN  =      6068.07946826
  -Hartree energ DENC   =     -7810.20526352
  -exchange      EXHF   =         0.00000000
  -V(xc)+E(xc)   XCENC  =       202.10403966
  PAW double counting   =      1779.70502452    -1789.20730229
  entropy T*S    EENTRO =         0.00000000
  eigenvalues    EBANDS =     -1018.80567281
  atomic energy  EATOM  =      2425.98333211
  Solvation  Ediel_sol  =         0.00000000
  ---------------------------------------------------
  free energy    TOTEN  =      -141.82680013 eV

  energy without entropy =     -141.82680013  energy(sigma->0) =     -141.82680013


--------------------------------------------------------------------------------------------------------




----------------------------------------- Iteration    1(   6)  ---------------------------------------


    POTLOK:  cpu time   20.3699: real time   20.3542
    SETDIJ:  cpu time    0.0290: real time    0.0289
     EDDAV:  cpu time  280.0544: real time  279.8237
       DOS:  cpu time    0.0000: real time    0.0005
    CHARGE:  cpu time   16.9544: real time   16.9405
    MIXING:  cpu time    0.6369: real time    0.6359
    --------------------------------------------
      LOOP:  cpu time  318.0456: real time  317.7871

 eigenvalue-minimisations  :   413
 total energy-change (2. order) : 0.1009443E+02  (-0.2393005E+01)
 number of electron      58.0000067 magnetization 
 augmentation part        2.6303072 magnetization 

 Broyden mixing:
  rms(total) = 0.99937E+00    rms(broyden)= 0.99892E+00
  rms(prec ) = 0.10276E+01
  weight for this iteration     100.00

 eigenvalues of (default mixing * dielectric matrix)
  average eigenvalue GAMMA=   1.2767
  1.2767

 Free energy of the ion-electron system (eV)
  ---------------------------------------------------
  alpha Z        PSCENC =         0.51957394
  Ewald energy   TEWEN  =      6068.07946826
  -Hartree energ DENC   =     -7925.49596135
  -exchange      EXHF   =         0.00000000
  -V(xc)+E(xc)   XCENC  =       208.16903950
  PAW double counting   =      2778.01704896    -2788.88003923
  entropy T*S    EENTRO =         0.00000000
  eigenvalues    EBANDS =      -898.12483351
  atomic energy  EATOM  =      2425.98333211
  Solvation  Ediel_sol  =         0.00000000
  ---------------------------------------------------
  free energy    TOTEN  =      -131.73237131 eV

  energy without entropy =     -131.73237131  energy(sigma->0) =     -131.73237131


--------------------------------------------------------------------------------------------------------




----------------------------------------- Iteration    1(   7)  ---------------------------------------


    POTLOK:  cpu time   18.4802: real time   18.4653
    SETDIJ:  cpu time    0.0290: real time    0.0287
     EDDAV:  cpu time  256.1821: real time  255.9689
       DOS:  cpu time    0.0010: real time    0.0005
    CHARGE:  cpu time   16.0646: real time   16.0514
    MIXING:  cpu time    0.6379: real time    0.6384
    --------------------------------------------
      LOOP:  cpu time  291.3957: real time  291.1563

 eigenvalue-minimisations  :   407
 total energy-change (2. order) : 0.1756015E+01  (-0.4526113E+00)
 number of electron      58.0000067 magnetization 
 augmentation part        2.6195719 magnetization 

 Broyden mixing:
  rms(total) = 0.51493E+00    rms(broyden)= 0.51481E+00
  rms(prec ) = 0.52755E+00
  weight for this iteration     100.00

 eigenvalues of (default mixing * dielectric matrix)
  average eigenvalue GAMMA=   1.5627
  1.0970  2.0283

 Free energy of the ion-electron system (eV)
  ---------------------------------------------------
  alpha Z        PSCENC =         0.51957394
  Ewald energy   TEWEN  =      6068.07946826
  -Hartree energ DENC   =     -7987.75494898
  -exchange      EXHF   =         0.00000000
  -V(xc)+E(xc)   XCENC  =       211.18524928
  PAW double counting   =      3750.71760119    -3761.85049884
  entropy T*S    EENTRO =         0.00000000
  eigenvalues    EBANDS =      -836.85613288
  atomic energy  EATOM  =      2425.98333211
  Solvation  Ediel_sol  =         0.00000000
  ---------------------------------------------------
  free energy    TOTEN  =      -129.97635592 eV

  energy without entropy =     -129.97635592  energy(sigma->0) =     -129.97635592


--------------------------------------------------------------------------------------------------------




----------------------------------------- Iteration    1(   8)  ---------------------------------------


    POTLOK:  cpu time   19.9110: real time   19.8950
    SETDIJ:  cpu time    0.0290: real time    0.0289
     EDDAV:  cpu time  303.4029: real time  303.1549
       DOS:  cpu time    0.0000: real time    0.0005
    CHARGE:  cpu time   17.4533: real time   17.4386
    MIXING:  cpu time    0.7699: real time    0.7695
    --------------------------------------------
      LOOP:  cpu time  341.5691: real time  341.2908

 eigenvalue-minimisations  :   440
 total energy-change (2. order) : 0.4835879E+00  (-0.8653733E-01)
 number of electron      58.0000066 magnetization 
 augmentation part        2.5897586 magnetization 

 Broyden mixing:
  rms(total) = 0.15571E+00    rms(broyden)= 0.15565E+00
  rms(prec ) = 0.16325E+00
  weight for this iteration     100.00

 eigenvalues of (default mixing * dielectric matrix)
  average eigenvalue GAMMA=   1.5448
  2.3884  0.9397  1.3061

 Free energy of the ion-electron system (eV)
  ---------------------------------------------------
  alpha Z        PSCENC =         0.51957394
  Ewald energy   TEWEN  =      6068.07946826
  -Hartree energ DENC   =     -8028.57564885
  -exchange      EXHF   =         0.00000000
  -V(xc)+E(xc)   XCENC  =       213.30525016
  PAW double counting   =      4573.61821761    -4584.93593606
  entropy T*S    EENTRO =         0.00000000
  eigenvalues    EBANDS =      -797.48702522
  atomic energy  EATOM  =      2425.98333211
  Solvation  Ediel_sol  =         0.00000000
  ---------------------------------------------------
  free energy    TOTEN  =      -129.49276804 eV

  energy without entropy =     -129.49276804  energy(sigma->0) =     -129.49276804


--------------------------------------------------------------------------------------------------------




----------------------------------------- Iteration    1(   9)  ---------------------------------------


    POTLOK:  cpu time   19.8270: real time   19.8119
    SETDIJ:  cpu time    0.0290: real time    0.0292
     EDDAV:  cpu time  311.5656: real time  311.3095
       DOS:  cpu time    0.0000: real time    0.0005
    CHARGE:  cpu time   16.6875: real time   16.6747
    MIXING:  cpu time    0.7109: real time    0.7100
    --------------------------------------------
      LOOP:  cpu time  348.8230: real time  348.5393

 eigenvalue-minimisations  :   464
 total energy-change (2. order) : 0.6893260E-01  (-0.1018917E-01)
 number of electron      58.0000067 magnetization 
 augmentation part        2.5821528 magnetization 

 Broyden mixing:
  rms(total) = 0.56392E-01    rms(broyden)= 0.56366E-01
  rms(prec ) = 0.64890E-01
  weight for this iteration     100.00

 eigenvalues of (default mixing * dielectric matrix)
  average eigenvalue GAMMA=   1.5145
  2.2070  1.0491  1.0491  1.7528

 Free energy of the ion-electron system (eV)
  ---------------------------------------------------
  alpha Z        PSCENC =         0.51957394
  Ewald energy   TEWEN  =      6068.07946826
  -Hartree energ DENC   =     -8042.28806542
  -exchange      EXHF   =         0.00000000
  -V(xc)+E(xc)   XCENC  =       213.86065553
  PAW double counting   =      4812.22931944    -4823.51371716
  entropy T*S    EENTRO =         0.00000000
  eigenvalues    EBANDS =      -784.29440214
  atomic energy  EATOM  =      2425.98333211
  Solvation  Ediel_sol  =         0.00000000
  ---------------------------------------------------
  free energy    TOTEN  =      -129.42383544 eV

  energy without entropy =     -129.42383544  energy(sigma->0) =     -129.42383544


--------------------------------------------------------------------------------------------------------




----------------------------------------- Iteration    1(  10)  ---------------------------------------


    POTLOK:  cpu time   18.0493: real time   18.0345
    SETDIJ:  cpu time    0.0280: real time    0.0284
     EDDAV:  cpu time  299.9714: real time  299.7243
       DOS:  cpu time    0.0000: real time    0.0005
    CHARGE:  cpu time   17.7723: real time   17.7578
    MIXING:  cpu time    0.8969: real time    0.8959
    --------------------------------------------
      LOOP:  cpu time  336.7188: real time  336.4446

 eigenvalue-minimisations  :   440
 total energy-change (2. order) : 0.1108319E-01  (-0.2495782E-02)
 number of electron      58.0000067 magnetization 
 augmentation part        2.5886762 magnetization 

 Broyden mixing:
  rms(total) = 0.25991E-01    rms(broyden)= 0.25970E-01
  rms(prec ) = 0.35878E-01
  weight for this iteration     100.00

 eigenvalues of (default mixing * dielectric matrix)
  average eigenvalue GAMMA=   1.4871
  2.1748  2.1748  0.9561  0.9561  1.1736

 Free energy of the ion-electron system (eV)
  ---------------------------------------------------
  alpha Z        PSCENC =         0.51957394
  Ewald energy   TEWEN  =      6068.07946826
  -Hartree energ DENC   =     -8047.30064847
  -exchange      EXHF   =         0.00000000
  -V(xc)+E(xc)   XCENC  =       213.87280139
  PAW double counting   =      4804.25591611    -4815.49175262
  entropy T*S    EENTRO =         0.00000000
  eigenvalues    EBANDS =      -779.33144296
  atomic energy  EATOM  =      2425.98333211
  Solvation  Ediel_sol  =         0.00000000
  ---------------------------------------------------
  free energy    TOTEN  =      -129.41275224 eV

  energy without entropy =     -129.41275224  energy(sigma->0) =     -129.41275224


--------------------------------------------------------------------------------------------------------




----------------------------------------- Iteration    1(  11)  ---------------------------------------


    POTLOK:  cpu time   20.6669: real time   20.6507
    SETDIJ:  cpu time    0.0290: real time    0.0293
     EDDAV:  cpu time  312.2355: real time  311.9806
       DOS:  cpu time    0.0000: real time    0.0005
    CHARGE:  cpu time   17.3184: real time   17.3047
    MIXING:  cpu time    0.8659: real time    0.8652
    --------------------------------------------
      LOOP:  cpu time  351.1186: real time  350.8348

 eigenvalue-minimisations  :   456
 total energy-change (2. order) : 0.5489997E-02  (-0.7988188E-03)
 number of electron      58.0000067 magnetization 
 augmentation part        2.5843996 magnetization 

 Broyden mixing:
  rms(total) = 0.16033E-01    rms(broyden)= 0.16027E-01
  rms(prec ) = 0.24748E-01
  weight for this iteration     100.00

 eigenvalues of (default mixing * dielectric matrix)
  average eigenvalue GAMMA=   1.5461
  2.4729  2.4729  0.9429  0.9429  1.2227  1.2227

 Free energy of the ion-electron system (eV)
  ---------------------------------------------------
  alpha Z        PSCENC =         0.51957394
  Ewald energy   TEWEN  =      6068.07946826
  -Hartree energ DENC   =     -8053.21930357
  -exchange      EXHF   =         0.00000000
  -V(xc)+E(xc)   XCENC  =       213.97853166
  PAW double counting   =      4807.31994445    -4818.55378648
  entropy T*S    EENTRO =         0.00000000
  eigenvalues    EBANDS =      -773.51502262
  atomic energy  EATOM  =      2425.98333211
  Solvation  Ediel_sol  =         0.00000000
  ---------------------------------------------------
  free energy    TOTEN  =      -129.40726224 eV

  energy without entropy =     -129.40726224  energy(sigma->0) =     -129.40726224


--------------------------------------------------------------------------------------------------------




----------------------------------------- Iteration    1(  12)  ---------------------------------------


    POTLOK:  cpu time   19.0601: real time   19.0443
    SETDIJ:  cpu time    0.0280: real time    0.0285
     EDDAV:  cpu time  262.3961: real time  262.1809
       DOS:  cpu time    0.0000: real time    0.0005
    CHARGE:  cpu time   19.4150: real time   19.3990
    MIXING:  cpu time    1.0668: real time    1.0654
    --------------------------------------------
      LOOP:  cpu time  301.9681: real time  301.7228

 eigenvalue-minimisations  :   374
 total energy-change (2. order) :-0.5913110E-03  (-0.5706354E-03)
 number of electron      58.0000067 magnetization 
 augmentation part        2.5838514 magnetization 

 Broyden mixing:
  rms(total) = 0.97464E-02    rms(broyden)= 0.97427E-02
  rms(prec ) = 0.15861E-01
  weight for this iteration     100.00

 eigenvalues of (default mixing * dielectric matrix)
  average eigenvalue GAMMA=   1.6112
  2.7449  2.7449  1.4151  1.2243  1.2243  0.9622  0.9622

 Free energy of the ion-electron system (eV)
  ---------------------------------------------------
  alpha Z        PSCENC =         0.51957394
  Ewald energy   TEWEN  =      6068.07946826
  -Hartree energ DENC   =     -8059.97555532
  -exchange      EXHF   =         0.00000000
  -V(xc)+E(xc)   XCENC  =       214.06570712
  PAW double counting   =      4802.87782241    -4814.10147185
  entropy T*S    EENTRO =         0.00000000
  eigenvalues    EBANDS =      -766.85673023
  atomic energy  EATOM  =      2425.98333211
  Solvation  Ediel_sol  =         0.00000000
  ---------------------------------------------------
  free energy    TOTEN  =      -129.40785355 eV

  energy without entropy =     -129.40785355  energy(sigma->0) =     -129.40785355


--------------------------------------------------------------------------------------------------------




----------------------------------------- Iteration    1(  13)  ---------------------------------------


    POTLOK:  cpu time   22.0396: real time   22.0235
    SETDIJ:  cpu time    0.0300: real time    0.0297
     EDDAV:  cpu time  302.8370: real time  302.5888
       DOS:  cpu time    0.0010: real time    0.0006
    CHARGE:  cpu time   18.0932: real time   18.0789
    MIXING:  cpu time    0.9888: real time    0.9886
    --------------------------------------------
      LOOP:  cpu time  343.9907: real time  343.7186

 eigenvalue-minimisations  :   432
 total energy-change (2. order) :-0.6478417E-02  (-0.4688099E-03)
 number of electron      58.0000067 magnetization 
 augmentation part        2.5823672 magnetization 

 Broyden mixing:
  rms(total) = 0.57539E-02    rms(broyden)= 0.57484E-02
  rms(prec ) = 0.93148E-02
  weight for this iteration     100.00

 eigenvalues of (default mixing * dielectric matrix)
  average eigenvalue GAMMA=   1.7106
  4.1065  2.4963  1.5977  1.4953  0.9921  0.9921  0.9887  1.0161

 Free energy of the ion-electron system (eV)
  ---------------------------------------------------
  alpha Z        PSCENC =         0.51957394
  Ewald energy   TEWEN  =      6068.07946826
  -Hartree energ DENC   =     -8065.87647765
  -exchange      EXHF   =         0.00000000
  -V(xc)+E(xc)   XCENC  =       214.13467539
  PAW double counting   =      4796.75053960    -4807.97401934
  entropy T*S    EENTRO =         0.00000000
  eigenvalues    EBANDS =      -761.03142428
  atomic energy  EATOM  =      2425.98333211
  Solvation  Ediel_sol  =         0.00000000
  ---------------------------------------------------
  free energy    TOTEN  =      -129.41433197 eV

  energy without entropy =     -129.41433197  energy(sigma->0) =     -129.41433197


--------------------------------------------------------------------------------------------------------




----------------------------------------- Iteration    1(  14)  ---------------------------------------


    POTLOK:  cpu time   20.2209: real time   20.2051
    SETDIJ:  cpu time    0.0290: real time    0.0286
     EDDAV:  cpu time  268.3432: real time  268.1238
       DOS:  cpu time    0.0010: real time    0.0006
    CHARGE:  cpu time   20.0919: real time   20.0764
    MIXING:  cpu time    1.1548: real time    1.1538
    --------------------------------------------
      LOOP:  cpu time  309.8439: real time  309.5925

 eigenvalue-minimisations  :   400
 total energy-change (2. order) :-0.6327193E-02  (-0.1658509E-03)
 number of electron      58.0000067 magnetization 
 augmentation part        2.5819540 magnetization 

 Broyden mixing:
  rms(total) = 0.37957E-02    rms(broyden)= 0.37929E-02
  rms(prec ) = 0.58077E-02
  weight for this iteration     100.00

 eigenvalues of (default mixing * dielectric matrix)
  average eigenvalue GAMMA=   1.8203
  5.0152  2.4528  2.1570  1.3351  1.3351  1.0764  1.0764  0.9674  0.9674

 Free energy of the ion-electron system (eV)
  ---------------------------------------------------
  alpha Z        PSCENC =         0.51957394
  Ewald energy   TEWEN  =      6068.07946826
  -Hartree energ DENC   =     -8069.24284431
  -exchange      EXHF   =         0.00000000
  -V(xc)+E(xc)   XCENC  =       214.15645633
  PAW double counting   =      4791.55170247    -4802.77225212
  entropy T*S    EENTRO =         0.00000000
  eigenvalues    EBANDS =      -757.69609585
  atomic energy  EATOM  =      2425.98333211
  Solvation  Ediel_sol  =         0.00000000
  ---------------------------------------------------
  free energy    TOTEN  =      -129.42065916 eV

  energy without entropy =     -129.42065916  energy(sigma->0) =     -129.42065916


--------------------------------------------------------------------------------------------------------




----------------------------------------- Iteration    1(  15)  ---------------------------------------


    POTLOK:  cpu time   22.6906: real time   22.6733
    SETDIJ:  cpu time    0.0300: real time    0.0297
     EDDAV:  cpu time  284.8057: real time  284.5731
       DOS:  cpu time    0.0000: real time    0.0006
    CHARGE:  cpu time   18.4592: real time   18.4449
    MIXING:  cpu time    1.2868: real time    1.2844
    --------------------------------------------
      LOOP:  cpu time  327.2752: real time  327.0098

 eigenvalue-minimisations  :   394
 total energy-change (2. order) :-0.7696952E-02  (-0.8169865E-04)
 number of electron      58.0000067 magnetization 
 augmentation part        2.5815979 magnetization 

 Broyden mixing:
  rms(total) = 0.23199E-02    rms(broyden)= 0.23187E-02
  rms(prec ) = 0.34833E-02
  weight for this iteration     100.00

 eigenvalues of (default mixing * dielectric matrix)
  average eigenvalue GAMMA=   1.9256
  5.7591  2.8316  2.3961  1.8205  1.2157  1.2157  1.0299  1.0299  0.9789  0.9789

 Free energy of the ion-electron system (eV)
  ---------------------------------------------------
  alpha Z        PSCENC =         0.51957394
  Ewald energy   TEWEN  =      6068.07946826
  -Hartree energ DENC   =     -8070.99012565
  -exchange      EXHF   =         0.00000000
  -V(xc)+E(xc)   XCENC  =       214.15751962
  PAW double counting   =      4790.51146590    -4801.73097835
  entropy T*S    EENTRO =         0.00000000
  eigenvalues    EBANDS =      -755.95861194
  atomic energy  EATOM  =      2425.98333211
  Solvation  Ediel_sol  =         0.00000000
  ---------------------------------------------------
  free energy    TOTEN  =      -129.42835612 eV

  energy without entropy =     -129.42835612  energy(sigma->0) =     -129.42835612


--------------------------------------------------------------------------------------------------------




----------------------------------------- Iteration    1(  16)  ---------------------------------------


    POTLOK:  cpu time   21.0918: real time   21.0746
    SETDIJ:  cpu time    0.0300: real time    0.0299
     EDDAV:  cpu time  237.9298: real time  237.7355
       DOS:  cpu time    0.0000: real time    0.0005
    CHARGE:  cpu time   16.3705: real time   16.3583
    MIXING:  cpu time    1.0338: real time    1.0337
    --------------------------------------------
      LOOP:  cpu time  276.4590: real time  276.2366

 eigenvalue-minimisations  :   334
 total energy-change (2. order) :-0.6101600E-02  (-0.5036309E-04)
 number of electron      58.0000067 magnetization 
 augmentation part        2.5818259 magnetization 

 Broyden mixing:
  rms(total) = 0.13625E-02    rms(broyden)= 0.13619E-02
  rms(prec ) = 0.19946E-02
  weight for this iteration     100.00

 eigenvalues of (default mixing * dielectric matrix)
  average eigenvalue GAMMA=   1.9422
  6.2587  3.2047  2.3507  1.8672  1.2850  1.2850  1.2188  0.9939  0.9939  0.9533
  0.9533

 Free energy of the ion-electron system (eV)
  ---------------------------------------------------
  alpha Z        PSCENC =         0.51957394
  Ewald energy   TEWEN  =      6068.07946826
  -Hartree energ DENC   =     -8071.65041365
  -exchange      EXHF   =         0.00000000
  -V(xc)+E(xc)   XCENC  =       214.14636972
  PAW double counting   =      4790.81511703    -4802.03333414
  entropy T*S    EENTRO =         0.00000000
  eigenvalues    EBANDS =      -755.29457099
  atomic energy  EATOM  =      2425.98333211
  Solvation  Ediel_sol  =         0.00000000
  ---------------------------------------------------
  free energy    TOTEN  =      -129.43445772 eV

  energy without entropy =     -129.43445772  energy(sigma->0) =     -129.43445772


--------------------------------------------------------------------------------------------------------




----------------------------------------- Iteration    1(  17)  ---------------------------------------


    POTLOK:  cpu time   18.1622: real time   18.1483
    SETDIJ:  cpu time    0.0290: real time    0.0284
     EDDAV:  cpu time  269.8390: real time  269.6190
       DOS:  cpu time    0.0000: real time    0.0006
    CHARGE:  cpu time   18.1422: real time   18.1272
    MIXING:  cpu time    1.4398: real time    1.4387
    --------------------------------------------
      LOOP:  cpu time  307.6152: real time  307.3656

 eigenvalue-minimisations  :   366
 total energy-change (2. order) :-0.2505992E-02  (-0.1224452E-04)
 number of electron      58.0000067 magnetization 
 augmentation part        2.5816663 magnetization 

 Broyden mixing:
  rms(total) = 0.87563E-03    rms(broyden)= 0.87525E-03
  rms(prec ) = 0.12898E-02
  weight for this iteration     100.00

 eigenvalues of (default mixing * dielectric matrix)
  average eigenvalue GAMMA=   2.0368
  7.1590  3.6454  2.3266  2.3266  1.5189  1.5189  1.0354  1.0354  1.0363  1.0363
  0.9015  0.9015

 Free energy of the ion-electron system (eV)
  ---------------------------------------------------
  alpha Z        PSCENC =         0.51957394
  Ewald energy   TEWEN  =      6068.07946826
  -Hartree energ DENC   =     -8071.96491832
  -exchange      EXHF   =         0.00000000
  -V(xc)+E(xc)   XCENC  =       214.14365253
  PAW double counting   =      4790.82221591    -4802.04080267
  entropy T*S    EENTRO =         0.00000000
  eigenvalues    EBANDS =      -754.97948548
  atomic energy  EATOM  =      2425.98333211
  Solvation  Ediel_sol  =         0.00000000
  ---------------------------------------------------
  free energy    TOTEN  =      -129.43696371 eV

  energy without entropy =     -129.43696371  energy(sigma->0) =     -129.43696371


--------------------------------------------------------------------------------------------------------




----------------------------------------- Iteration    1(  18)  ---------------------------------------


    POTLOK:  cpu time   21.2158: real time   21.1989
    SETDIJ:  cpu time    0.0290: real time    0.0289
     EDDAV:  cpu time  224.8438: real time  224.6603
       DOS:  cpu time    0.0000: real time    0.0006
    CHARGE:  cpu time   17.7303: real time   17.7159
    MIXING:  cpu time    1.4138: real time    1.4128
    --------------------------------------------
      LOOP:  cpu time  265.2347: real time  265.0212

 eigenvalue-minimisations  :   284
 total energy-change (2. order) :-0.1835748E-02  (-0.1278979E-04)
 number of electron      58.0000067 magnetization 
 augmentation part        2.5816097 magnetization 

 Broyden mixing:
  rms(total) = 0.54413E-03    rms(broyden)= 0.54392E-03
  rms(prec ) = 0.76922E-03
  weight for this iteration     100.00

 eigenvalues of (default mixing * dielectric matrix)
  average eigenvalue GAMMA=   2.0731
  7.5634  4.2158  2.4704  2.3148  1.6764  1.3573  1.3573  1.0352  1.0352  0.9592
  0.9592  1.0030  1.0030

 Free energy of the ion-electron system (eV)
  ---------------------------------------------------
  alpha Z        PSCENC =         0.51957394
  Ewald energy   TEWEN  =      6068.07946826
  -Hartree energ DENC   =     -8072.16159640
  -exchange      EXHF   =         0.00000000
  -V(xc)+E(xc)   XCENC  =       214.14061095
  PAW double counting   =      4790.93910577    -4802.15756779
  entropy T*S    EENTRO =         0.00000000
  eigenvalues    EBANDS =      -754.78172630
  atomic energy  EATOM  =      2425.98333211
  Solvation  Ediel_sol  =         0.00000000
  ---------------------------------------------------
  free energy    TOTEN  =      -129.43879946 eV

  energy without entropy =     -129.43879946  energy(sigma->0) =     -129.43879946


--------------------------------------------------------------------------------------------------------




----------------------------------------- Iteration    1(  19)  ---------------------------------------


    POTLOK:  cpu time   20.5109: real time   20.4937
    SETDIJ:  cpu time    0.0290: real time    0.0293
     EDDAV:  cpu time  255.3452: real time  255.1352
       DOS:  cpu time    0.0000: real time    0.0006
    CHARGE:  cpu time   19.1191: real time   19.1028
    MIXING:  cpu time    1.6497: real time    1.6491
    --------------------------------------------
      LOOP:  cpu time  296.6549: real time  296.4150

 eigenvalue-minimisations  :   366
 total energy-change (2. order) :-0.8568810E-03  (-0.4758051E-05)
 number of electron      58.0000067 magnetization 
 augmentation part        2.5815834 magnetization 

 Broyden mixing:
  rms(total) = 0.34085E-03    rms(broyden)= 0.34065E-03
  rms(prec ) = 0.47574E-03
  weight for this iteration     100.00

 eigenvalues of (default mixing * dielectric matrix)
  average eigenvalue GAMMA=   2.1323
  8.0886  4.7189  2.6146  2.6146  1.6296  1.6296  1.5752  0.9235  1.0203  1.0203
  1.0369  1.0369  0.9714  0.9714

 Free energy of the ion-electron system (eV)
  ---------------------------------------------------
  alpha Z        PSCENC =         0.51957394
  Ewald energy   TEWEN  =      6068.07946826
  -Hartree energ DENC   =     -8072.22603845
  -exchange      EXHF   =         0.00000000
  -V(xc)+E(xc)   XCENC  =       214.13988184
  PAW double counting   =      4791.32991084    -4802.54838003
  entropy T*S    EENTRO =         0.00000000
  eigenvalues    EBANDS =      -754.71740485
  atomic energy  EATOM  =      2425.98333211
  Solvation  Ediel_sol  =         0.00000000
  ---------------------------------------------------
  free energy    TOTEN  =      -129.43965634 eV

  energy without entropy =     -129.43965634  energy(sigma->0) =     -129.43965634


--------------------------------------------------------------------------------------------------------




----------------------------------------- Iteration    1(  20)  ---------------------------------------


    POTLOK:  cpu time   21.8287: real time   21.8114
    SETDIJ:  cpu time    0.0290: real time    0.0292
     EDDAV:  cpu time  224.7308: real time  224.5463
       DOS:  cpu time    0.0010: real time    0.0005
    CHARGE:  cpu time   18.3902: real time   18.3761
    MIXING:  cpu time    1.6428: real time    1.6416
    --------------------------------------------
      LOOP:  cpu time  266.6245: real time  266.4095

 eigenvalue-minimisations  :   278
 total energy-change (2. order) :-0.4766526E-03  (-0.1997227E-05)
 number of electron      58.0000067 magnetization 
 augmentation part        2.5816024 magnetization 

 Broyden mixing:
  rms(total) = 0.22324E-03    rms(broyden)= 0.22316E-03
  rms(prec ) = 0.29505E-03
  weight for this iteration     100.00

 eigenvalues of (default mixing * dielectric matrix)
  average eigenvalue GAMMA=   2.1328
  8.2473  5.1809  2.8457  2.4700  2.0629  1.6291  1.1991  1.1991  1.0399  1.0399
  1.1024  1.0127  0.9470  1.0084  1.0084

 Free energy of the ion-electron system (eV)
  ---------------------------------------------------
  alpha Z        PSCENC =         0.51957394
  Ewald energy   TEWEN  =      6068.07946826
  -Hartree energ DENC   =     -8072.24617214
  -exchange      EXHF   =         0.00000000
  -V(xc)+E(xc)   XCENC  =       214.13838618
  PAW double counting   =      4790.91473126    -4802.13307977
  entropy T*S    EENTRO =         0.00000000
  eigenvalues    EBANDS =      -754.69637283
  atomic energy  EATOM  =      2425.98333211
  Solvation  Ediel_sol  =         0.00000000
  ---------------------------------------------------
  free energy    TOTEN  =      -129.44013299 eV

  energy without entropy =     -129.44013299  energy(sigma->0) =     -129.44013299


--------------------------------------------------------------------------------------------------------




----------------------------------------- Iteration    1(  21)  ---------------------------------------


    POTLOK:  cpu time   21.6507: real time   21.6341
    SETDIJ:  cpu time    0.0290: real time    0.0287
     EDDAV:  cpu time  266.6195: real time  266.4012
       DOS:  cpu time    0.0000: real time    0.0005
    CHARGE:  cpu time   16.7185: real time   16.7049
    MIXING:  cpu time    1.4228: real time    1.4215
    --------------------------------------------
      LOOP:  cpu time  306.4424: real time  306.1949

 eigenvalue-minimisations  :   368
 total energy-change (2. order) :-0.1889737E-03  (-0.8175623E-06)
 number of electron      58.0000067 magnetization 
 augmentation part        2.5815855 magnetization 

 Broyden mixing:
  rms(total) = 0.13100E-03    rms(broyden)= 0.13093E-03
  rms(prec ) = 0.18169E-03
  weight for this iteration     100.00

 eigenvalues of (default mixing * dielectric matrix)
  average eigenvalue GAMMA=   2.2023
  8.4624  5.7075  3.2781  2.6506  2.3389  1.6326  1.6326  1.4374  1.1056  1.1056
  1.0248  1.0248  0.9693  0.9693  1.0097  0.8868

 Free energy of the ion-electron system (eV)
  ---------------------------------------------------
  alpha Z        PSCENC =         0.51957394
  Ewald energy   TEWEN  =      6068.07946826
  -Hartree energ DENC   =     -8072.26030644
  -exchange      EXHF   =         0.00000000
  -V(xc)+E(xc)   XCENC  =       214.13839712
  PAW double counting   =      4791.01559994    -4802.23399982
  entropy T*S    EENTRO =         0.00000000
  eigenvalues    EBANDS =      -754.68238707
  atomic energy  EATOM  =      2425.98333211
  Solvation  Ediel_sol  =         0.00000000
  ---------------------------------------------------
  free energy    TOTEN  =      -129.44032196 eV

  energy without entropy =     -129.44032196  energy(sigma->0) =     -129.44032196


--------------------------------------------------------------------------------------------------------




----------------------------------------- Iteration    1(  22)  ---------------------------------------


    POTLOK:  cpu time   18.5272: real time   18.5121
    SETDIJ:  cpu time    0.0280: real time    0.0286
     EDDAV:  cpu time  197.4180: real time  197.2563
       DOS:  cpu time    0.0010: real time    0.0005
    CHARGE:  cpu time   19.0051: real time   18.9908
    MIXING:  cpu time    1.9507: real time    1.9484
    --------------------------------------------
      LOOP:  cpu time  236.9320: real time  236.7415

 eigenvalue-minimisations  :   245
 total energy-change (2. order) :-0.1539444E-03  (-0.4319522E-06)
 number of electron      58.0000067 magnetization 
 augmentation part        2.5815802 magnetization 

 Broyden mixing:
  rms(total) = 0.11343E-03    rms(broyden)= 0.11340E-03
  rms(prec ) = 0.13193E-03
  weight for this iteration     100.00

 eigenvalues of (default mixing * dielectric matrix)
  average eigenvalue GAMMA=   2.1949
  8.5706  6.0948  3.6503  2.4586  2.4586  1.7814  1.6451  1.2848  1.2848  1.0369
  1.0369  1.0818  1.0818  0.9820  0.9820  0.9132  0.9702

 Free energy of the ion-electron system (eV)
  ---------------------------------------------------
  alpha Z        PSCENC =         0.51957394
  Ewald energy   TEWEN  =      6068.07946826
  -Hartree energ DENC   =     -8072.27532413
  -exchange      EXHF   =         0.00000000
  -V(xc)+E(xc)   XCENC  =       214.13809935
  PAW double counting   =      4790.91262269    -4802.13104495
  entropy T*S    EENTRO =         0.00000000
  eigenvalues    EBANDS =      -754.66720318
  atomic energy  EATOM  =      2425.98333211
  Solvation  Ediel_sol  =         0.00000000
  ---------------------------------------------------
  free energy    TOTEN  =      -129.44047591 eV

  energy without entropy =     -129.44047591  energy(sigma->0) =     -129.44047591


--------------------------------------------------------------------------------------------------------




----------------------------------------- Iteration    1(  23)  ---------------------------------------


    POTLOK:  cpu time   22.0876: real time   22.0705
    SETDIJ:  cpu time    0.0300: real time    0.0297
     EDDAV:  cpu time  279.5005: real time  279.2746
       DOS:  cpu time    0.0000: real time    0.0005
    --------------------------------------------
      LOOP:  cpu time  301.6201: real time  301.3794

 eigenvalue-minimisations  :   368
 total energy-change (2. order) :-0.3826173E-04  (-0.1148922E-06)
 number of electron      58.0000067 magnetization 
 augmentation part        2.5815802 magnetization 

 Free energy of the ion-electron system (eV)
  ---------------------------------------------------
  alpha Z        PSCENC =         0.51957394
  Ewald energy   TEWEN  =      6068.07946826
  -Hartree energ DENC   =     -8072.28310267
  -exchange      EXHF   =         0.00000000
  -V(xc)+E(xc)   XCENC  =       214.13805484
  PAW double counting   =      4790.93047292    -4802.14885387
  entropy T*S    EENTRO =         0.00000000
  eigenvalues    EBANDS =      -754.65945971
  atomic energy  EATOM  =      2425.98333211
  Solvation  Ediel_sol  =         0.00000000
  ---------------------------------------------------
  free energy    TOTEN  =      -129.44051417 eV

  energy without entropy =     -129.44051417  energy(sigma->0) =     -129.44051417


--------------------------------------------------------------------------------------------------------




 average (electrostatic) potential at core
  the test charge radii are     0.5201  0.6991  0.7089  0.7215
  (the norm of the test charge is              1.0000)
       1 -42.3060       2 -42.5872       3 -42.5286       4 -44.7179       5 -42.2321
       6 -41.8780       7 -41.8739       8 -42.0303       9 -43.2965      10 -41.7553
      11 -41.7155      12 -42.0108      13 -59.0826      14 -61.4498      15 -59.9305
      16 -58.6379      17 -60.7274      18 -59.1150      19 -74.7520      20 -73.8621
      21 -79.9568      22 -79.3185
 
 
 
 E-fermi :  -4.5010     XC(G=0):  -0.1539     alpha+bet : -0.0465


 k-point     1 :       0.2500    0.2500    0.2500
  band No.  band energies     occupation 
      1     -26.1856      2.00000
      2     -25.5294      2.00000
      3     -23.4398      2.00000
      4     -22.6574      2.00000
      5     -19.6004      2.00000
      6     -18.2601      2.00000
      7     -17.5190      2.00000
      8     -15.7371      2.00000
      9     -14.9704      2.00000
     10     -13.8938      2.00000
     11     -13.0050      2.00000
     12     -12.3940      2.00000
     13     -12.0584      2.00000
     14     -11.3560      2.00000
     15     -11.1203      2.00000
     16     -10.6799      2.00000
     17     -10.2291      2.00000
     18     -10.0862      2.00000
     19      -9.9872      2.00000
     20      -9.4669      2.00000
     21      -9.3686      2.00000
     22      -9.1349      2.00000
     23      -9.0583      2.00000
     24      -8.7631      2.00000
     25      -8.5317      2.00000
     26      -6.8242      2.00000
     27      -6.2471      2.00000
     28      -5.8041      2.00000
     29      -5.4218      2.00000
     30      -1.0754      0.00000
     31      -0.9439      0.00000
     32      -0.5595      0.00000
     33      -0.3267      0.00000
     34      -0.1911      0.00000
     35      -0.0617      0.00000
     36       0.0143      0.00000
     37       0.0972      0.00000
     38       0.1052      0.00000
     39       0.1078      0.00000
     40       0.1565      0.00000
     41       0.1733      0.00000

 k-point     2 :      -0.2500    0.2500    0.2500
  band No.  band energies     occupation 
      1     -26.1856      2.00000
      2     -25.5294      2.00000
      3     -23.4398      2.00000
      4     -22.6574      2.00000
      5     -19.6004      2.00000
      6     -18.2601      2.00000
      7     -17.5190      2.00000
      8     -15.7371      2.00000
      9     -14.9704      2.00000
     10     -13.8938      2.00000
     11     -13.0050      2.00000
     12     -12.3940      2.00000
     13     -12.0584      2.00000
     14     -11.3560      2.00000
     15     -11.1203      2.00000
     16     -10.6799      2.00000
     17     -10.2291      2.00000
     18     -10.0862      2.00000
     19      -9.9872      2.00000
     20      -9.4669      2.00000
     21      -9.3686      2.00000
     22      -9.1349      2.00000
     23      -9.0582      2.00000
     24      -8.7631      2.00000
     25      -8.5317      2.00000
     26      -6.8242      2.00000
     27      -6.2471      2.00000
     28      -5.8041      2.00000
     29      -5.4218      2.00000
     30      -1.0754      0.00000
     31      -0.9439      0.00000
     32      -0.5595      0.00000
     33      -0.3267      0.00000
     34      -0.1912      0.00000
     35      -0.0621      0.00000
     36       0.0186      0.00000
     37       0.0838      0.00000
     38       0.1020      0.00000
     39       0.1153      0.00000
     40       0.1588      0.00000
     41       0.1783      0.00000

 k-point     3 :       0.2500   -0.2500    0.2500
  band No.  band energies     occupation 
      1     -26.1856      2.00000
      2     -25.5294      2.00000
      3     -23.4398      2.00000
      4     -22.6574      2.00000
      5     -19.6004      2.00000
      6     -18.2601      2.00000
      7     -17.5190      2.00000
      8     -15.7371      2.00000
      9     -14.9704      2.00000
[...]
 augmentation part        2.5819006 magnetization 

 Free energy of the ion-electron system (eV)
  ---------------------------------------------------
  alpha Z        PSCENC =         0.51957394
  Ewald energy   TEWEN  =      6057.15926644
  -Hartree energ DENC   =     -8060.94814381
  -exchange      EXHF   =         0.00000000
  -V(xc)+E(xc)   XCENC  =       214.07494894
  PAW double counting   =      4786.04821295    -4797.26520054
  entropy T*S    EENTRO =         0.00000000
  eigenvalues    EBANDS =      -755.09749224
  atomic energy  EATOM  =      2425.98333211
  Solvation  Ediel_sol  =         0.00000000
  ---------------------------------------------------
  free energy    TOTEN  =      -129.52550222 eV

  energy without entropy =     -129.52550222  energy(sigma->0) =     -129.52550222


--------------------------------------------------------------------------------------------------------




 average (electrostatic) potential at core
  the test charge radii are     0.5201  0.6991  0.7089  0.7215
  (the norm of the test charge is              1.0000)
       1 -42.3106       2 -42.5266       3 -42.4951       4 -44.7212       5 -42.2658
       6 -41.8898       7 -41.8799       8 -41.9951       9 -43.5757      10 -41.7908
      11 -41.7751      12 -42.1072      13 -59.0616      14 -61.3924      15 -59.9220
      16 -58.6362      17 -60.7770      18 -59.1914      19 -74.7162      20 -74.0160
      21 -79.8643      22 -79.3589
 
 
 
 E-fermi :  -4.4717     XC(G=0):  -0.1316     alpha+bet : -0.0465


 k-point     1 :       0.2500    0.2500    0.2500
  band No.  band energies     occupation 
      1     -26.1240      2.00000
      2     -25.5859      2.00000
      3     -23.3942      2.00000
      4     -22.7285      2.00000
      5     -19.5578      2.00000
      6     -18.2190      2.00000
      7     -17.5566      2.00000
      8     -15.7721      2.00000
      9     -14.9237      2.00000
     10     -14.0683      2.00000
     11     -13.1204      2.00000
     12     -12.2652      2.00000
     13     -12.0080      2.00000
     14     -11.3497      2.00000
     15     -11.0800      2.00000
     16     -10.7224      2.00000
     17     -10.2217      2.00000
     18     -10.1096      2.00000
     19      -9.9240      2.00000
     20      -9.5360      2.00000
     21      -9.3926      2.00000
     22      -9.1514      2.00000
     23      -9.0805      2.00000
     24      -8.8040      2.00000
     25      -8.5421      2.00000
     26      -6.7878      2.00000
     27      -6.1678      2.00000
     28      -5.8822      2.00000
     29      -5.4733      2.00000
     30      -1.0429      0.00000
     31      -0.8820      0.00000
     32      -0.5132      0.00000
     33      -0.3364      0.00000
     34      -0.1963      0.00000
     35      -0.0727      0.00000
     36       0.0421      0.00000
     37       0.1235      0.00000
     38       0.1300      0.00000
     39       0.1323      0.00000
     40       0.1775      0.00000
     41       0.1942      0.00000

 k-point     2 :      -0.2500    0.2500    0.2500
  band No.  band energies     occupation 
      1     -26.1240      2.00000
      2     -25.5859      2.00000
      3     -23.3942      2.00000
      4     -22.7285      2.00000
      5     -19.5578      2.00000
      6     -18.2190      2.00000
      7     -17.5566      2.00000
      8     -15.7721      2.00000
      9     -14.9237      2.00000
     10     -14.0683      2.00000
     11     -13.1204      2.00000
     12     -12.2652      2.00000
     13     -12.0080      2.00000
     14     -11.3497      2.00000
     15     -11.0800      2.00000
     16     -10.7224      2.00000
     17     -10.2217      2.00000
     18     -10.1096      2.00000
     19      -9.9240      2.00000
     20      -9.5360      2.00000
     21      -9.3926      2.00000
     22      -9.1514      2.00000
     23      -9.0805      2.00000
     24      -8.8040      2.00000
     25      -8.5421      2.00000
     26      -6.7878      2.00000
     27      -6.1678      2.00000
     28      -5.8822      2.00000
     29      -5.4733      2.00000
     30      -1.0429      0.00000
     31      -0.8820      0.00000
     32      -0.5132      0.00000
     33      -0.3364      0.00000
     34      -0.1964      0.00000
     35      -0.0729      0.00000
     36       0.0457      0.00000
     37       0.1099      0.00000
     38       0.1255      0.00000
     39       0.1418      0.00000
     40       0.1840      0.00000
     41       0.1978      0.00000

 k-point     3 :       0.2500   -0.2500    0.2500
  band No.  band energies     occupation 
      1     -26.1240      2.00000
      2     -25.5859      2.00000
      3     -23.3942      2.00000
      4     -22.7285      2.00000
      5     -19.5578      2.00000
      6     -18.2190      2.00000
      7     -17.5566      2.00000
      8     -15.7721      2.00000
      9     -14.9237      2.00000
     10     -14.0683      2.00000
     11     -13.1204      2.00000
     12     -12.2652      2.00000
     13     -12.0080      2.00000
     14     -11.3497      2.00000
     15     -11.0800      2.00000
     16     -10.7224      2.00000
     17     -10.2217      2.00000
     18     -10.1096      2.00000
     19      -9.9240      2.00000
     20      -9.5360      2.00000
     21      -9.3926      2.00000
     22      -9.1514      2.00000
     23      -9.0805      2.00000
     24      -8.8040      2.00000
     25      -8.5421      2.00000
     26      -6.7878      2.00000
     27      -6.1678      2.00000
     28      -5.8822      2.00000
     29      -5.4733      2.00000
     30      -1.0429      0.00000
     31      -0.8820      0.00000
     32      -0.5132      0.00000
     33      -0.3364      0.00000
     34      -0.1964      0.00000
     35      -0.0726      0.00000
     36       0.0445      0.00000
     37       0.1073      0.00000
     38       0.1337      0.00000
     39       0.1394      0.00000
     40       0.1849      0.00000
     41       0.1944      0.00000

 k-point     4 :      -0.2500   -0.2500    0.2500
  band No.  band energies     occupation 
      1     -26.1240      2.00000
      2     -25.5859      2.00000
      3     -23.3942      2.00000
      4     -22.7285      2.00000
      5     -19.5578      2.00000
      6     -18.2190      2.00000
      7     -17.5566      2.00000
      8     -15.7721      2.00000
      9     -14.9237      2.00000
     10     -14.0683      2.00000
     11     -13.1204      2.00000
     12     -12.2652      2.00000
     13     -12.0080      2.00000
     14     -11.3497      2.00000
     15     -11.0800      2.00000
     16     -10.7224      2.00000
     17     -10.2217      2.00000
     18     -10.1096      2.00000
     19      -9.9240      2.00000
     20      -9.5360      2.00000
     21      -9.3926      2.00000
     22      -9.1514      2.00000
     23      -9.0805      2.00000
     24      -8.8040      2.00000
     25      -8.5421      2.00000
     26      -6.7878      2.00000
     27      -6.1678      2.00000
     28      -5.8822      2.00000
     29      -5.4733      2.00000
     30      -1.0429      0.00000
     31      -0.8820      0.00000
     32      -0.5132      0.00000
     33      -0.3364      0.00000
     34      -0.1964      0.00000
     35      -0.0735      0.00000
     36       0.0500      0.00000
     37       0.1091      0.00000
     38       0.1269      0.00000
     39       0.1359      0.00000
     40       0.1746      0.00000
     41       0.1990      0.00000


--------------------------------------------------------------------------------------------------------


 soft charge-density along one line, spin component           1
         0         1         2         3         4         5         6         7         8         9
 total charge-density along one line
 
 pseudopotential strength for first ion, spin component:           1
 -2.352  -4.055   0.002   0.000  -0.001
 -4.055  -6.905   0.005   0.001  -0.002
  0.002   0.005  -0.332   0.000  -0.002
  0.000   0.001   0.000  -0.336   0.000
 -0.001  -0.002  -0.002   0.000  -0.336
 total augmentation occupancy for first ion, spin component:           1
  3.524  -0.634  -0.406  -0.042   0.166
 -0.634   0.129   0.075   0.008  -0.030
 -0.406   0.075   0.048   0.004  -0.017
 -0.042   0.008   0.004   0.009  -0.002
  0.166  -0.030  -0.017  -0.002   0.015


------------------------ aborting loop because EDIFF is reached ----------------------------------------


    CHARGE:  cpu time   16.2825: real time   16.2685
    FORLOC:  cpu time    5.8511: real time    5.8459
    FORNL :  cpu time   59.6339: real time   59.5845
    STRESS:  cpu time  182.0293: real time  181.8772
    FORCOR:  cpu time   24.0133: real time   23.9933
    FORHAR:  cpu time   10.6174: real time   10.6086
    MIXING:  cpu time    0.7699: real time    0.7690
    OFIELD:  cpu time    0.0000: real time    0.0000

  FORCE on cell =-STRESS in cart. coord.  units (eV):
  Direction    XX          YY          ZZ          XY          YZ          ZX
  --------------------------------------------------------------------------------------
  Alpha Z     0.51957     0.51957     0.51957
  Ewald    2987.87621  2321.37973   747.90209   184.53584   611.91046  -636.34835
  Hartree  3533.45928  2907.76153  1619.72790   158.57424   369.09267  -513.93723
  E(xc)    -230.03251  -230.17117  -230.86656     0.04238     1.26189    -0.60707
  Local   -7130.47102 -5840.35272 -2970.52225  -343.64841  -945.90377  1139.50774
  n-local  -132.52366  -132.71635  -134.76451     0.26499    -1.98685     1.30446
  augment    14.75051    14.90093    13.71717    -0.05420    -0.79965     0.08121
  Kinetic   952.44563   955.06359   950.64435     0.12254   -33.39932     9.90097
  Fock        0.00000     0.00000     0.00000     0.00000     0.00000     0.00000
  -------------------------------------------------------------------------------------
  Total      -3.97598    -3.61487    -3.64225    -0.16262     0.17543    -0.09826
  in kB      -0.23593    -0.21451    -0.21613    -0.00965     0.01041    -0.00583
  external pressure =       -0.22 kB  Pullay stress =        0.00 kB


 VOLUME and BASIS-vectors are now :
 -----------------------------------------------------------------------------
  energy-cutoff  :      400.00
  volume of cell :    27000.00
      direct lattice vectors                 reciprocal lattice vectors
    30.000000000  0.000000000  0.000000000     0.033333333  0.000000000  0.000000000
     0.000000000 30.000000000  0.000000000     0.000000000  0.033333333  0.000000000
     0.000000000  0.000000000 30.000000000     0.000000000  0.000000000  0.033333333

  length of vectors
    30.000000000 30.000000000 30.000000000     0.033333333  0.033333333  0.033333333


 FORCES acting on ions
    electron-ion (+dipol)            ewald-force                    non-local-force                 convergence-correction
 -----------------------------------------------------------------------------------------------
   0.599E+02 -.618E+02 0.679E-01   -.620E+02 0.670E+02 0.456E+00   0.214E+01 -.519E+01 -.536E+00   -.489E-05 0.785E-05 -.485E-04
   0.496E+02 0.184E+02 0.649E+02   -.507E+02 -.202E+02 -.700E+02   0.106E+01 0.184E+01 0.506E+01   -.865E-05 0.607E-05 -.427E-04
   0.661E+02 0.379E+02 -.400E+02   -.688E+02 -.411E+02 0.435E+02   0.266E+01 0.320E+01 -.355E+01   -.242E-04 -.353E-05 -.303E-04
   0.534E+02 0.668E+02 0.754E+02   -.564E+02 -.712E+02 -.805E+02   0.300E+01 0.442E+01 0.513E+01   -.245E-04 -.920E-05 -.551E-04
   -.159E+02 0.185E+02 -.953E+02   0.161E+02 -.178E+02 0.101E+03   -.217E+00 -.747E+00 -.561E+01   0.431E-04 -.119E-04 -.366E-04
   -.691E+02 0.532E+02 -.199E+02   0.745E+02 -.543E+02 0.212E+02   -.534E+01 0.105E+01 -.132E+01   0.295E-04 -.650E-05 0.411E-06
   -.157E+01 0.537E+02 0.707E+02   0.134E+01 -.545E+02 -.761E+02   0.239E+00 0.864E+00 0.545E+01   0.107E-04 -.203E-04 -.501E-04
   0.282E+02 0.788E+02 -.315E+02   -.314E+02 -.824E+02 0.341E+02   0.321E+01 0.359E+01 -.265E+01   0.297E-04 -.925E-05 -.106E-04
   0.317E+02 -.533E+02 -.627E+02   -.373E+02 0.547E+02 0.673E+02   0.555E+01 -.138E+01 -.455E+01   0.355E-04 0.178E-04 -.682E-04
   -.858E+02 -.135E+02 -.111E+02   0.911E+02 0.120E+02 0.120E+02   -.530E+01 0.158E+01 -.896E+00   0.759E-05 -.214E-04 -.139E-04
   -.152E+02 -.475E+02 0.705E+02   0.148E+02 0.486E+02 -.759E+02   0.399E+00 -.107E+01 0.547E+01   0.855E-05 -.168E-04 0.280E-04
   -.834E+01 -.812E+02 -.306E+02   0.731E+01 0.859E+02 0.335E+02   0.101E+01 -.474E+01 -.291E+01   0.365E-06 -.187E-04 -.291E-04
   0.223E+03 -.955E+01 0.328E+02   -.224E+03 0.104E+02 -.330E+02   0.780E+00 -.814E+00 0.185E+00   -.270E-04 0.108E-03 -.191E-03
   0.180E+03 -.176E+00 0.185E+02   -.185E+03 0.692E+00 -.194E+02   0.490E+01 -.488E+00 0.926E+00   -.646E-04 0.584E-04 -.164E-03
   -.432E+02 0.111E+03 -.829E+02   0.486E+02 -.112E+03 0.846E+02   -.541E+01 0.119E+01 -.174E+01   0.139E-03 0.384E-04 -.767E-05
   -.477E+02 0.233E+03 0.534E+01   0.483E+02 -.234E+03 -.575E+01   -.642E+00 0.949E+00 0.404E+00   0.125E-03 -.105E-03 0.113E-03
   -.355E+02 0.185E+02 -.857E+01   0.324E+02 -.216E+02 0.994E+01   0.306E+01 0.305E+01 -.134E+01   0.410E-04 0.176E-03 0.274E-04
   -.138E+03 -.197E+03 0.261E+02   0.141E+03 0.201E+03 -.281E+02   -.362E+01 -.344E+01 0.194E+01   -.260E-04 -.572E-04 -.973E-04
   0.122E+03 0.136E+03 0.119E+03   -.119E+03 -.136E+03 -.120E+03   -.255E+01 -.665E+00 0.107E+01   0.172E-04 0.153E-03 -.158E-03
   -.510E+02 -.186E+03 -.972E+02   0.513E+02 0.188E+03 0.101E+03   -.315E+00 -.153E+01 -.348E+01   0.940E-04 0.886E-04 -.965E-04
   0.595E+02 -.263E+03 -.310E+03   -.436E+02 0.297E+03 0.346E+03   -.159E+02 -.338E+02 -.357E+02   0.616E-04 -.667E-04 0.100E-04
   -.316E+03 0.105E+03 0.308E+03   0.351E+03 -.120E+03 -.346E+03   -.344E+02 0.148E+02 0.378E+02   -.476E-04 0.140E-03 -.619E-04
 -----------------------------------------------------------------------------------------------
   0.457E+02 0.173E+02 0.814E+00   -.114E-12 -.711E-13 0.568E-13   -.457E+02 -.173E+02 -.809E+00   0.416E-03 0.448E-03 -.983E-03
 
 
 POSITION                                       TOTAL-FORCE (eV/Angst)
 -----------------------------------------------------------------------------------
     11.34272     16.21058     15.21609         0.014565      0.007302     -0.012925
     11.56787     14.81922     14.10484         0.010396      0.003168      0.003661
     11.23157     14.54863     15.83289         0.001319      0.019171     -0.004037
     13.59471     13.69520     14.15371         0.011207      0.017381     -0.000431
     15.43470     14.16939     16.34279        -0.001271     -0.007486      0.001850
     16.80205     12.39010     15.17113        -0.004600     -0.012331      0.006331
     15.68191     12.42363     13.80986         0.007432      0.004440      0.000055
     15.10634     11.88453     15.42530        -0.007470     -0.005177     -0.012696
     15.58052     16.46616     15.80732        -0.003999     -0.005195      0.003776
     18.31554     16.99940     14.93708        -0.010821      0.010071     -0.013311
     17.18526     17.52496     13.67334        -0.021461      0.001227     -0.001680
     17.06440     18.21933     15.32164        -0.012816      0.000961     -0.004661
     11.75809     15.20094     15.11831         0.004824      0.005238     -0.005914
     13.22882     15.22632     15.47793         0.021875      0.027909      0.037726
     15.39505     14.02421     15.24979         0.006544     -0.006560      0.004841
     15.75974     12.59141     14.89416        -0.002792     -0.004165     -0.001718
     16.40706     15.02447     14.62463        -0.011276      0.008565      0.028026
     17.27558     17.30820     14.74901        -0.013162      0.002539     -0.002958
     14.01137     14.30241     14.85507         0.003383     -0.007112     -0.007181
     16.35529     16.26605     15.16502         0.003758     -0.010782     -0.004199
     13.68964     16.01443     16.32400        -0.015648     -0.039780     -0.012335
     17.21190     14.69061     13.74611         0.020014     -0.009385     -0.002217
 -----------------------------------------------------------------------------------
    total drift:                               -0.009909     -0.002484      0.004908


--------------------------------------------------------------------------------------------------------



  FREE ENERGIE OF THE ION-ELECTRON SYSTEM (eV)
  ---------------------------------------------------
  free  energy   TOTEN  =      -129.52550222 eV

  energy  without entropy=     -129.52550222  energy(sigma->0) =     -129.52550222
 
 d Force = 0.2752681E-04[ 0.260E-04, 0.291E-04]  d Energy = 0.2798739E-04-0.461E-06
 d Force = 0.6162694E-01[ 0.617E-01, 0.615E-01]  d Ewald  = 0.6162694E-01-0.494E-08


--------------------------------------------------------------------------------------------------------


    POTLOK:  cpu time   21.4507: real time   21.4330


--------------------------------------------------------------------------------------------------------


 NEB: the previous image is higher in energy: F
 NEB: the next image is higher in energy    : T
 NEB: only next energy greater

 NEB: Tangent
 ----------------------------------------------
     -0.04750     -0.06372     -0.18389
     -0.03826     -0.24785      0.12523
      0.03783      0.11178      0.14682
     -0.06197     -0.11869      0.23395
      0.05566     -0.16180     -0.00783
     -0.02864     -0.02412     -0.26387
     -0.06182      0.18772     -0.20898
     -0.03694     -0.01561     -0.28906
     -0.13133      0.04900     -0.12951
     -0.02549      0.00452      0.29881
      0.19431     -0.00981      0.13518
     -0.05136      0.02300      0.07690
     -0.01411     -0.04417      0.00826
     -0.00369      0.06428     -0.06770
      0.01383     -0.01800     -0.01443
     -0.02777      0.03325     -0.20205
      0.05878      0.00645      0.10067
      0.02357      0.00973      0.13575
     -0.00216      0.00424      0.03973
     -0.04069      0.02840      0.00614
     -0.01914      0.20679     -0.22876
      0.20681     -0.02552      0.28851

 NEB: forces: par spring, perp REAL, dneb     0.218508    0.099266    0.000000
 NEB: distance to prev, next image, angle between     1.329812    1.286110  118.124596
 NEB: projections on to tangent (spring, REAL)    -0.218508   -0.005862

 stress matrix after NEB project (eV)
     -3.97598     -0.16262     -0.09826
     -0.16262     -3.61487      0.17543
     -0.09826      0.17543     -3.64225
  FORCES: max atom, RMS     0.092017    0.051168
  FORCE total and by dimension    0.239999    0.083754
  Stress total and by dimension    6.501957    3.975978
 OPT: skip step - force has converged


--------------------------------------------------------------------------------------------------------


  
 reached required accuracy - stopping structural energy minimisation
     LOOP+:  cpu time 1820.9782: real time 1819.6105
    4ORBIT:  cpu time    0.0000: real time    0.0000

 total amount of memory used by VASP on root node  4333711. kBytes
========================================================================

   base      :      30000. kBytes
   nonlr-proj:       2406. kBytes
   fftplans  :     924480. kBytes
   grid      :    2089440. kBytes
   one-center:         67. kBytes
   wavefun   :    1287318. kBytes
 
  
  
 General timing and accounting informations for this job:
 ========================================================
  
                  Total CPU time used (sec):   226707.609
                            User time (sec):   225244.853
                          System time (sec):     1462.761
                         Elapsed time (sec):   226579.101
  
                   Maximum memory used (kb):     5901160.
                   Average memory used (kb):           0.
  
                          Minor page faults:    321579110
                          Major page faults:            8
                 Voluntary context switches:        13440
