unknown system                          
           1
    30.000000    0.000000    0.000000
     0.000000   30.000000    0.000000
     0.000000    0.000000   30.000000
   H    C    N    O 
  12   6   2   2
Direct configuration=     1
   0.37567644  0.53893045  0.50862348
   0.38309036  0.49292602  0.47106415
   0.37575002  0.48320929  0.52920145
   0.44990785  0.44983320  0.47997107
   0.51541476  0.47266568  0.54392317
   0.56146197  0.41649481  0.50214090
   0.52186417  0.41512246  0.45887811
   0.50640890  0.39628839  0.51373203
   0.51725987  0.55008464  0.52322971
   0.61216697  0.56511479  0.50331252
   0.57771899  0.58385022  0.45879817
   0.57044471  0.60616127  0.51387804
   0.39068012  0.50588550  0.50444459
   0.44028947  0.50911216  0.51286939
   0.51239880  0.46799539  0.50753189
   0.52592085  0.42089239  0.49486024
   0.54562099  0.50157243  0.48600706
   0.57820589  0.57606478  0.49460010
   0.46550797  0.47537999  0.49592065
   0.54579504  0.54207049  0.50590332
   0.45672120  0.54012021  0.53496418
   0.57169897  0.49023116  0.45614635
Direct configuration=     2
   0.37569212  0.53891512  0.50862637
   0.38307217  0.49293267  0.47100072
   0.37573733  0.48322367  0.52915115
   0.44991395  0.44993289  0.47987542
   0.51537894  0.47268263  0.54392250
   0.56145330  0.41642608  0.50219150
   0.52185062  0.41511928  0.45892055
   0.50641827  0.39626607  0.51377843
   0.51734519  0.55005043  0.52332172
   0.61213811  0.56508461  0.50324555
   0.57773105  0.58388493  0.45872123
   0.57046248  0.60616668  0.51381103
   0.39066991  0.50589348  0.50450555
   0.44028690  0.50911276  0.51293531
   0.51240952  0.46800734  0.50754161
   0.52593460  0.42085185  0.49492164
   0.54566814  0.50160915  0.48598725
   0.57817804  0.57611054  0.49457421
   0.46551710  0.47536382  0.49586318
   0.54571271  0.54208456  0.50588645
   0.45670604  0.54004577  0.53507793
   0.57172785  0.49024138  0.45614130
Direct configuration=     3
   0.37570525  0.53890961  0.50863392
   0.38305754  0.49295852  0.47096095
   0.37570501  0.48322555  0.52910628
   0.44990176  0.45003688  0.47971870
   0.51532827  0.47270730  0.54392719
   0.56145056  0.41632340  0.50226420
   0.52183319  0.41511472  0.45898709
   0.50642527  0.39622813  0.51384580
   0.51742106  0.55001092  0.52348141
   0.61208905  0.56504412  0.50315282
   0.57774459  0.58393045  0.45863429
   0.57048066  0.60620062  0.51373259
   0.39066753  0.50589112  0.50451042
   0.44027984  0.50905239  0.51298962
   0.51242709  0.46800538  0.50753725
   0.52594590  0.42081421  0.49499252
   0.54569259  0.50163591  0.48598801
   0.57813331  0.57613679  0.49450841
   0.46554353  0.47542177  0.49583076
   0.54568435  0.54212789  0.50581681
   0.45669988  0.53996714  0.53525681
   0.57178813  0.49026292  0.45612478
Direct configuration=     4
   0.37571563  0.53891692  0.50864563
   0.38304944  0.49300458  0.47095651
   0.37565013  0.48321073  0.52907444
   0.44988525  0.45015877  0.47951774
   0.51526602  0.47273768  0.54393424
   0.56145579  0.41619046  0.50235574
   0.52181429  0.41510645  0.45907521
   0.50642695  0.39617710  0.51392972
   0.51749047  0.54996574  0.52369924
   0.61201859  0.56499779  0.50303772
   0.57775590  0.58398321  0.45854806
   0.57049611  0.60626557  0.51364832
   0.39067568  0.50587481  0.50444374
   0.44028274  0.50898108  0.51305454
   0.51245494  0.46799421  0.50752764
   0.52594820  0.42078504  0.49506403
   0.54571039  0.50163456  0.48598817
   0.57808765  0.57614462  0.49439344
   0.46557828  0.47551688  0.49580653
   0.54569563  0.54219804  0.50570477
   0.45668586  0.53985735  0.53547420
   0.57186041  0.49030416  0.45612104
Direct configuration=     5
   0.37573024  0.53892606  0.50865595
   0.38304368  0.49305737  0.47095909
   0.37558112  0.48319124  0.52904194
   0.44989152  0.45033469  0.47930072
   0.51519706  0.47277108  0.54393728
   0.56146113  0.41603318  0.50246074
   0.52179547  0.41509081  0.45917489
   0.50642300  0.39612212  0.51402137
   0.51759483  0.54990770  0.52394226
   0.61193342  0.56494921  0.50290182
   0.57776167  0.58404313  0.45845451
   0.57051155  0.60634294  0.51354835
   0.39068789  0.50585544  0.50436011
   0.44029886  0.50895856  0.51315176
   0.51249235  0.46798853  0.50753177
   0.52594267  0.42075502  0.49514051
   0.54574913  0.50161688  0.48597209
   0.57805879  0.57616937  0.49424901
   0.46560992  0.47557013  0.49574836
   0.54566387  0.54226772  0.50559188
   0.45664749  0.53969250  0.53571066
   0.57192875  0.49036209  0.45614561
Direct configuration=     6
   0.37575427  0.53892268  0.50865684
   0.38303515  0.49309724  0.47092824
   0.37551349  0.48318571  0.52898969
   0.44992254  0.45055596  0.47907684
   0.51512829  0.47280465  0.54393698
   0.56145286  0.41586058  0.50256959
   0.52177739  0.41506565  0.45927054
   0.50641288  0.39607430  0.51410792
   0.51775582  0.54983662  0.52418295
   0.61184957  0.56490022  0.50275200
   0.57775879  0.58411086  0.45833808
   0.57053152  0.60641013  0.51342231
   0.39069712  0.50585258  0.50433998
   0.44030537  0.50894572  0.51323769
   0.51252777  0.46798925  0.50754978
   0.52594048  0.42071167  0.49523211
   0.54579438  0.50161880  0.48597201
   0.57803717  0.57623630  0.49411637
   0.46564711  0.47558447  0.49566506
   0.54555168  0.54231127  0.50549731
   0.45660102  0.53951315  0.53598204
   0.57200973  0.49041795  0.45617642
Direct configuration=     7
   0.37578884  0.53890787  0.50864372
   0.38302611  0.49312229  0.47085639
   0.37544744  0.48320149  0.52890865
   0.44996339  0.45079865  0.47879871
   0.51505779  0.47284098  0.54394292
   0.56142126  0.41565973  0.50268686
   0.52175988  0.41502553  0.45936417
   0.50638850  0.39603574  0.51418922
   0.51796293  0.54975510  0.52445721
   0.61177187  0.56484727  0.50257857
   0.57774003  0.58419269  0.45817996
   0.57055724  0.60647428  0.51325793
   0.39070029  0.50586773  0.50439743
   0.44029805  0.50888020  0.51327823
   0.51255442  0.46798094  0.50756741
   0.52595115  0.42064791  0.49534862
   0.54582764  0.50164696  0.48601184
   0.57798250  0.57632757  0.49400854
   0.46571368  0.47564362  0.49560151
   0.54541236  0.54235137  0.50538109
   0.45655551  0.53932857  0.53633138
   0.57212358  0.49046933  0.45621043
Direct configuration=     8
   0.37582541  0.53891201  0.50862291
   0.38303253  0.49315473  0.47080973
   0.37537120  0.48321915  0.52882962
   0.45002111  0.45104532  0.47844717
   0.51498851  0.47288058  0.54396578
   0.56137828  0.41543586  0.50281533
   0.52174881  0.41496446  0.45946734
   0.50633384  0.39600588  0.51426829
   0.51815753  0.54967716  0.52480019
   0.61169568  0.56479872  0.50238218
   0.57769318  0.58427999  0.45800893
   0.57057525  0.60656908  0.51307950
   0.39070571  0.50586219  0.50440883
   0.44032659  0.50883464  0.51335790
   0.51258462  0.46795837  0.50758410
   0.52595556  0.42057866  0.49545387
   0.54587758  0.50164495  0.48603571
   0.57787779  0.57636546  0.49388255
   0.46579502  0.47576371  0.49556067
   0.54535257  0.54245460  0.50520773
   0.45647814  0.53907061  0.53670839
   0.57222958  0.49052971  0.45630414
Direct configuration=     9
   0.37586367  0.53894594  0.50859703
   0.38306693  0.49320540  0.47082110
   0.37527657  0.48321921  0.52877957
   0.45014675  0.45135625  0.47805121
   0.51492794  0.47292082  0.54400374
   0.56134066  0.41519979  0.50295978
   0.52174959  0.41487331  0.45958107
   0.50623367  0.39598589  0.51434820
   0.51838071  0.54959930  0.52516972
   0.61160073  0.56477291  0.50215601
   0.57760588  0.58435935  0.45786347
   0.57057584  0.60669488  0.51289552
   0.39073476  0.50583538  0.50429484
   0.44033988  0.50880694  0.51350515
   0.51264309  0.46794933  0.50762157
   0.52591923  0.42051655  0.49552711
   0.54592717  0.50163779  0.48607646
   0.57780186  0.57637284  0.49367288
   0.46585183  0.47582523  0.49545735
   0.54526363  0.54258703  0.50505208
   0.45639510  0.53878031  0.53714813
   0.57235904  0.49056140  0.45641891
Direct configuration=    10
   0.37592365  0.53896178  0.50854962
   0.38312005  0.49323143  0.47077052
   0.37519581  0.48323961  0.52870951
   0.45031716  0.45167707  0.47756321
   0.51487882  0.47295789  0.54405647
   0.56127727  0.41496931  0.50311371
   0.52175885  0.41474428  0.45966949
   0.50607952  0.39598950  0.51442431
   0.51865851  0.54953629  0.52552699
   0.61150053  0.56477122  0.50189368
   0.57746700  0.58442523  0.45769831
   0.57057576  0.60677634  0.51266001
   0.39076448  0.50586882  0.50425950
   0.44030126  0.50865801  0.51361977
   0.51269330  0.46795359  0.50765364
   0.52588058  0.42045941  0.49562406
   0.54596978  0.50167658  0.48616808
   0.57776509  0.57647790  0.49347015
   0.46593659  0.47593444  0.49537642
   0.54507268  0.54263851  0.50493831
   0.45634780  0.53851827  0.53771975
   0.57252008  0.49054043  0.45653542
Direct configuration=    11
   0.37600096  0.53898818  0.50847678
   0.38319548  0.49322957  0.47066457
   0.37514374  0.48330697  0.52860419
   0.45055286  0.45201664  0.47700876
   0.51484080  0.47297739  0.54410427
   0.56117303  0.41476001  0.50326794
   0.52177645  0.41459332  0.45973325
   0.50586958  0.39602961  0.51447878
   0.51886904  0.54951325  0.52592367
   0.61142538  0.56478988  0.50161097
   0.57727268  0.58447571  0.45748235
   0.57056506  0.60684531  0.51240550
   0.39077439  0.50589121  0.50430840
   0.44038873  0.50870096  0.51392637
   0.51273074  0.46797286  0.50769302
   0.52584213  0.42040209  0.49572964
   0.54607683  0.50162299  0.48618794
   0.57764462  0.57656221  0.49333085
   0.46602671  0.47604091  0.49530484
   0.54502529  0.54274464  0.50477579
   0.45619159  0.53801790  0.53820704
   0.57261849  0.49052430  0.45677606
Direct configuration=    12
   0.37599832  0.53899654  0.50847197
   0.38320694  0.49323102  0.47068058
   0.37514210  0.48330645  0.52861354
   0.45056402  0.45202709  0.47700903
   0.51484524  0.47297175  0.54410241
   0.56117095  0.41476315  0.50326758
   0.52177791  0.41459584  0.45973447
   0.50585970  0.39603625  0.51447062
   0.51888129  0.54951363  0.52590450
   0.61142669  0.56479868  0.50161026
   0.57726444  0.58447174  0.45748756
   0.57055786  0.60685731  0.51241586
   0.39078646  0.50588609  0.50428506
   0.44034186  0.50861572  0.51386147
   0.51272959  0.46796862  0.50769036
   0.52583301  0.42040366  0.49571861
   0.54604542  0.50163697  0.48623248
   0.57764618  0.57654739  0.49331587
   0.46602691  0.47604465  0.49531108
   0.54501286  0.54274532  0.50479843
   0.45623204  0.53808390  0.53827251
   0.57265479  0.49050415  0.45674676
Direct configuration=    13
   0.37599709  0.53901092  0.50846129
   0.38322985  0.49323199  0.47070627
   0.37513972  0.48330772  0.52862899
   0.45059025  0.45204820  0.47700290
   0.51485307  0.47295989  0.54409805
   0.56116411  0.41477112  0.50326800
   0.52178102  0.41459946  0.45973520
   0.50583737  0.39605127  0.51445484
   0.51889514  0.54951857  0.52587300
   0.61142997  0.56481669  0.50160618
   0.57724461  0.58446211  0.45749381
   0.57054393  0.60687621  0.51243221
   0.39080469  0.50587714  0.50424551
   0.44029115  0.50852216  0.51379635
   0.51272733  0.46796234  0.50768817
   0.52581572  0.42040721  0.49569868
   0.54601476  0.50165046  0.48628587
   0.57764489  0.57652332  0.49329262
   0.46602695  0.47604580  0.49531980
   0.54500068  0.54274357  0.50483527
   0.45627575  0.53814400  0.53835385
   0.57269651  0.49047577  0.45672412
Direct configuration=    14
   0.37599844  0.53901078  0.50846011
   0.38323129  0.49323117  0.47070519
   0.37514003  0.48330883  0.52862863
   0.45059295  0.45204932  0.47699994
   0.51485329  0.47295891  0.54409772
   0.56116257  0.41477220  0.50326838
   0.52178125  0.41459925  0.45973446
   0.50583499  0.39605282  0.51445397
   0.51889238  0.54952033  0.52587331
   0.61143038  0.56481804  0.50160499
   0.57724213  0.58446095  0.45749260
   0.57054327  0.60687535  0.51243154
   0.39080375  0.50587745  0.50424642
   0.44030013  0.50853756  0.51381039
   0.51272718  0.46796262  0.50768878
   0.52581517  0.42040749  0.49569844
   0.54602184  0.50164710  0.48627927
   0.57764337  0.57652420  0.49329395
   0.46602720  0.47604444  0.49531965
   0.54500438  0.54274213  0.50483461
   0.45626815  0.53812764  0.53834557
   0.57269042  0.49047732  0.45673306
Direct configuration=    15
   0.37600109  0.53901060  0.50845782
   0.38323436  0.49322973  0.47070304
   0.37514056  0.48331095  0.52862786
   0.45059835  0.45205175  0.47699361
   0.51485368  0.47295710  0.54409711
   0.56115952  0.41477439  0.50326936
   0.52178172  0.41459867  0.45973320
   0.50583023  0.39605595  0.51445248
   0.51888735  0.54952373  0.52587365
   0.61143119  0.56482079  0.50160240
   0.57723707  0.58445862  0.45749010
   0.57054194  0.60687373  0.51243013
   0.39080216  0.50587815  0.50424818
   0.44031622  0.50856499  0.51383591
   0.51272685  0.46796313  0.50768985
   0.52581401  0.42040803  0.49569814
   0.54603447  0.50164092  0.48626769
   0.57764048  0.57652588  0.49329626
   0.46602781  0.47604215  0.49531952
   0.54501135  0.54273931  0.50483354
   0.45625456  0.53809754  0.53833187
   0.57267960  0.49047978  0.45674925
Direct configuration=    16
   0.37600500  0.53901058  0.50845444
   0.38323951  0.49322790  0.47069983
   0.37514121  0.48331403  0.52862663
   0.45060665  0.45205586  0.47698305
   0.51485430  0.47295456  0.54409631
   0.56115490  0.41477780  0.50327129
   0.52178248  0.41459752  0.45973161
   0.50582283  0.39606087  0.51445061
   0.51888083  0.54952863  0.52587334
   0.61143239  0.56482520  0.50159795
   0.57722905  0.58445500  0.45748618
   0.57053983  0.60687152  0.51242790
   0.39080048  0.50587944  0.50425078
   0.44033598  0.50859787  0.51386805
   0.51272626  0.46796374  0.50769104
   0.52581211  0.42040888  0.49569801
   0.54604983  0.50163294  0.48625440
   0.57763639  0.57652823  0.49329894
   0.46602901  0.47603985  0.49531992
   0.54502093  0.54273513  0.50483269
   0.45623796  0.53805848  0.53831829
   0.57266664  0.49048186  0.45676975
Direct configuration=    17
   0.37601011  0.53901115  0.50844991
   0.38324762  0.49322609  0.47069564
   0.37514176  0.48331799  0.52862488
   0.45061829  0.45206250  0.47696669
   0.51485520  0.47295142  0.54409545
   0.56114860  0.41478263  0.50327478
   0.52178361  0.41459544  0.45973004
   0.50581226  0.39606800  0.51444872
   0.51887416  0.54953483  0.52587114
   0.61143395  0.56483180  0.50159082
   0.57721728  0.58444985  0.45748062
   0.57053667  0.60686902  0.51242468
   0.39079981  0.50588165  0.50425412
   0.44035338  0.50862456  0.51389833
   0.51272532  0.46796423  0.50769180
   0.52580918  0.42041012  0.49569836
   0.54606303  0.50162481  0.48624499
   0.57763144  0.57653097  0.49330089
   0.46603123  0.47603908  0.49532166
   0.54503192  0.54272965  0.50483329
   0.45622365  0.53801883  0.53831461
   0.57265611  0.49048126  0.45678958
Direct configuration=    18
   0.37601029  0.53901130  0.50844975
   0.38324816  0.49322616  0.47069552
   0.37514171  0.48331811  0.52862480
   0.45061886  0.45206299  0.47696566
   0.51485524  0.47295136  0.54409545
   0.56114835  0.41478286  0.50327509
   0.52178367  0.41459526  0.45973010
   0.50581173  0.39606837  0.51444877
   0.51887429  0.54953499  0.52587073
   0.61143400  0.56483219  0.50159032
   0.57721664  0.58444960  0.45748035
   0.57053649  0.60686902  0.51242452
   0.39080007  0.50588180  0.50425418
   0.44035243  0.50862248  0.51389724
   0.51272526  0.46796420  0.50769170
   0.52580899  0.42041019  0.49569847
   0.54606227  0.50162494  0.48624607
   0.57763135  0.57653099  0.49330063
   0.46603140  0.47603942  0.49532190
   0.54503198  0.54272948  0.50483365
   0.45622451  0.53801955  0.53831709
   0.57265690  0.49048064  0.45678901
Direct configuration=    19
   0.37601066  0.53901161  0.50844948
   0.38324925  0.49322636  0.47069524
   0.37514158  0.48331830  0.52862459
   0.45062002  0.45206405  0.47696343
   0.51485528  0.47295130  0.54409546
   0.56114786  0.41478334  0.50327581
   0.52178381  0.41459482  0.45973029
   0.50581069  0.39606911  0.51444901
   0.51887458  0.54953530  0.52586994
   0.61143409  0.56483294  0.50158923
   0.57721532  0.58444909  0.45747975
   0.57053614  0.60686902  0.51242413
   0.39080059  0.50588211  0.50425430
   0.44035058  0.50861841  0.51389519
   0.51272514  0.46796416  0.50769152
   0.52580861  0.42041031  0.49569875
   0.54606078  0.50162517  0.48624813
   0.57763116  0.57653104  0.49330005
   0.46603174  0.47604009  0.49532233
   0.54503211  0.54272916  0.50483433
   0.45622620  0.53802081  0.53832217
   0.57265838  0.49047942  0.45678785
Direct configuration=    20
   0.37601123  0.53901208  0.50844910
   0.38325091  0.49322671  0.47069480
   0.37514136  0.48331857  0.52862425
   0.45062180  0.45206567  0.47695999
   0.51485533  0.47295124  0.54409548
   0.56114712  0.41478408  0.50327695
   0.52178401  0.41459412  0.45973063
   0.50580914  0.39607025  0.51444943
   0.51887501  0.54953578  0.52586878
   0.61143423  0.56483406  0.50158753
   0.57721332  0.58444831  0.45747881
   0.57053562  0.60686901  0.51242352
   0.39080137  0.50588257  0.50425448
   0.44034795  0.50861254  0.51389238
   0.51272496  0.46796413  0.50769126
   0.52580805  0.42041049  0.49569920
   0.54605865  0.50162546  0.48625109
   0.57763087  0.57653109  0.49329915
   0.46603224  0.47604106  0.49532293
   0.54503230  0.54272867  0.50483531
   0.45622862  0.53802240  0.53832972
   0.57266049  0.49047761  0.45678620
Direct configuration=    21
   0.37601202  0.53901273  0.50844861
   0.38325314  0.49322721  0.47069420
   0.37514106  0.48331893  0.52862377
   0.45062422  0.45206790  0.47695532
   0.51485537  0.47295118  0.54409549
   0.56114613  0.41478507  0.50327850
   0.52178430  0.41459316  0.45973112
   0.50580705  0.39607177  0.51445004
   0.51887555  0.54953643  0.52586726
   0.61143442  0.56483555  0.50158522
   0.57721062  0.58444726  0.45747753
   0.57053492  0.60686899  0.51242267
   0.39080238  0.50588317  0.50425469
   0.44034472  0.50860520  0.51388909
   0.51272472  0.46796409  0.50769095
   0.52580729  0.42041072  0.49569983
   0.54605603  0.50162575  0.48625478
   0.57763046  0.57653116  0.49329791
   0.46603288  0.47604228  0.49532366
   0.54503261  0.54272802  0.50483658
   0.45623161  0.53802405  0.53833955
   0.57266309  0.49047526  0.45678422
Direct configuration=    22
   0.37601304  0.53901355  0.50844800
   0.38325597  0.49322786  0.47069345
   0.37514066  0.48331938  0.52862314
   0.45062734  0.45207077  0.47694937
   0.51485539  0.47295112  0.54409550
   0.56114487  0.41478634  0.50328049
   0.52178466  0.41459192  0.45973176
   0.50580441  0.39607370  0.51445085
   0.51887615  0.54953727  0.52586540
   0.61143466  0.56483744  0.50158226
   0.57720719  0.58444593  0.45747587
   0.57053404  0.60686897  0.51242156
   0.39080362  0.50588389  0.50425493
   0.44034110  0.50859683  0.51388569
   0.51272443  0.46796409  0.50769062
   0.52580632  0.42041101  0.49570061
   0.54605311  0.50162597  0.48625901
   0.57762994  0.57653124  0.49329634
   0.46603364  0.47604365  0.49532446
   0.54503305  0.54272720  0.50483815
   0.45623498  0.53802533  0.53835141
   0.57266600  0.49047244  0.45678210
Direct configuration=    23
   0.37601434  0.53901455  0.50844727
   0.38325940  0.49322867  0.47069254
   0.37514016  0.48331993  0.52862235
   0.45063122  0.45207433  0.47694208
   0.51485540  0.47295105  0.54409550
   0.56114334  0.41478788  0.50328294
   0.52178512  0.41459040  0.45973256
   0.50580118  0.39607606  0.51445186
   0.51887678  0.54953832  0.52586322
   0.61143495  0.56483975  0.50157861
   0.57720297  0.58444429  0.45747383
   0.57053296  0.60686893  0.51242019
   0.39080507  0.50588470  0.50425516
   0.44033740  0.50858798  0.51388268
   0.51272409  0.46796412  0.50769032
   0.52580513  0.42041136  0.49570155
   0.54605013  0.50162602  0.48626352
   0.57762927  0.57653132  0.49329441
   0.46603449  0.47604510  0.49532526
   0.54503369  0.54272622  0.50484000
   0.45623847  0.53802571  0.53836499
   0.57266901  0.49046921  0.45678012
Direct configuration=    24
   0.37601610  0.53901587  0.50844632
   0.38326392  0.49322975  0.47069136
   0.37513948  0.48332067  0.52862129
   0.45063643  0.45207913  0.47693247
   0.51485538  0.47295095  0.54409548
   0.56114131  0.41478992  0.50328620
   0.52178572  0.41458839  0.45973365
   0.50579690  0.39607918  0.51445321
   0.51887741  0.54953975  0.52586049
   0.61143534  0.56484278  0.50157377
   0.57719739  0.58444212  0.45747112
   0.57053152  0.60686886  0.51241836
   0.39080687  0.50588568  0.50425536
   0.44033364  0.50857840  0.51388046
   0.51272368  0.46796422  0.50769006
   0.52580355  0.42041179  0.49570273
   0.54604713  0.50162574  0.48626846
   0.57762834  0.57653140  0.49329188
   0.46603550  0.47604666  0.49532605
   0.54503469  0.54272493  0.50484235
   0.45624211  0.53802443  0.53838149
   0.57267216  0.49046528  0.45677843
Direct configuration=    25
   0.37601846  0.53901757  0.50844510
   0.38326971  0.49323116  0.47068988
   0.37513860  0.48332163  0.52861990
   0.45064329  0.45208543  0.47692008
   0.51485531  0.47295081  0.54409544
   0.56113869  0.41479254  0.50329043
   0.52178650  0.41458581  0.45973507
   0.50579136  0.39608318  0.51445497
   0.51887796  0.54954165  0.52585717
   0.61143583  0.56484668  0.50156751
   0.57719016  0.58443932  0.45746759
   0.57052967  0.60686876  0.51241597
   0.39080900  0.50588681  0.50425549
   0.44033033  0.50856893  0.51388002
   0.51272319  0.46796443  0.50768993
   0.52580149  0.42041233  0.49570419
   0.54604455  0.50162492  0.48627342
   0.57762709  0.57653148  0.49328865
   0.46603664  0.47604818  0.49532671
   0.54503620  0.54272328  0.50484523
   0.45624547  0.53802030  0.53840074
   0.57267506  0.49046068  0.45677754
Direct configuration=    26
   0.37602153  0.53901970  0.50844356
   0.38327694  0.49323295  0.47068806
   0.37513747  0.48332289  0.52861810
   0.45065205  0.45209350  0.47690450
   0.51485517  0.47295062  0.54409537
   0.56113537  0.41479581  0.50329577
   0.52178749  0.41458258  0.45973687
   0.50578438  0.39608821  0.51445720
   0.51887829  0.54954413  0.52585328
   0.61143645  0.56485157  0.50155959
   0.57718104  0.58443578  0.45746314
   0.57052732  0.60686862  0.51241291
   0.39081146  0.50588806  0.50425546
   0.44032812  0.50856068  0.51388250
   0.51272263  0.46796479  0.50769001
   0.52579888  0.42041298  0.49570593
   0.54604296  0.50162332  0.48627787
   0.57762546  0.57653152  0.49328461
   0.46603789  0.47604951  0.49532712
   0.54503840  0.54272122  0.50484865
   0.45624801  0.53801199  0.53842241
   0.57267726  0.49045549  0.45677807
Direct configuration=    27
   0.37602545  0.53902231  0.50844165
   0.38328584  0.49323516  0.47068589
   0.37513605  0.48332448  0.52861584
   0.45066303  0.45210364  0.47688527
   0.51485492  0.47295037  0.54409527
   0.56113127  0.41479980  0.50330240
   0.52178872  0.41457862  0.45973913
   0.50577572  0.39609440  0.51445997
   0.51887827  0.54954727  0.52584882
   0.61143722  0.56485760  0.50154976
   0.57716972  0.58443141  0.45745760
   0.57052439  0.60686840  0.51240906
   0.39081421  0.50588942  0.50425523
   0.44032767  0.50855472  0.51388911
   0.51272201  0.46796533  0.50769040
   0.52579564  0.42041374  0.49570799
   0.54604290  0.50162069  0.48628130
   0.57762335  0.57653149  0.49327968
   0.46603922  0.47605050  0.49532714
   0.54504149  0.54271868  0.50485263
   0.45624919  0.53799809  0.53844623
   0.57267832  0.49044978  0.45678063
Direct configuration=    28
   0.37603040  0.53902546  0.50843932
   0.38329669  0.49323790  0.47068329
   0.37513426  0.48332649  0.52861300
   0.45067658  0.45211626  0.47686166
   0.51485453  0.47295004  0.54409518
   0.56112623  0.41480459  0.50331057
   0.52179022  0.41457382  0.45974193
   0.50576511  0.39610193  0.51446337
   0.51887773  0.54955120  0.52584378
   0.61143818  0.56486496  0.50153766
   0.57715579  0.58442606  0.45745077
   0.57052080  0.60686810  0.51240425
   0.39081728  0.50589090  0.50425476
   0.44032952  0.50855183  0.51390090
   0.51272130  0.46796608  0.50769118
   0.52579167  0.42041461  0.49571042
   0.54604483  0.50161684  0.48628338
   0.57762063  0.57653141  0.49327373
   0.46604064  0.47605113  0.49532669
   0.54504571  0.54271554  0.50485715
   0.45624857  0.53797720  0.53847227
   0.57267789  0.49044354  0.45678574
Direct configuration=    29
   0.37603662  0.53902926  0.50843645
   0.38330994  0.49324129  0.47068019
   0.37513201  0.48332903  0.52860941
   0.45069321  0.45213193  0.47683260
   0.51485393  0.47294965  0.54409513
   0.56112005  0.41481030  0.50332068
   0.52179205  0.41456798  0.45974541
   0.50575212  0.39611108  0.51446759
   0.51887658  0.54955604  0.52583808
   0.61143937  0.56487395  0.50152273
   0.57713867  0.58441955  0.45744232
   0.57051640  0.60686769  0.51239819
   0.39082075  0.50589259  0.50425402
   0.44033396  0.50855205  0.51391859
   0.51272049  0.46796703  0.50769235
   0.52578683  0.42041560  0.49571338
   0.54604893  0.50161166  0.48628410
   0.57761713  0.57653128  0.49326653
   0.46604226  0.47605154  0.49532580
   0.54505137  0.54271164  0.50486225
   0.45624600  0.53794819  0.53850148
   0.57267590  0.49043657  0.45679371
Direct configuration=    30
   0.37604444  0.53903386  0.50843292
   0.38332629  0.49324557  0.47067641
   0.37512913  0.48333222  0.52860482
   0.45071351  0.45215148  0.47679641
   0.51485306  0.47294925  0.54409525
   0.56111245  0.41481704  0.50333332
   0.52179428  0.41456084  0.45974980
   0.50573616  0.39612221  0.51447293
   0.51887480  0.54956192  0.52583157
   0.61144086  0.56488498  0.50150411
   0.57711748  0.58441162  0.45743178
   0.57051099  0.60686711  0.51239042
   0.39082489  0.50589469  0.50425311
   0.44034050  0.50855388  0.51394191
   0.51271952  0.46796814  0.50769388
   0.52578095  0.42041671  0.49571716
   0.54605479  0.50160525  0.48628424
   0.57761259  0.57653116  0.49325773
   0.46604430  0.47605224  0.49532464
   0.54505873  0.54270676  0.50486802
   0.45624203  0.53791060  0.53853632
   0.57267284  0.49042838  0.45680425
Direct configuration=    31
   0.37605420  0.53903943  0.50842862
   0.38334657  0.49325108  0.47067174
   0.37512536  0.48333622  0.52859885
   0.45073809  0.45217596  0.47675100
   0.51485175  0.47294896  0.54409570
   0.56110314  0.41482490  0.50334930
   0.52179697  0.41455202  0.45975544
   0.50571660  0.39613572  0.51447983
   0.51887263  0.54956887  0.52582393
   0.61144273  0.56489853  0.50148074
   0.57709120  0.58440200  0.45741851
   0.57050437  0.60686635  0.51238034
   0.39083012  0.50589754  0.50425224
   0.44034766  0.50855345  0.51396893
   0.51271825  0.46796935  0.50769552
   0.52577377  0.42041789  0.49572224
   0.54606098  0.50159805  0.48628568
   0.57760678  0.57653111  0.49324682
   0.46604717  0.47605418  0.49532357
   0.54506790  0.54270066  0.50487466
   0.45623822  0.53786556  0.53858135
   0.57267013  0.49041807  0.45681600
Direct configuration=    32
   0.37606616  0.53904617  0.50842359
   0.38337150  0.49325829  0.47066593
   0.37512040  0.48334104  0.52859111
   0.45076735  0.45220651  0.47669436
   0.51484983  0.47294907  0.54409668
   0.56109192  0.41483382  0.50336948
   0.52180019  0.41454111  0.45976279
   0.50569304  0.39615187  0.51448892
   0.51887062  0.54957673  0.52581488
   0.61144502  0.56491493  0.50145151
   0.57705898  0.58439055  0.45740193
   0.57049641  0.60686543  0.51236730
   0.39083701  0.50590155  0.50425170
   0.44035281  0.50854533  0.51399629
   0.51271663  0.46797058  0.50769708
   0.52576521  0.42041908  0.49572923
   0.54606546  0.50159072  0.48629082
   0.57759955  0.57653121  0.49323315
   0.46605134  0.47605837  0.49532295
   0.54507858  0.54269330  0.50488240
   0.45623690  0.53781557  0.53864218
   0.57266968  0.49040468  0.45682677
Direct configuration=    33
   0.37608073  0.53905438  0.50841800
   0.38340192  0.49326792  0.47065868
   0.37511380  0.48334668  0.52858099
   0.45080189  0.45224479  0.47662408
   0.51484693  0.47295003  0.54409834
   0.56107865  0.41484369  0.50339501
   0.52180402  0.41452754  0.45977259
   0.50566510  0.39617091  0.51450118
   0.51886948  0.54958519  0.52580418
   0.61144772  0.56493451  0.50141497
   0.57701981  0.58437712  0.45738121
   0.57048699  0.60686441  0.51235042
   0.39084610  0.50590702  0.50425168
   0.44035394  0.50852542  0.51402209
   0.51271465  0.46797185  0.50769852
   0.52575521  0.42042018  0.49573893
   0.54606688  0.50158351  0.48630117
   0.57759082  0.57653148  0.49321574
   0.46605716  0.47606537  0.49532258
   0.54509026  0.54268480  0.50489156
   0.45623980  0.53776169  0.53872418
   0.57267274  0.49038745  0.45683493
Direct configuration=    34
   0.37609867  0.53906457  0.50841222
   0.38343901  0.49328117  0.47064956
   0.37510480  0.48335304  0.52856755
   0.45084306  0.45229372  0.47653647
   0.51484239  0.47295259  0.54410083
   0.56106308  0.41485437  0.50342781
   0.52180863  0.41451035  0.45978613
   0.50563222  0.39619322  0.51451826
   0.51886991  0.54959394  0.52579186
   0.61145079  0.56495775  0.50136873
   0.57697211  0.58436146  0.45735508
   0.57047592  0.60686341  0.51232832
   0.39085787  0.50591407  0.50425213
   0.44035125  0.50849381  0.51404871
   0.51271244  0.46797346  0.50770036
   0.52574358  0.42042106  0.49575253
   0.54606596  0.50157570  0.48631592
   0.57758032  0.57653183  0.49319292
   0.46606475  0.47607473  0.49532120
   0.54510246  0.54267543  0.50490243
   0.45624665  0.53770004  0.53883133
   0.57267873  0.49036620  0.45684071
Direct configuration=    35
   0.37612113  0.53907746  0.50840688
   0.38348415  0.49329972  0.47063814
   0.37509234  0.48336009  0.52854946
   0.45089279  0.45235737  0.47642692
   0.51483515  0.47295774  0.54410418
   0.56104493  0.41486558  0.50347038
   0.52181426  0.41448833  0.45980526
   0.50559376  0.39621925  0.51454240
   0.51887216  0.54960262  0.52577862
   0.61145408  0.56498513  0.50130967