  22  22   0   0
  0.1227273E+04  0.3000000E-08  0.3000000E-08  0.3000000E-08  0.0000000E+00
  1.000000000000000E-004
  CAR 
 unknown system                          
      2.19778500    -28.13904119  301     -4.47592175      1.00000000
    -28.139  0.0000E+00  0.0000E+00
    -28.038  0.0000E+00  0.0000E+00
    -27.937  0.0000E+00  0.0000E+00
    -27.836  0.0000E+00  0.0000E+00
    -27.735  0.0000E+00  0.0000E+00
    -27.633  0.0000E+00  0.0000E+00
    -27.532  0.0000E+00  0.0000E+00
    -27.431  0.0000E+00  0.0000E+00
    -27.330  0.0000E+00  0.0000E+00
    -27.229  0.4245E-15  0.4293E-16
    -27.128  0.8911E-13  0.9054E-14
    -27.027  0.1131E-10  0.1153E-11
    -26.926  0.8698E-09  0.8911E-10
    -26.824  0.4053E-07  0.4188E-08
    -26.723  0.1147E-05  0.1201E-06
    -26.622  0.1972E-04  0.2115E-05
    -26.521  0.2067E-03  0.2302E-04
    -26.420  0.1321E-02  0.1566E-03
    -26.319  0.5163E-02  0.6787E-03
    -26.218  0.1234E-01  0.1927E-02
    -26.117  0.1807E-01  0.3755E-02
    -26.015  0.1629E-01  0.5401E-02
    -25.914  0.9535E-02  0.6366E-02
    -25.813  0.6044E-02  0.6977E-02
    -25.712  0.9620E-02  0.7950E-02
    -25.611  0.1636E-01  0.9604E-02
    -25.510  0.1804E-01  0.1143E-01
    -25.409  0.1224E-01  0.1267E-01
    -25.308  0.5087E-02  0.1318E-01
    -25.206  0.1294E-02  0.1331E-01
    -25.105  0.2010E-03  0.1333E-01
    -25.004  0.1906E-04  0.1333E-01
    -24.903  0.1101E-05  0.1333E-01
    -24.802  0.3865E-07  0.1333E-01
    -24.701  0.8239E-09  0.1333E-01
    -24.600  0.1065E-10  0.1333E-01
    -24.499  0.8351E-13  0.1333E-01
    -24.397  0.4787E-13  0.1333E-01
    -24.296  0.6412E-11  0.1333E-01
    -24.195  0.5242E-09  0.1333E-01
    -24.094  0.2597E-07  0.1333E-01
    -23.993  0.7812E-06  0.1333E-01
    -23.892  0.1428E-04  0.1333E-01
    -23.791  0.1591E-03  0.1335E-01
    -23.690  0.1080E-02  0.1346E-01
    -23.589  0.4484E-02  0.1391E-01
    -23.487  0.1139E-01  0.1507E-01
    -23.386  0.1770E-01  0.1686E-01
    -23.285  0.1687E-01  0.1856E-01
    -23.184  0.9883E-02  0.1956E-01
    -23.083  0.3900E-02  0.1995E-01
    -22.982  0.2880E-02  0.2025E-01
    -22.881  0.7203E-02  0.2097E-01
    -22.780  0.1462E-01  0.2245E-01
    -22.678  0.1841E-01  0.2431E-01
    -22.577  0.1421E-01  0.2575E-01
    -22.476  0.6722E-02  0.2643E-01
    -22.375  0.1946E-02  0.2663E-01
    -22.274  0.3443E-03  0.2666E-01
    -22.173  0.3718E-04  0.2667E-01
    -22.072  0.2447E-05  0.2667E-01
    -21.971  0.9797E-07  0.2667E-01
    -21.869  0.2382E-08  0.2667E-01
    -21.768  0.3513E-10  0.2667E-01
    -21.667  0.3137E-12  0.2667E-01
    -21.566  0.1691E-14  0.2667E-01
    -21.465  0.7319E-17  0.2667E-01
    -21.364  0.0000E+00  0.2667E-01
    -21.263  0.0000E+00  0.2667E-01
    -21.162  0.0000E+00  0.2667E-01
    -21.060  0.0000E+00  0.2667E-01
    -20.959  0.0000E+00  0.2667E-01
    -20.858  0.0000E+00  0.2667E-01
    -20.757  0.0000E+00  0.2667E-01
    -20.656  0.3111E-15  0.2667E-01
    -20.555  0.6708E-13  0.2667E-01
    -20.454  0.8759E-11  0.2667E-01
    -20.353  0.6924E-09  0.2667E-01
    -20.251  0.3317E-07  0.2667E-01
    -20.150  0.9648E-06  0.2667E-01
    -20.049  0.1706E-04  0.2667E-01
    -19.948  0.1838E-03  0.2669E-01
    -19.847  0.1208E-02  0.2681E-01
    -19.746  0.4848E-02  0.2730E-01
    -19.645  0.1191E-01  0.2850E-01
    -19.544  0.1792E-01  0.3032E-01
    -19.442  0.1651E-01  0.3199E-01
    -19.341  0.9325E-02  0.3293E-01
    -19.240  0.3223E-02  0.3325E-01
    -19.139  0.6815E-03  0.3332E-01
    -19.038  0.8799E-04  0.3333E-01
    -18.937  0.6939E-05  0.3333E-01
    -18.836  0.7157E-06  0.3333E-01
    -18.735  0.7843E-05  0.3333E-01
    -18.634  0.9734E-04  0.3334E-01
    -18.532  0.7376E-03  0.3342E-01
    -18.431  0.3414E-02  0.3376E-01
    -18.330  0.9663E-02  0.3474E-01
    -18.229  0.1675E-01  0.3643E-01
    -18.128  0.1778E-01  0.3823E-01
    -18.027  0.1159E-01  0.3941E-01
    -17.926  0.4882E-02  0.3990E-01
    -17.825  0.2767E-02  0.4018E-01
    -17.723  0.6167E-02  0.4080E-01
    -17.622  0.1341E-01  0.4216E-01
    -17.521  0.1833E-01  0.4401E-01
    -17.420  0.1536E-01  0.4556E-01
    -17.319  0.7883E-02  0.4636E-01
    -17.218  0.2477E-02  0.4661E-01
    -17.117  0.4758E-03  0.4666E-01
    -17.016  0.5581E-04  0.4667E-01
    -16.914  0.3991E-05  0.4667E-01
    -16.813  0.1736E-06  0.4667E-01
    -16.712  0.4590E-08  0.4667E-01
    -16.611  0.1594E-09  0.4667E-01
    -16.510  0.5263E-08  0.4667E-01
    -16.409  0.1956E-06  0.4667E-01
    -16.308  0.4417E-05  0.4667E-01
    -16.207  0.6071E-04  0.4667E-01
    -16.105  0.5086E-03  0.4672E-01
    -16.004  0.2602E-02  0.4699E-01
    -15.903  0.8138E-02  0.4781E-01
    -15.802  0.1558E-01  0.4939E-01
    -15.701  0.1828E-01  0.5123E-01
    -15.600  0.1313E-01  0.5256E-01
    -15.499  0.5781E-02  0.5315E-01
    -15.398  0.1580E-02  0.5331E-01
    -15.296  0.4943E-03  0.5336E-01
    -15.195  0.1498E-02  0.5351E-01
    -15.094  0.5565E-02  0.5407E-01
    -14.993  0.1286E-01  0.5537E-01
    -14.892  0.1822E-01  0.5721E-01
    -14.791  0.1580E-01  0.5881E-01
    -14.690  0.8399E-02  0.5966E-01
    -14.589  0.2741E-02  0.5994E-01
    -14.487  0.6452E-03  0.6000E-01
    -14.386  0.8288E-03  0.6009E-01
    -14.285  0.3502E-02  0.6044E-01
    -14.184  0.9809E-02  0.6143E-01
    -14.083  0.1684E-01  0.6314E-01
    -13.982  0.1772E-01  0.6493E-01
    -13.881  0.1142E-01  0.6608E-01
    -13.780  0.4506E-02  0.6654E-01
    -13.678  0.1091E-02  0.6665E-01
    -13.577  0.2025E-03  0.6667E-01
    -13.476  0.3937E-03  0.6671E-01
    -13.375  0.2093E-02  0.6692E-01
    -13.274  0.7056E-02  0.6763E-01
    -13.173  0.1456E-01  0.6911E-01
    -13.072  0.1841E-01  0.7097E-01
    -12.971  0.1426E-01  0.7241E-01
    -12.870  0.6766E-02  0.7310E-01
    -12.768  0.1974E-02  0.7329E-01
    -12.667  0.4618E-03  0.7334E-01
    -12.566  0.8690E-03  0.7343E-01
    -12.465  0.3751E-02  0.7381E-01
    -12.364  0.1051E-01  0.7487E-01
    -12.263  0.1896E-01  0.7679E-01
    -12.162  0.2414E-01  0.7923E-01
    -12.061  0.2513E-01  0.8177E-01
    -11.959  0.2266E-01  0.8406E-01
    -11.858  0.1575E-01  0.8566E-01
    -11.757  0.7477E-02  0.8641E-01
    -11.656  0.2969E-02  0.8671E-01
    -11.555  0.4002E-02  0.8712E-01
    -11.454  0.1030E-01  0.8816E-01
    -11.353  0.1876E-01  0.9006E-01
    -11.252  0.2413E-01  0.9250E-01
    -11.150  0.2531E-01  0.9506E-01
    -11.049  0.2343E-01  0.9742E-01
    -10.948  0.1891E-01  0.9934E-01
    -10.847  0.1639E-01  0.1010E+00
    -10.746  0.1843E-01  0.1029E+00
    -10.645  0.1859E-01  0.1047E+00
    -10.544  0.1321E-01  0.1061E+00
    -10.443  0.9093E-02  0.1070E+00
    -10.341  0.1375E-01  0.1084E+00
    -10.240  0.2615E-01  0.1110E+00
    -10.139  0.3723E-01  0.1148E+00
    -10.038  0.3962E-01  0.1188E+00
     -9.937  0.3436E-01  0.1223E+00
     -9.836  0.2549E-01  0.1249E+00
     -9.735  0.1803E-01  0.1267E+00
     -9.634  0.1856E-01  0.1286E+00
     -9.532  0.2673E-01  0.1313E+00
     -9.431  0.3388E-01  0.1347E+00
     -9.330  0.3545E-01  0.1383E+00
     -9.229  0.3655E-01  0.1420E+00
     -9.128  0.4027E-01  0.1460E+00
     -9.027  0.4003E-01  0.1501E+00
     -8.926  0.3373E-01  0.1535E+00
     -8.825  0.2830E-01  0.1564E+00
     -8.723  0.2592E-01  0.1590E+00
     -8.622  0.2469E-01  0.1615E+00
     -8.521  0.2272E-01  0.1638E+00
     -8.420  0.1682E-01  0.1655E+00
     -8.319  0.8493E-02  0.1663E+00
     -8.218  0.2715E-02  0.1666E+00
     -8.117  0.5359E-03  0.1667E+00
     -8.016  0.6476E-04  0.1667E+00
     -7.914  0.4775E-05  0.1667E+00
     -7.813  0.2143E-06  0.1667E+00
     -7.712  0.5845E-08  0.1667E+00
     -7.611  0.2751E-09  0.1667E+00
     -7.510  0.1005E-07  0.1667E+00
     -7.409  0.3433E-06  0.1667E+00
     -7.308  0.7128E-05  0.1667E+00
     -7.207  0.9008E-04  0.1667E+00
     -7.106  0.6941E-03  0.1667E+00
     -7.004  0.3267E-02  0.1671E+00
     -6.903  0.9403E-02  0.1680E+00
     -6.802  0.1657E-01  0.1697E+00
     -6.701  0.1789E-01  0.1715E+00
     -6.600  0.1190E-01  0.1727E+00
     -6.499  0.5367E-02  0.1733E+00
     -6.398  0.4043E-02  0.1737E+00
     -6.297  0.8924E-02  0.1746E+00
     -6.195  0.1690E-01  0.1763E+00
     -6.094  0.2210E-01  0.1785E+00
     -5.993  0.2319E-01  0.1809E+00
     -5.892  0.2277E-01  0.1832E+00
     -5.791  0.1950E-01  0.1851E+00
     -5.690  0.1433E-01  0.1866E+00
     -5.589  0.1374E-01  0.1880E+00
     -5.488  0.1770E-01  0.1898E+00
     -5.386  0.1790E-01  0.1916E+00
     -5.285  0.1154E-01  0.1927E+00
     -5.184  0.4582E-02  0.1932E+00
     -5.083  0.1114E-02  0.1933E+00
     -4.982  0.1654E-03  0.1933E+00
     -4.881  0.1499E-04  0.1933E+00
     -4.780  0.8274E-06  0.1933E+00
     -4.679  0.2776E-07  0.1933E+00
     -4.577  0.5654E-09  0.1933E+00
     -4.476  0.6979E-11  0.1933E+00
     -4.375  0.5215E-13  0.1933E+00
     -4.274  0.2342E-15  0.1933E+00
     -4.173  0.0000E+00  0.1933E+00
     -4.072  0.0000E+00  0.1933E+00
     -3.971  0.0000E+00  0.1933E+00
     -3.870  0.0000E+00  0.1933E+00
     -3.768  0.0000E+00  0.1933E+00
     -3.667  0.0000E+00  0.1933E+00
     -3.566  0.0000E+00  0.1933E+00
     -3.465  0.0000E+00  0.1933E+00
     -3.364  0.0000E+00  0.1933E+00
     -3.263  0.0000E+00  0.1933E+00
     -3.162  0.0000E+00  0.1933E+00
     -3.061  0.0000E+00  0.1933E+00
     -2.959  0.0000E+00  0.1933E+00
     -2.858  0.0000E+00  0.1933E+00
     -2.757  0.0000E+00  0.1933E+00
     -2.656  0.0000E+00  0.1933E+00
     -2.555  0.0000E+00  0.1933E+00
     -2.454  0.0000E+00  0.1933E+00
     -2.353  0.0000E+00  0.1933E+00
     -2.252  0.0000E+00  0.1933E+00
     -2.150  0.3513E-15  0.1933E+00
     -2.049  0.7470E-13  0.1933E+00
     -1.948  0.9653E-11  0.1933E+00
     -1.847  0.7551E-09  0.1933E+00
     -1.746  0.3582E-07  0.1933E+00
     -1.645  0.1032E-05  0.1933E+00
     -1.544  0.1811E-04  0.1933E+00
     -1.443  0.1944E-03  0.1934E+00
     -1.342  0.1284E-02  0.1935E+00
     -1.240  0.5291E-02  0.1940E+00
     -1.139  0.1394E-01  0.1954E+00
     -1.038  0.2451E-01  0.1979E+00
     -0.937  0.3047E-01  0.2010E+00
     -0.836  0.2810E-01  0.2038E+00
     -0.735  0.2075E-01  0.2059E+00
     -0.634  0.1720E-01  0.2077E+00
     -0.533  0.2248E-01  0.2099E+00
     -0.431  0.3223E-01  0.2132E+00
     -0.330  0.4091E-01  0.2173E+00
     -0.229  0.4828E-01  0.2222E+00
     -0.128  0.5802E-01  0.2281E+00
     -0.027  0.7646E-01  0.2358E+00
      0.074  0.1022E+00  0.2462E+00
      0.175  0.1131E+00  0.2576E+00
      0.276  0.8921E-01  0.2666E+00
      0.378  0.4678E-01  0.2713E+00
      0.479  0.1582E-01  0.2729E+00
      0.580  0.3396E-02  0.2733E+00
      0.681  0.4585E-03  0.2733E+00
      0.782  0.3865E-04  0.2733E+00
      0.883  0.2022E-05  0.2733E+00
      0.984  0.6532E-07  0.2733E+00
      1.085  0.1297E-08  0.2733E+00
      1.187  0.1576E-10  0.2733E+00
      1.288  0.1168E-12  0.2733E+00
      1.389  0.5306E-15  0.2733E+00
      1.490  0.0000E+00  0.2733E+00
      1.591  0.0000E+00  0.2733E+00
      1.692  0.0000E+00  0.2733E+00
      1.793  0.0000E+00  0.2733E+00
      1.894  0.0000E+00  0.2733E+00
      1.996  0.0000E+00  0.2733E+00
      2.097  0.0000E+00  0.2733E+00
      2.198  0.0000E+00  0.2733E+00
