   22   22  300    1
  0.1227273E+04  0.3000000E-08  0.3000000E-08  0.3000000E-08  0.0000000E+00
  1.000000000000000E-004
  CAR 
 unknown system                          
     58      4     41
 
  0.2500000E+00  0.2500000E+00  0.2500000E+00  0.2500000E+00
    1      -26.139040   1.000000
    2      -25.589857   1.000000
    3      -23.396305   1.000000
    4      -22.731792   1.000000
    5      -19.560443   1.000000
    6      -18.216653   1.000000
    7      -17.557639   1.000000
    8      -15.769147   1.000000
    9      -14.921285   1.000000
   10      -14.072525   1.000000
   11      -13.124476   1.000000
   12      -12.257108   1.000000
   13      -12.005280   1.000000
   14      -11.343833   1.000000
   15      -11.093141   1.000000
   16      -10.723009   1.000000
   17      -10.225962   1.000000
   18      -10.111933   1.000000
   19       -9.925235   1.000000
   20       -9.542104   1.000000
   21       -9.391651   1.000000
   22       -9.150224   1.000000
   23       -9.077994   1.000000
   24       -8.815326   1.000000
   25       -8.551399   1.000000
   26       -6.786330   1.000000
   27       -6.169082   1.000000
   28       -5.891214   1.000000
   29       -5.475676   1.000000
   30       -1.057096   0.000000
   31       -0.880678   0.000000
   32       -0.501479   0.000000
   33       -0.329304   0.000000
   34       -0.197726   0.000000
   35       -0.074709   0.000000
   36        0.039525   0.000000
   37        0.122698   0.000000
   38        0.128528   0.000000
   39        0.130992   0.000000
   40        0.174242   0.000000
   41        0.192595   0.000000
 
 -0.2500000E+00  0.2500000E+00  0.2500000E+00  0.2500000E+00
    1      -26.139041   1.000000
    2      -25.589853   1.000000
    3      -23.396304   1.000000
    4      -22.731793   1.000000
    5      -19.560442   1.000000
    6      -18.216650   1.000000
    7      -17.557642   1.000000
    8      -15.769151   1.000000
    9      -14.921282   1.000000
   10      -14.072532   1.000000
   11      -13.124474   1.000000
   12      -12.257103   1.000000
   13      -12.005278   1.000000
   14      -11.343837   1.000000
   15      -11.093142   1.000000
   16      -10.723005   1.000000
   17      -10.225959   1.000000
   18      -10.111935   1.000000
   19       -9.925235   1.000000
   20       -9.542095   1.000000
   21       -9.391658   1.000000
   22       -9.150233   1.000000
   23       -9.077994   1.000000
   24       -8.815322   1.000000
   25       -8.551407   1.000000
   26       -6.786342   1.000000
   27       -6.169088   1.000000
   28       -5.891216   1.000000
   29       -5.475658   1.000000
   30       -1.057093   0.000000
   31       -0.880671   0.000000
   32       -0.501473   0.000000
   33       -0.329292   0.000000
   34       -0.197764   0.000000
   35       -0.075085   0.000000
   36        0.044179   0.000000
   37        0.108869   0.000000
   38        0.122268   0.000000
   39        0.140651   0.000000
   40        0.183329   0.000000
   41        0.193957   0.000000
 
  0.2500000E+00 -0.2500000E+00  0.2500000E+00  0.2500000E+00
    1      -26.139040   1.000000
    2      -25.589860   1.000000
    3      -23.396305   1.000000
    4      -22.731793   1.000000
    5      -19.560443   1.000000
    6      -18.216651   1.000000
    7      -17.557638   1.000000
    8      -15.769150   1.000000
    9      -14.921278   1.000000
   10      -14.072531   1.000000
   11      -13.124469   1.000000
   12      -12.257105   1.000000
   13      -12.005274   1.000000
   14      -11.343838   1.000000
   15      -11.093141   1.000000
   16      -10.723005   1.000000
   17      -10.225956   1.000000
   18      -10.111935   1.000000
   19       -9.925228   1.000000
   20       -9.542101   1.000000
   21       -9.391672   1.000000
   22       -9.150228   1.000000
   23       -9.077994   1.000000
   24       -8.815338   1.000000
   25       -8.551399   1.000000
   26       -6.786351   1.000000
   27       -6.169083   1.000000
   28       -5.891227   1.000000
   29       -5.475662   1.000000
   30       -1.057112   0.000000
   31       -0.880673   0.000000
   32       -0.501485   0.000000
   33       -0.329294   0.000000
   34       -0.197808   0.000000
   35       -0.074669   0.000000
   36        0.043113   0.000000
   37        0.104994   0.000000
   38        0.131465   0.000000
   39        0.137297   0.000000
   40        0.182315   0.000000
   41        0.193199   0.000000
 
 -0.2500000E+00 -0.2500000E+00  0.2500000E+00  0.2500000E+00
    1      -26.139041   1.000000
    2      -25.589857   1.000000
    3      -23.396306   1.000000
    4      -22.731790   1.000000
    5      -19.560441   1.000000
    6      -18.216652   1.000000
    7      -17.557638   1.000000
    8      -15.769149   1.000000
    9      -14.921284   1.000000
   10      -14.072518   1.000000
   11      -13.124476   1.000000
   12      -12.257107   1.000000
   13      -12.005281   1.000000
   14      -11.343830   1.000000
   15      -11.093145   1.000000
   16      -10.723007   1.000000
   17      -10.225963   1.000000
   18      -10.111939   1.000000
   19       -9.925240   1.000000
   20       -9.542093   1.000000
   21       -9.391658   1.000000
   22       -9.150220   1.000000
   23       -9.077993   1.000000
   24       -8.815330   1.000000
   25       -8.551392   1.000000
   26       -6.786339   1.000000
   27       -6.169085   1.000000
   28       -5.891205   1.000000
   29       -5.475677   1.000000
   30       -1.057107   0.000000
   31       -0.880678   0.000000
   32       -0.501472   0.000000
   33       -0.329294   0.000000
   34       -0.197748   0.000000
   35       -0.075419   0.000000
   36        0.047465   0.000000
   37        0.107046   0.000000
   38        0.126673   0.000000
   39        0.132630   0.000000
   40        0.174844   0.000000
   41        0.197785   0.000000
