       N       E                     dE             d eps       ncg     rms          rms(c)
DAV:   1     0.610355255532E+03    0.61036E+03   -0.79719E+03   392   0.485E+02
DAV:   2     0.280073302402E+03   -0.33028E+03   -0.31933E+03   564   0.923E+01
DAV:   3    -0.439649980141E+02   -0.32404E+03   -0.31458E+03   495   0.111E+02
DAV:   4    -0.136713134463E+03   -0.92748E+02   -0.92608E+02   396   0.828E+01
DAV:   5    -0.141925971504E+03   -0.52128E+01   -0.51926E+01   416   0.233E+01    0.196E+01
DAV:   6    -0.131801691196E+03    0.10124E+02   -0.23816E+01   399   0.201E+01    0.100E+01
DAV:   7    -0.130027360084E+03    0.17743E+01   -0.44914E+00   400   0.831E+00    0.516E+00
DAV:   8    -0.129544063655E+03    0.48330E+00   -0.88901E-01   448   0.405E+00    0.156E+00
DAV:   9    -0.129475889945E+03    0.68174E-01   -0.10263E-01   464   0.154E+00    0.564E-01
DAV:  10    -0.129465574396E+03    0.10316E-01   -0.25082E-02   432   0.812E-01    0.259E-01
DAV:  11    -0.129460697654E+03    0.48767E-02   -0.78764E-03   448   0.433E-01    0.159E-01
DAV:  12    -0.129461926250E+03   -0.12286E-02   -0.58770E-03   383   0.348E-01    0.976E-02
DAV:  13    -0.129468426303E+03   -0.65001E-02   -0.45236E-03   424   0.306E-01    0.571E-02
DAV:  14    -0.129474682657E+03   -0.62564E-02   -0.16066E-03   432   0.183E-01    0.378E-02
DAV:  15    -0.129482447266E+03   -0.77646E-02   -0.75906E-04   398   0.969E-02    0.227E-02
DAV:  16    -0.129488412941E+03   -0.59657E-02   -0.48179E-04   334   0.703E-02    0.134E-02
DAV:  17    -0.129491338644E+03   -0.29257E-02   -0.16248E-04   334   0.430E-02    0.788E-03
DAV:  18    -0.129492784123E+03   -0.14455E-02   -0.99666E-05   300   0.278E-02    0.534E-03
DAV:  19    -0.129493650965E+03   -0.86684E-03   -0.45401E-05   302   0.210E-02    0.324E-03
DAV:  20    -0.129494093232E+03   -0.44227E-03   -0.20930E-05   320   0.144E-02    0.237E-03
DAV:  21    -0.129494272293E+03   -0.17906E-03   -0.73611E-06   350   0.822E-03    0.118E-03
DAV:  22    -0.129494413415E+03   -0.14112E-03   -0.41274E-06   280   0.653E-03    0.109E-03
DAV:  23    -0.129494450006E+03   -0.36591E-04   -0.10202E-06   360   0.344E-03
   1 F= -.12949445E+03 E0= -.12949445E+03  d E =-.129494E+03
       N       E                     dE             d eps       ncg     rms          rms(c)
DAV:   1    -0.129495749801E+03   -0.13364E-02   -0.11727E-01   332   0.181E+00    0.101E-01
DAV:   2    -0.129496066666E+03   -0.31686E-03   -0.49888E-03   432   0.327E-01    0.616E-02
DAV:   3    -0.129496019628E+03    0.47039E-04   -0.10849E-04   350   0.605E-02    0.369E-02
DAV:   4    -0.129495996161E+03    0.23466E-04   -0.11565E-04   301   0.585E-02    0.677E-03
DAV:   5    -0.129495999888E+03   -0.37264E-05   -0.24509E-05   336   0.252E-02    0.426E-03
DAV:   6    -0.129496002831E+03   -0.29437E-05   -0.31413E-06   272   0.922E-03
   2 F= -.12949600E+03 E0= -.12949600E+03  d E =-.155283E-02
       N       E                     dE             d eps       ncg     rms          rms(c)
DAV:   1    -0.129496307899E+03   -0.30801E-03   -0.90365E-02   372   0.156E+00    0.710E-02
DAV:   2    -0.129496468051E+03   -0.16015E-03   -0.25727E-03   437   0.230E-01    0.435E-02
DAV:   3    -0.129496447994E+03    0.20056E-04   -0.59512E-05   304   0.430E-02    0.254E-02
DAV:   4    -0.129496449691E+03   -0.16964E-05   -0.54660E-05   266   0.394E-02    0.510E-03
DAV:   5    -0.129496453462E+03   -0.37717E-05   -0.11552E-05   272   0.180E-02    0.328E-03
DAV:   6    -0.129496456985E+03   -0.35225E-05   -0.19856E-06   266   0.722E-03
   3 F= -.12949646E+03 E0= -.12949646E+03  d E =-.454154E-03
       N       E                     dE             d eps       ncg     rms          rms(c)
DAV:   1    -0.129498376472E+03   -0.19230E-02   -0.11548E-01   334   0.182E+00    0.814E-02
DAV:   2    -0.129498634961E+03   -0.25849E-03   -0.35591E-03   427   0.272E-01    0.585E-02
DAV:   3    -0.129498613435E+03    0.21526E-04   -0.96333E-05   368   0.554E-02    0.370E-02
DAV:   4    -0.129498622306E+03   -0.88713E-05   -0.91125E-05   281   0.512E-02    0.864E-03
DAV:   5    -0.129498624426E+03   -0.21195E-05   -0.19244E-05   344   0.228E-02    0.403E-03
DAV:   6    -0.129498625474E+03   -0.10475E-05   -0.25087E-06   288   0.815E-03
   4 F= -.12949863E+03 E0= -.12949863E+03  d E =-.216849E-02
       N       E                     dE             d eps       ncg     rms          rms(c)
DAV:   1    -0.129499211818E+03   -0.58739E-03   -0.18207E-01   331   0.227E+00    0.104E-01
DAV:   2    -0.129499596642E+03   -0.38482E-03   -0.58553E-03   428   0.349E-01    0.732E-02
DAV:   3    -0.129499557932E+03    0.38710E-04   -0.16054E-04   400   0.712E-02    0.470E-02
DAV:   4    -0.129499558660E+03   -0.72807E-06   -0.13584E-04   265   0.634E-02    0.113E-02
DAV:   5    -0.129499560729E+03   -0.20694E-05   -0.30664E-05   336   0.291E-02    0.567E-03
DAV:   6    -0.129499562582E+03   -0.18524E-05   -0.38817E-06   270   0.103E-02
   5 F= -.12949956E+03 E0= -.12949956E+03  d E =-.937108E-03
       N       E                     dE             d eps       ncg     rms          rms(c)
DAV:   1    -0.129501067340E+03   -0.15066E-02   -0.22069E-01   329   0.241E+00    0.998E-02
DAV:   2    -0.129501435478E+03   -0.36814E-03   -0.49508E-03   364   0.309E-01    0.640E-02
DAV:   3    -0.129501424549E+03    0.10929E-04   -0.12088E-04   333   0.596E-02    0.374E-02
DAV:   4    -0.129501454532E+03   -0.29983E-04   -0.10830E-04   274   0.557E-02    0.805E-03
DAV:   5    -0.129501456615E+03   -0.20826E-05   -0.23322E-05   336   0.257E-02    0.462E-03
DAV:   6    -0.129501458026E+03   -0.14109E-05   -0.23618E-06   236   0.803E-03
   6 F= -.12950146E+03 E0= -.12950146E+03  d E =-.189544E-02
       N       E                     dE             d eps       ncg     rms          rms(c)
DAV:   1    -0.129502149442E+03   -0.69283E-03   -0.34469E-01   331   0.302E+00    0.125E-01
DAV:   2    -0.129502739358E+03   -0.58992E-03   -0.82416E-03   396   0.405E-01    0.814E-02
DAV:   3    -0.129502686293E+03    0.53065E-04   -0.15637E-04   311   0.715E-02    0.471E-02
DAV:   4    -0.129502702390E+03   -0.16098E-04   -0.16105E-04   289   0.681E-02    0.806E-03
DAV:   5    -0.129502707591E+03   -0.52008E-05   -0.32984E-05   336   0.298E-02    0.563E-03
DAV:   6    -0.129502710637E+03   -0.30457E-05   -0.37842E-06   286   0.101E-02
   7 F= -.12950271E+03 E0= -.12950271E+03  d E =-.125261E-02
       N       E                     dE             d eps       ncg     rms          rms(c)
DAV:   1    -0.129503813983E+03   -0.11064E-02   -0.40706E-01   328   0.330E+00    0.132E-01
DAV:   2    -0.129504457091E+03   -0.64311E-03   -0.87056E-03   396   0.422E-01    0.896E-02
DAV:   3    -0.129504419238E+03    0.37853E-04   -0.20424E-04   364   0.808E-02    0.516E-02
DAV:   4    -0.129504473946E+03   -0.54707E-04   -0.14719E-04   302   0.671E-02    0.972E-03
DAV:   5    -0.129504479139E+03   -0.51931E-05   -0.30242E-05   304   0.291E-02    0.568E-03
DAV:   6    -0.129504481314E+03   -0.21753E-05   -0.34824E-06   206   0.995E-03
   8 F= -.12950448E+03 E0= -.12950448E+03  d E =-.177068E-02
       N       E                     dE             d eps       ncg     rms          rms(c)
DAV:   1    -0.129504393902E+03    0.85237E-04   -0.55798E-01   360   0.386E+00    0.170E-01
DAV:   2    -0.129505364037E+03   -0.97013E-03   -0.14082E-02   420   0.532E-01    0.117E-01
DAV:   3    -0.129505282404E+03    0.81633E-04   -0.35030E-04   432   0.105E-01    0.711E-02
DAV:   4    -0.129505336943E+03   -0.54539E-04   -0.26385E-04   379   0.862E-02    0.144E-02
DAV:   5    -0.129505343663E+03   -0.67207E-05   -0.42831E-05   336   0.335E-02    0.740E-03
DAV:   6    -0.129505345971E+03   -0.23081E-05   -0.47880E-06   304   0.115E-02
   9 F= -.12950535E+03 E0= -.12950535E+03  d E =-.864657E-03
       N       E                     dE             d eps       ncg     rms          rms(c)
DAV:   1    -0.129505285500E+03    0.58163E-04   -0.81952E-01   328   0.466E+00    0.198E-01
DAV:   2    -0.129506751516E+03   -0.14660E-02   -0.19678E-02   396   0.626E-01    0.130E-01
DAV:   3    -0.129506635607E+03    0.11591E-03   -0.37118E-04   382   0.106E-01    0.746E-02
DAV:   4    -0.129506696207E+03   -0.60600E-04   -0.34078E-04   397   0.961E-02    0.130E-02
DAV:   5    -0.129506705031E+03   -0.88239E-05   -0.49335E-05   352   0.361E-02    0.851E-03
DAV:   6    -0.129506710089E+03   -0.50580E-05   -0.56695E-06   294   0.124E-02
  10 F= -.12950671E+03 E0= -.12950671E+03  d E =-.136412E-02
       N       E                     dE             d eps       ncg     rms          rms(c)
DAV:   1    -0.129507149831E+03   -0.44480E-03   -0.10605E-02   384   0.547E-01    0.341E-02
DAV:   2    -0.129507191157E+03   -0.41326E-04   -0.44791E-04   364   0.962E-02    0.201E-02
DAV:   3    -0.129507191955E+03   -0.79761E-06   -0.15370E-05   286   0.221E-02    0.112E-02
DAV:   4    -0.129507198088E+03   -0.61336E-05   -0.91352E-06   290   0.159E-02    0.261E-03
DAV:   5    -0.129507201381E+03   -0.32933E-05   -0.20043E-06   288   0.710E-03    0.117E-03
DAV:   6    -0.129507203590E+03   -0.22085E-05   -0.37802E-07   218   0.310E-03
  11 F= -.12950720E+03 E0= -.12950720E+03  d E =-.493501E-03
       N       E                     dE             d eps       ncg     rms          rms(c)
DAV:   1    -0.129507328335E+03   -0.12695E-03   -0.21598E-02   360   0.788E-01    0.471E-02
DAV:   2    -0.129507397676E+03   -0.69341E-04   -0.89701E-04   426   0.136E-01    0.296E-02
DAV:   3    -0.129507387470E+03    0.10206E-04   -0.27779E-05   320   0.298E-02    0.169E-02
DAV:   4    -0.129507384966E+03    0.25037E-05   -0.19106E-05   266   0.233E-02    0.423E-03
DAV:   5    -0.129507385069E+03   -0.10279E-06   -0.42400E-06   336   0.106E-02    0.189E-03
DAV:   6    -0.129507385385E+03   -0.31640E-06   -0.66118E-07   281   0.443E-03
  12 F= -.12950739E+03 E0= -.12950739E+03  d E =-.181795E-03
       N       E                     dE             d eps       ncg     rms          rms(c)
DAV:   1    -0.129507314704E+03    0.70365E-04   -0.13634E-02   368   0.623E-01    0.308E-02
DAV:   2    -0.129507340809E+03   -0.26104E-04   -0.37152E-04   395   0.921E-02    0.217E-02
DAV:   3    -0.129507336861E+03    0.39478E-05   -0.16244E-05   256   0.231E-02    0.128E-02
DAV:   4    -0.129507337093E+03   -0.23202E-06   -0.11259E-05   240   0.177E-02    0.310E-03
DAV:   5    -0.129507337399E+03   -0.30589E-06   -0.23751E-06   272   0.872E-03    0.132E-03
DAV:   6    -0.129507337965E+03   -0.56655E-06   -0.45112E-07   200   0.354E-03
  13 F= -.12950734E+03 E0= -.12950734E+03  d E =0.474199E-04
       N       E                     dE             d eps       ncg     rms          rms(c)
DAV:   1    -0.129507653264E+03   -0.31587E-03   -0.17225E-02   335   0.676E-01    0.305E-02
DAV:   2    -0.129507673473E+03   -0.20209E-04   -0.32308E-04   404   0.855E-02    0.194E-02
DAV:   3    -0.129507674540E+03   -0.10670E-05   -0.12189E-05   237   0.197E-02    0.100E-02
DAV:   4    -0.129507678619E+03   -0.40788E-05   -0.88190E-06   301   0.142E-02    0.229E-03
DAV:   5    -0.129507679179E+03   -0.55977E-06   -0.15607E-06   272   0.690E-03    0.109E-03
DAV:   6    -0.129507679653E+03   -0.47355E-06   -0.24335E-07   234   0.272E-03
  14 F= -.12950768E+03 E0= -.12950768E+03  d E =-.341687E-03
       N       E                     dE             d eps       ncg     rms          rms(c)
DAV:   1    -0.129508053960E+03   -0.37478E-03   -0.38423E-02   336   0.102E+00    0.519E-02
DAV:   2    -0.129508126922E+03   -0.72962E-04   -0.10858E-03   426   0.150E-01    0.311E-02
DAV:   3    -0.129508118975E+03    0.79474E-05   -0.22857E-05   319   0.274E-02    0.171E-02
DAV:   4    -0.129508121067E+03   -0.20927E-05   -0.24235E-05   298   0.254E-02    0.342E-03
DAV:   5    -0.129508121707E+03   -0.63998E-06   -0.41876E-06   320   0.110E-02    0.161E-03
DAV:   6    -0.129508122078E+03   -0.37069E-06   -0.52930E-07   238   0.383E-03
  15 F= -.12950812E+03 E0= -.12950812E+03  d E =-.442426E-03
       N       E                     dE             d eps       ncg     rms          rms(c)
DAV:   1    -0.129508197836E+03   -0.76128E-04   -0.43625E-02   335   0.108E+00    0.527E-02
DAV:   2    -0.129508268845E+03   -0.71009E-04   -0.10961E-03   428   0.152E-01    0.328E-02
DAV:   3    -0.129508260968E+03    0.78770E-05   -0.23929E-05   248   0.287E-02    0.182E-02
DAV:   4    -0.129508265388E+03   -0.44196E-05   -0.29586E-05   296   0.271E-02    0.384E-03
DAV:   5    -0.129508266640E+03   -0.12520E-05   -0.47590E-06   264   0.119E-02    0.191E-03
DAV:   6    -0.129508267611E+03   -0.97136E-06   -0.85131E-07   296   0.460E-03
  16 F= -.12950827E+03 E0= -.12950827E+03  d E =-.145533E-03
       N       E                     dE             d eps       ncg     rms          rms(c)
DAV:   1    -0.129508556413E+03   -0.28977E-03   -0.41589E-02   335   0.103E+00    0.477E-02
DAV:   2    -0.129508597466E+03   -0.41053E-04   -0.70542E-04   378   0.126E-01    0.316E-02
DAV:   3    -0.129508595828E+03    0.16381E-05   -0.21575E-05   243   0.281E-02    0.172E-02
DAV:   4    -0.129508604676E+03   -0.88487E-05   -0.24383E-05   292   0.234E-02    0.414E-03
DAV:   5    -0.129508605112E+03   -0.43577E-06   -0.47231E-06   256   0.117E-02    0.191E-03
DAV:   6    -0.129508605550E+03   -0.43837E-06   -0.72167E-07   200   0.427E-03
  17 F= -.12950861E+03 E0= -.12950861E+03  d E =-.337939E-03
       N       E                     dE             d eps       ncg     rms          rms(c)
DAV:   1    -0.129509038734E+03   -0.43362E-03   -0.65797E-02   333   0.133E+00    0.627E-02
DAV:   2    -0.129509141991E+03   -0.10326E-03   -0.15187E-03   387   0.182E-01    0.443E-02
DAV:   3    -0.129509128756E+03    0.13235E-04   -0.45775E-05   344   0.393E-02    0.261E-02
DAV:   4    -0.129509134858E+03   -0.61012E-05   -0.40955E-05   264   0.339E-02    0.472E-03
DAV:   5    -0.129509135345E+03   -0.48786E-06   -0.76943E-06   336   0.144E-02    0.259E-03
DAV:   6    -0.129509135520E+03   -0.17403E-06   -0.95270E-07   286   0.518E-03
  18 F= -.12950914E+03 E0= -.12950914E+03  d E =-.529969E-03
       N       E                     dE             d eps       ncg     rms          rms(c)
DAV:   1    -0.129509445080E+03   -0.30973E-03   -0.80102E-02   332   0.147E+00    0.616E-02
DAV:   2    -0.129509550265E+03   -0.10519E-03   -0.15455E-03   395   0.185E-01    0.435E-02
DAV:   3    -0.129509540323E+03    0.99429E-05   -0.43498E-05   309   0.390E-02    0.245E-02
DAV:   4    -0.129509551539E+03   -0.11216E-04   -0.37031E-05   252   0.326E-02    0.452E-03
DAV:   5    -0.129509552568E+03   -0.10290E-05   -0.71317E-06   272   0.142E-02    0.272E-03
DAV:   6    -0.129509553264E+03   -0.69613E-06   -0.10427E-06   258   0.540E-03
  19 F= -.12950955E+03 E0= -.12950955E+03  d E =-.417744E-03
       N       E                     dE             d eps       ncg     rms          rms(c)
DAV:   1    -0.129509629680E+03   -0.77113E-04   -0.68797E-04   382   0.138E-01    0.864E-03
DAV:   2    -0.129509632199E+03   -0.25183E-05   -0.25827E-05   235   0.242E-02    0.486E-03
DAV:   3    -0.129509632970E+03   -0.77141E-06   -0.32585E-06   268   0.848E-03    0.247E-03
DAV:   4    -0.129509633961E+03   -0.99080E-06   -0.41459E-07   235   0.364E-03    0.891E-04
DAV:   5    -0.129509634795E+03   -0.83442E-06   -0.10956E-07   296   0.185E-03    0.301E-04
DAV:   6    -0.129509635492E+03   -0.69666E-06    0.12694E-08   208   0.916E-04
  20 F= -.12950964E+03 E0= -.12950964E+03  d E =-.822282E-04
       N       E                     dE             d eps       ncg     rms          rms(c)
DAV:   1    -0.129509725573E+03   -0.90777E-04   -0.21373E-03   384   0.244E-01    0.150E-02
DAV:   2    -0.129509731602E+03   -0.60295E-05   -0.82652E-05   259   0.425E-02    0.847E-03
DAV:   3    -0.129509731434E+03    0.16829E-06   -0.73661E-06   336   0.120E-02    0.484E-03
DAV:   4    -0.129509731300E+03    0.13393E-06   -0.17685E-06   232   0.719E-03    0.118E-03
DAV:   5    -0.129509731445E+03   -0.14556E-06   -0.32134E-07   272   0.312E-03    0.544E-04
DAV:   6    -0.129509731622E+03   -0.17697E-06   -0.16435E-08   264   0.143E-03
  21 F= -.12950973E+03 E0= -.12950973E+03  d E =-.961304E-04
       N       E                     dE             d eps       ncg     rms          rms(c)
DAV:   1    -0.129509779741E+03   -0.48295E-04   -0.30132E-03   392   0.290E-01    0.170E-02
DAV:   2    -0.129509787316E+03   -0.75757E-05   -0.11152E-04   244   0.494E-02    0.984E-03
DAV:   3    -0.129509786406E+03    0.91046E-06   -0.81163E-06   272   0.139E-02    0.567E-03
DAV:   4    -0.129509785856E+03    0.54953E-06   -0.38027E-06   200   0.986E-03    0.135E-03
DAV:   5    -0.129509785991E+03   -0.13432E-06   -0.10818E-06   336   0.482E-03    0.703E-04
DAV:   6    -0.129509786130E+03   -0.13965E-06   -0.10746E-07   202   0.184E-03
  22 F= -.12950979E+03 E0= -.12950979E+03  d E =-.545077E-04
       N       E                     dE             d eps       ncg     rms          rms(c)
DAV:   1    -0.129509808155E+03   -0.22164E-04   -0.24607E-03   391   0.263E-01    0.132E-02
DAV:   2    -0.129509813545E+03   -0.53906E-05   -0.77360E-05   245   0.413E-02    0.810E-03
DAV:   3    -0.129509813128E+03    0.41731E-06   -0.53237E-06   165   0.113E-02    0.482E-03
DAV:   4    -0.129509813067E+03    0.61023E-07   -0.25539E-06   264   0.822E-03    0.114E-03
DAV:   5    -0.129509813283E+03   -0.21567E-06   -0.62017E-07   200   0.407E-03    0.556E-04
DAV:   6    -0.129509813489E+03   -0.20666E-06   -0.14799E-07   164   0.171E-03
  23 F= -.12950981E+03 E0= -.12950981E+03  d E =-.273590E-04
       N       E                     dE             d eps       ncg     rms          rms(c)
DAV:   1    -0.129509867552E+03   -0.54269E-04   -0.18287E-03   364   0.223E-01    0.860E-03
DAV:   2    -0.129509870514E+03   -0.29616E-05   -0.39580E-05   200   0.299E-02    0.557E-03
DAV:   3    -0.129509870826E+03   -0.31290E-06   -0.37710E-06   164   0.990E-03    0.327E-03
DAV:   4    -0.129509871334E+03   -0.50773E-06   -0.99611E-07   201   0.535E-03    0.818E-04
DAV:   5    -0.129509871591E+03   -0.25650E-06   -0.28164E-07   201   0.265E-03    0.370E-04
DAV:   6    -0.129509871771E+03   -0.18050E-06   -0.66926E-08   165   0.124E-03
  24 F= -.12950987E+03 E0= -.12950987E+03  d E =-.582820E-04
       N       E                     dE             d eps       ncg     rms          rms(c)
DAV:   1    -0.129509979740E+03   -0.10815E-03   -0.22386E-03   365   0.246E-01    0.953E-03
DAV:   2    -0.129509983519E+03   -0.37785E-05   -0.49394E-05   237   0.332E-02    0.611E-03
DAV:   3    -0.129509983992E+03   -0.47296E-06   -0.47292E-06   264   0.110E-02    0.354E-03
DAV:   4    -0.129509984633E+03   -0.64148E-06   -0.11990E-06   210   0.592E-03    0.841E-04
DAV:   5    -0.129509984817E+03   -0.18349E-06   -0.32482E-07   272   0.283E-03    0.395E-04
DAV:   6    -0.129509984936E+03   -0.11894E-06   -0.62669E-08   200   0.137E-03
  25 F= -.12950998E+03 E0= -.12950998E+03  d E =-.113164E-03
       N       E                     dE             d eps       ncg     rms          rms(c)
DAV:   1    -0.129510129085E+03   -0.14427E-03   -0.43647E-03   400   0.347E-01    0.153E-02
DAV:   2    -0.129510138424E+03   -0.93396E-05   -0.12718E-04   301   0.515E-02    0.100E-02
DAV:   3    -0.129510137974E+03    0.45004E-06   -0.59296E-06   272   0.125E-02    0.612E-03
DAV:   4    -0.129510138197E+03   -0.22254E-06   -0.35182E-06   276   0.981E-03    0.153E-03
DAV:   5    -0.129510138191E+03    0.61746E-08   -0.76296E-07   272   0.464E-03    0.727E-04
DAV:   6    -0.129510138230E+03   -0.39595E-07   -0.94199E-08   206   0.182E-03
  26 F= -.12951014E+03 E0= -.12951014E+03  d E =-.153295E-03
       N       E                     dE             d eps       ncg     rms          rms(c)
DAV:   1    -0.129510265794E+03   -0.12760E-03   -0.69046E-03   380   0.437E-01    0.196E-02
DAV:   2    -0.129510279628E+03   -0.13835E-04   -0.19530E-04   244   0.651E-02    0.128E-02
DAV:   3    -0.129510279168E+03    0.46036E-06   -0.13347E-05   272   0.176E-02    0.774E-03
DAV:   4    -0.129510279641E+03   -0.47276E-06   -0.71585E-06   264   0.128E-02    0.212E-03
DAV:   5    -0.129510279613E+03    0.28206E-07   -0.12870E-06   264   0.592E-03    0.993E-04
DAV:   6    -0.129510279705E+03   -0.92576E-07   -0.23291E-07   200   0.246E-03
  27 F= -.12951028E+03 E0= -.12951028E+03  d E =-.141475E-03
       N       E                     dE             d eps       ncg     rms          rms(c)
DAV:   1    -0.129510413267E+03   -0.13365E-03   -0.82190E-03   354   0.474E-01    0.191E-02
DAV:   2    -0.129510426574E+03   -0.13306E-04   -0.18864E-04   251   0.647E-02    0.128E-02
DAV:   3    -0.129510426928E+03   -0.35452E-06   -0.12518E-05   216   0.173E-02    0.762E-03
DAV:   4    -0.129510428371E+03   -0.14426E-05   -0.52240E-06   253   0.121E-02    0.177E-03
DAV:   5    -0.129510428616E+03   -0.24479E-06   -0.14163E-06   199   0.581E-03    0.886E-04
DAV:   6    -0.129510428870E+03   -0.25485E-06   -0.37583E-07   177   0.263E-03
  28 F= -.12951043E+03 E0= -.12951043E+03  d E =-.149165E-03
       N       E                     dE             d eps       ncg     rms          rms(c)
DAV:   1    -0.129510647755E+03   -0.21914E-03   -0.11802E-02   329   0.562E-01    0.226E-02
DAV:   2    -0.129510665839E+03   -0.18084E-04   -0.25514E-04   332   0.732E-02    0.149E-02
DAV:   3    -0.129510666097E+03   -0.25798E-06   -0.72618E-06   245   0.154E-02    0.859E-03
DAV:   4    -0.129510668834E+03   -0.27370E-05   -0.53514E-06   286   0.126E-02    0.186E-03
DAV:   5    -0.129510669104E+03   -0.27014E-06   -0.11213E-06   272   0.584E-03    0.927E-04
DAV:   6    -0.129510669308E+03   -0.20397E-06   -0.10234E-07   203   0.205E-03
  29 F= -.12951067E+03 E0= -.12951067E+03  d E =-.240438E-03
       N       E                     dE             d eps       ncg     rms          rms(c)
DAV:   1    -0.129510930525E+03   -0.26142E-03   -0.21609E-02   336   0.759E-01    0.323E-02
DAV:   2    -0.129510967093E+03   -0.36568E-04   -0.52207E-04   364   0.103E-01    0.214E-02
DAV:   3    -0.129510965634E+03    0.14589E-05   -0.10616E-05   271   0.184E-02    0.125E-02
DAV:   4    -0.129510968641E+03   -0.30064E-05   -0.95405E-06   281   0.169E-02    0.218E-03
DAV:   5    -0.129510968959E+03   -0.31829E-06   -0.18393E-06   272   0.720E-03    0.141E-03
DAV:   6    -0.129510969187E+03   -0.22792E-06   -0.20513E-07   236   0.252E-03
  30 F= -.12951097E+03 E0= -.12951097E+03  d E =-.299879E-03
       N       E                     dE             d eps       ncg     rms          rms(c)
DAV:   1    -0.129511229643E+03   -0.26068E-03   -0.32525E-02   336   0.925E-01    0.396E-02
DAV:   2    -0.129511277059E+03   -0.47417E-04   -0.69925E-04   355   0.121E-01    0.259E-02
DAV:   3    -0.129511276027E+03    0.10323E-05   -0.13678E-05   219   0.221E-02    0.145E-02
DAV:   4    -0.129511281812E+03   -0.57849E-05   -0.14151E-05   237   0.202E-02    0.275E-03
DAV:   5    -0.129511282363E+03   -0.55175E-06   -0.31537E-06   254   0.926E-03    0.154E-03
DAV:   6    -0.129511282782E+03   -0.41819E-06   -0.47286E-07   216   0.322E-03
  31 F= -.12951128E+03 E0= -.12951128E+03  d E =-.313595E-03
       N       E                     dE             d eps       ncg     rms          rms(c)
DAV:   1    -0.129511654642E+03   -0.37228E-03   -0.46932E-02   330   0.111E+00    0.479E-02
DAV:   2    -0.129511718358E+03   -0.63716E-04   -0.95133E-04   379   0.142E-01    0.326E-02
DAV:   3    -0.129511716169E+03    0.21884E-05   -0.20932E-05   236   0.279E-02    0.183E-02
DAV:   4    -0.129511726536E+03   -0.10367E-04   -0.23573E-05   283   0.248E-02    0.430E-03
DAV:   5    -0.129511726764E+03   -0.22796E-06   -0.52255E-06   272   0.123E-02    0.184E-03
DAV:   6    -0.129511727053E+03   -0.28862E-06   -0.69912E-07   204   0.419E-03
  32 F= -.12951173E+03 E0= -.12951173E+03  d E =-.444271E-03
       N       E                     dE             d eps       ncg     rms          rms(c)
DAV:   1    -0.129512101096E+03   -0.37433E-03   -0.75498E-02   329   0.142E+00    0.610E-02
DAV:   2    -0.129512208946E+03   -0.10785E-03   -0.15771E-03   395   0.184E-01    0.428E-02
DAV:   3    -0.129512202121E+03    0.68250E-05   -0.40280E-05   320   0.372E-02    0.245E-02
DAV:   4    -0.129512216304E+03   -0.14183E-04   -0.33935E-05   291   0.312E-02    0.453E-03
DAV:   5    -0.129512216893E+03   -0.58917E-06   -0.65607E-06   272   0.136E-02    0.253E-03
DAV:   6    -0.129512217334E+03   -0.44101E-06   -0.86440E-07   236   0.492E-03
  33 F= -.12951222E+03 E0= -.12951222E+03  d E =-.490282E-03
       N       E                     dE             d eps       ncg     rms          rms(c)
DAV:   1    -0.129512681948E+03   -0.46506E-03   -0.11162E-01   330   0.172E+00    0.721E-02
DAV:   2    -0.129512840068E+03   -0.15812E-03   -0.22657E-03   388   0.219E-01    0.480E-02
DAV:   3    -0.129512836430E+03    0.36379E-05   -0.46790E-05   300   0.407E-02    0.260E-02
DAV:   4    -0.129512856094E+03   -0.19663E-04   -0.41310E-05   301   0.341E-02    0.464E-03
DAV:   5    -0.129512857052E+03   -0.95811E-06   -0.77955E-06   272   0.149E-02    0.273E-03
DAV:   6    -0.129512857755E+03   -0.70296E-06   -0.95405E-07   234   0.497E-03
  34 F= -.12951286E+03 E0= -.12951286E+03  d E =-.640420E-03
       N       E                     dE             d eps       ncg     rms          rms(c)
DAV:   1    -0.129513312860E+03   -0.45581E-03   -0.15955E-01   329   0.205E+00    0.855E-02
DAV:   2    -0.129513554082E+03   -0.24122E-03   -0.33785E-03   396   0.264E-01    0.566E-02
DAV:   3    -0.129513546868E+03    0.72143E-05   -0.59987E-05   242   0.464E-02    0.311E-02
DAV:   4    -0.129513574544E+03   -0.27677E-04   -0.60101E-05   301   0.411E-02    0.584E-03
DAV:   5    -0.129513576189E+03   -0.16445E-05   -0.11758E-05   272   0.184E-02    0.304E-03
DAV:   6    -0.129513577280E+03   -0.10917E-05   -0.13874E-06   250   0.586E-03
  35 F= -.12951358E+03 E0= -.12951358E+03  d E =-.719526E-03
       N       E                     dE             d eps       ncg     rms          rms(c)
DAV:   1    -0.129514063504E+03   -0.48732E-03   -0.21103E-01   328   0.238E+00    0.971E-02
DAV:   2    -0.129514408601E+03   -0.34510E-03   -0.48105E-03   355   0.315E-01    0.683E-02
DAV:   3    -0.129514392734E+03    0.15867E-04   -0.11166E-04   359   0.597E-02    0.409E-02
DAV:   4    -0.129514434531E+03   -0.41797E-04   -0.98518E-05   275   0.557E-02    0.814E-03
DAV:   5    -0.129514435778E+03   -0.12467E-05   -0.22064E-05   272   0.250E-02    0.429E-03
DAV:   6    -0.129514436865E+03   -0.10868E-05   -0.30737E-06   286   0.854E-03
  36 F= -.12951444E+03 E0= -.12951444E+03  d E =-.859584E-03
       N       E                     dE             d eps       ncg     rms          rms(c)
DAV:   1    -0.129514888845E+03   -0.45307E-03   -0.29339E-01   329   0.281E+00    0.111E-01
DAV:   2    -0.129515390500E+03   -0.50165E-03   -0.67894E-03   387   0.371E-01    0.747E-02
DAV:   3    -0.129515372026E+03    0.18474E-04   -0.11032E-04   332   0.622E-02    0.439E-02
DAV:   4    -0.129515426007E+03   -0.53981E-04   -0.10768E-04   301   0.587E-02    0.729E-03
DAV:   5    -0.129515429861E+03   -0.38540E-05   -0.23035E-05   304   0.251E-02    0.466E-03
DAV:   6    -0.129515431709E+03   -0.18484E-05   -0.22973E-06   238   0.776E-03
  37 F= -.12951543E+03 E0= -.12951543E+03  d E =-.994844E-03
       N       E                     dE             d eps       ncg     rms          rms(c)
DAV:   1    -0.129515780620E+03   -0.35076E-03   -0.38974E-01   328   0.324E+00    0.125E-01
DAV:   2    -0.129516453566E+03   -0.67295E-03   -0.91164E-03   364   0.429E-01    0.860E-02
DAV:   3    -0.129516433318E+03    0.20248E-04   -0.18738E-04   332   0.746E-02    0.518E-02
DAV:   4    -0.129516516694E+03   -0.83376E-04   -0.15597E-04   274   0.721E-02    0.102E-02
DAV:   5    -0.129516519898E+03   -0.32038E-05   -0.36454E-05   272   0.318E-02    0.581E-03
DAV:   6    -0.129516522048E+03   -0.21496E-05   -0.51477E-06   252   0.109E-02
  38 F= -.12951652E+03 E0= -.12951652E+03  d E =-.109034E-02
       N       E                     dE             d eps       ncg     rms          rms(c)
DAV:   1    -0.129516369930E+03    0.14997E-03   -0.57955E-01   328   0.397E+00    0.156E-01
DAV:   2    -0.129517423436E+03   -0.10535E-02   -0.14229E-02   338   0.536E-01    0.108E-01
DAV:   3    -0.129517381263E+03    0.42173E-04   -0.32964E-04   415   0.963E-02    0.666E-02
DAV:   4    -0.129517475549E+03   -0.94286E-04   -0.20105E-04   291   0.828E-02    0.120E-02
DAV:   5    -0.129517485457E+03   -0.99074E-05   -0.50060E-05   336   0.367E-02    0.761E-03
DAV:   6    -0.129517488660E+03   -0.32037E-05   -0.47690E-06   240   0.115E-02
  39 F= -.12951749E+03 E0= -.12951749E+03  d E =-.966612E-03
       N       E                     dE             d eps       ncg     rms          rms(c)
DAV:   1    -0.129513526037E+03    0.39594E-02   -0.11009E+00   328   0.546E+00    0.250E-01
DAV:   2    -0.129516149624E+03   -0.26236E-02   -0.34611E-02   379   0.820E-01    0.167E-01
DAV:   3    -0.129515894019E+03    0.25561E-03   -0.72242E-04   463   0.145E-01    0.980E-02
DAV:   4    -0.129515917007E+03   -0.22987E-04   -0.50988E-04   377   0.120E-01    0.203E-02
DAV:   5    -0.129515931157E+03   -0.14150E-04   -0.92624E-05   400   0.451E-02    0.122E-02
DAV:   6    -0.129515935446E+03   -0.42890E-05   -0.76460E-06   288   0.143E-02
  40 F= -.12951594E+03 E0= -.12951594E+03  d E =0.155321E-02
       N       E                     dE             d eps       ncg     rms          rms(c)
DAV:   1    -0.129518338757E+03   -0.24076E-02   -0.30596E-01   334   0.280E+00    0.191E-01
DAV:   2    -0.129519271430E+03   -0.93267E-03   -0.13495E-02   395   0.508E-01    0.107E-01
DAV:   3    -0.129519149745E+03    0.12168E-03   -0.36487E-04   397   0.102E-01    0.578E-02
DAV:   4    -0.129519109248E+03    0.40498E-04   -0.23351E-04   329   0.765E-02    0.138E-02
DAV:   5    -0.129519109881E+03   -0.63344E-06   -0.41481E-05   368   0.311E-02    0.746E-03
DAV:   6    -0.129519112018E+03   -0.21366E-05   -0.58418E-06   296   0.122E-02
  41 F= -.12951911E+03 E0= -.12951911E+03  d E =-.317657E-02
       N       E                     dE             d eps       ncg     rms          rms(c)
DAV:   1    -0.129519195613E+03   -0.85732E-04   -0.84662E-04   408   0.143E-01    0.102E-02
DAV:   2    -0.129519202238E+03   -0.66245E-05   -0.29691E-05   320   0.245E-02    0.539E-03
DAV:   3    -0.129519206650E+03   -0.44125E-05   -0.27177E-06   261   0.798E-03    0.264E-03
DAV:   4    -0.129519211774E+03   -0.51234E-05   -0.65293E-07   308   0.377E-03    0.805E-04
DAV:   5    -0.129519215280E+03   -0.35066E-05   -0.24303E-07   268   0.190E-03    0.353E-04
DAV:   6    -0.129519217866E+03   -0.25859E-05   -0.96204E-08   252   0.116E-03
  42 F= -.12951922E+03 E0= -.12951922E+03  d E =-.105848E-03
       N       E                     dE             d eps       ncg     rms          rms(c)
DAV:   1    -0.129519300995E+03   -0.85715E-04   -0.25744E-03   338   0.253E-01    0.169E-02
DAV:   2    -0.129519309357E+03   -0.83618E-05   -0.10319E-04   293   0.449E-02    0.935E-03
DAV:   3    -0.129519310337E+03   -0.97988E-06   -0.99975E-06   283   0.130E-02    0.531E-03
DAV:   4    -0.129519311546E+03   -0.12096E-05   -0.23811E-06   250   0.767E-03    0.127E-03
DAV:   5    -0.129519312150E+03   -0.60436E-06   -0.53521E-07   263   0.340E-03    0.621E-04
DAV:   6    -0.129519312572E+03   -0.42170E-06   -0.10238E-07   218   0.158E-03
  43 F= -.12951931E+03 E0= -.12951931E+03  d E =-.947061E-04
       N       E                     dE             d eps       ncg     rms          rms(c)
DAV:   1    -0.129519330658E+03   -0.18507E-04   -0.33205E-03   373   0.290E-01    0.185E-02
DAV:   2    -0.129519339607E+03   -0.89492E-05   -0.13384E-04   306   0.497E-02    0.109E-02
DAV:   3    -0.129519338425E+03    0.11816E-05   -0.46576E-06   255   0.117E-02    0.627E-03
DAV:   4    -0.129519337787E+03    0.63832E-06   -0.36203E-06   272   0.941E-03    0.146E-03
DAV:   5    -0.129519337726E+03    0.61395E-07   -0.68604E-07   272   0.433E-03    0.770E-04
DAV:   6    -0.129519337798E+03   -0.71958E-07   -0.10060E-07   224   0.177E-03
  44 F= -.12951934E+03 E0= -.12951934E+03  d E =-.252256E-04
       N       E                     dE             d eps       ncg     rms          rms(c)
DAV:   1    -0.129519327457E+03    0.10269E-04   -0.26194E-03   376   0.260E-01    0.144E-02
DAV:   2    -0.129519331738E+03   -0.42814E-05   -0.73209E-05   280   0.393E-02    0.868E-03
DAV:   3    -0.129519331539E+03    0.19922E-06   -0.61541E-06   212   0.117E-02    0.495E-03
DAV:   4    -0.129519331553E+03   -0.14360E-07   -0.26926E-06   262   0.806E-03    0.112E-03
DAV:   5    -0.129519331674E+03   -0.12099E-06   -0.63793E-07   204   0.391E-03    0.591E-04
DAV:   6    -0.129519331857E+03   -0.18297E-06   -0.15587E-07   194   0.173E-03
  45 F= -.12951933E+03 E0= -.12951933E+03  d E =0.594043E-05
       N       E                     dE             d eps       ncg     rms          rms(c)
DAV:   1    -0.129519369404E+03   -0.37729E-04   -0.24281E-03   378   0.246E-01    0.114E-02
DAV:   2    -0.129519371085E+03   -0.16816E-05   -0.32883E-05   202   0.290E-02    0.705E-03
DAV:   3    -0.129519371853E+03   -0.76755E-06   -0.42064E-06   224   0.107E-02    0.304E-03
DAV:   4    -0.129519372408E+03   -0.55502E-06   -0.11081E-06   237   0.520E-03    0.742E-04
DAV:   5    -0.129519372687E+03   -0.27876E-06   -0.24526E-07   233   0.258E-03    0.320E-04
DAV:   6    -0.129519372894E+03   -0.20767E-06   -0.49462E-08   219   0.123E-03
  46 F= -.12951937E+03 E0= -.12951937E+03  d E =-.410370E-04
       N       E                     dE             d eps       ncg     rms          rms(c)
DAV:   1    -0.129519467999E+03   -0.95313E-04   -0.39591E-03   356   0.318E-01    0.150E-02
DAV:   2    -0.129519471813E+03   -0.38137E-05   -0.67915E-05   220   0.409E-02    0.934E-03
DAV:   3    -0.129519472709E+03   -0.89560E-06   -0.85254E-06   270   0.150E-02    0.434E-03
DAV:   4    -0.129519473337E+03   -0.62831E-06   -0.23255E-06   231   0.762E-03    0.103E-03
DAV:   5    -0.129519473501E+03   -0.16433E-06   -0.53118E-07   272   0.384E-03    0.467E-04
DAV:   6    -0.129519473597E+03   -0.95178E-07   -0.11795E-07   204   0.184E-03
  47 F= -.12951947E+03 E0= -.12951947E+03  d E =-.100702E-03
       N       E                     dE             d eps       ncg     rms          rms(c)
DAV:   1    -0.129519570251E+03   -0.96750E-04   -0.79876E-03   351   0.457E-01    0.227E-02
DAV:   2    -0.129519581239E+03   -0.10988E-04   -0.18808E-04   268   0.641E-02    0.144E-02
DAV:   3    -0.129519580676E+03    0.56369E-06   -0.11880E-05   247   0.170E-02    0.779E-03
DAV:   4    -0.129519580764E+03   -0.88127E-07   -0.77451E-06   289   0.125E-02    0.194E-03
DAV:   5    -0.129519580715E+03    0.48384E-07   -0.13136E-06   272   0.641E-03    0.102E-03
DAV:   6    -0.129519580795E+03   -0.80150E-07   -0.20829E-07   204   0.245E-03
  48 F= -.12951958E+03 E0= -.12951958E+03  d E =-.107199E-03
       N       E                     dE             d eps       ncg     rms          rms(c)
DAV:   1    -0.129519628411E+03   -0.47696E-04   -0.11539E-02   335   0.547E-01    0.263E-02
DAV:   2    -0.129519642228E+03   -0.13817E-04   -0.24022E-04   276   0.733E-02    0.167E-02
DAV:   3    -0.129519641975E+03    0.25248E-06   -0.15318E-05   254   0.195E-02    0.885E-03
DAV:   4    -0.129519642729E+03   -0.75389E-06   -0.82466E-06   238   0.141E-02    0.183E-03
DAV:   5    -0.129519643058E+03   -0.32848E-06   -0.19913E-06   206   0.708E-03    0.988E-04
DAV:   6    -0.129519643368E+03   -0.30995E-06   -0.51842E-07   208   0.298E-03
  49 F= -.12951964E+03 E0= -.12951964E+03  d E =-.625723E-04
       N       E                     dE             d eps       ncg     rms          rms(c)
DAV:   1    -0.129519741779E+03   -0.98721E-04   -0.13528E-02   333   0.582E-01    0.268E-02
DAV:   2    -0.129519751378E+03   -0.95988E-05   -0.18668E-04   256   0.683E-02    0.165E-02
DAV:   3    -0.129519754730E+03   -0.33516E-05   -0.21920E-05   297   0.212E-02    0.744E-03
DAV:   4    -0.129519756510E+03   -0.17800E-05   -0.48529E-06   246   0.112E-02    0.163E-03
DAV:   5    -0.129519756909E+03   -0.39953E-06   -0.10577E-06   200   0.540E-03    0.763E-04
DAV:   6    -0.129519757212E+03   -0.30329E-06   -0.21478E-07   227   0.227E-03
  50 F= -.12951976E+03 E0= -.12951976E+03  d E =-.113845E-03
       N       E                     dE             d eps       ncg     rms          rms(c)
DAV:   1    -0.129519929224E+03   -0.17231E-03   -0.20276E-02   328   0.719E-01    0.344E-02
DAV:   2    -0.129519953755E+03   -0.24531E-04   -0.40166E-04   396   0.923E-02    0.229E-02
DAV:   3    -0.129519952547E+03    0.12076E-05   -0.11398E-05   252   0.199E-02    0.125E-02
DAV:   4    -0.129519955981E+03   -0.34341E-05   -0.10257E-05   260   0.161E-02    0.211E-03
DAV:   5    -0.129519956146E+03   -0.16459E-06   -0.17953E-06   272   0.710E-03    0.128E-03
DAV:   6    -0.129519956262E+03   -0.11630E-06   -0.20107E-07   218   0.259E-03
  51 F= -.12951996E+03 E0= -.12951996E+03  d E =-.199050E-03
       N       E                     dE             d eps       ncg     rms          rms(c)
DAV:   1    -0.129520080248E+03   -0.12410E-03   -0.28553E-02   336   0.859E-01    0.404E-02
DAV:   2    -0.129520116294E+03   -0.36045E-04   -0.59284E-04   397   0.112E-01    0.270E-02
DAV:   3    -0.129520113431E+03    0.28624E-05   -0.15179E-05   254   0.237E-02    0.150E-02
DAV:   4    -0.129520118049E+03   -0.46183E-05   -0.17432E-05   265   0.207E-02    0.317E-03
DAV:   5    -0.129520118176E+03   -0.12636E-06   -0.34010E-06   272   0.100E-02    0.158E-03
DAV:   6    -0.129520118425E+03   -0.24924E-06   -0.45562E-07   206   0.351E-03
  52 F= -.12952012E+03 E0= -.12952012E+03  d E =-.162163E-03
       N       E                     dE             d eps       ncg     rms          rms(c)
DAV:   1    -0.129520345465E+03   -0.22729E-03   -0.31460E-02   332   0.904E-01    0.396E-02
DAV:   2    -0.129520380558E+03   -0.35093E-04   -0.56926E-04   378   0.111E-01    0.266E-02
DAV:   3    -0.129520380751E+03   -0.19265E-06   -0.14343E-05   228   0.234E-02    0.140E-02
DAV:   4    -0.129520387550E+03   -0.67995E-05   -0.14467E-05   275   0.190E-02    0.319E-03
DAV:   5    -0.129520387859E+03   -0.30870E-06   -0.29643E-06   272   0.972E-03    0.141E-03
DAV:   6    -0.129520388164E+03   -0.30487E-06   -0.37018E-07   234   0.330E-03
  53 F= -.12952039E+03 E0= -.12952039E+03  d E =-.269739E-03
       N       E                     dE             d eps       ncg     rms          rms(c)
DAV:   1    -0.129520595270E+03   -0.20741E-03   -0.44078E-02   333   0.109E+00    0.480E-02
DAV:   2    -0.129520665171E+03   -0.69901E-04   -0.10466E-03   369   0.147E-01    0.328E-02
DAV:   3    -0.129520659898E+03    0.52731E-05   -0.23293E-05   248   0.293E-02    0.189E-02
DAV:   4    -0.129520665969E+03   -0.60703E-05   -0.25487E-05   272   0.263E-02    0.406E-03
DAV:   5    -0.129520666310E+03   -0.34143E-06   -0.55912E-06   272   0.131E-02    0.197E-03
DAV:   6    -0.129520666683E+03   -0.37303E-06   -0.80257E-07   264   0.465E-03
  54 F= -.12952067E+03 E0= -.12952067E+03  d E =-.278519E-03
       N       E                     dE             d eps       ncg     rms          rms(c)
DAV:   1    -0.129520690795E+03   -0.24485E-04   -0.22516E-04   276   0.759E-02    0.410E-03
DAV:   2    -0.129520692192E+03   -0.13975E-05   -0.10442E-05   256   0.160E-02    0.258E-03
DAV:   3    -0.129520692816E+03   -0.62394E-06   -0.10965E-06   210   0.525E-03    0.152E-03
DAV:   4    -0.129520693711E+03   -0.89462E-06   -0.35094E-07   259   0.272E-03    0.465E-04
DAV:   5    -0.129520694116E+03   -0.40495E-06   -0.48426E-08   271   0.133E-03    0.236E-04
DAV:   6    -0.129520694473E+03   -0.35739E-06    0.62878E-09   200   0.621E-04
  55 F= -.12952069E+03 E0= -.12952069E+03  d E =-.277904E-04
       N       E                     dE             d eps       ncg     rms          rms(c)
DAV:   1    -0.129520725335E+03   -0.31219E-04   -0.71600E-04   380   0.135E-01    0.791E-03
DAV:   2    -0.129520727273E+03   -0.19383E-05   -0.25089E-05   219   0.227E-02    0.461E-03
DAV:   3    -0.129520727568E+03   -0.29544E-06   -0.27365E-06   270   0.780E-03    0.237E-03
DAV:   4    -0.129520727830E+03   -0.26160E-06   -0.71116E-07   203   0.404E-03    0.696E-04
DAV:   5    -0.129520727956E+03   -0.12579E-06   -0.16948E-07   272   0.214E-03    0.305E-04
DAV:   6    -0.129520728043E+03   -0.87110E-07   -0.11117E-08   240   0.105E-03
  56 F= -.12952073E+03 E0= -.12952073E+03  d E =-.335696E-04
       N       E                     dE             d eps       ncg     rms          rms(c)
DAV:   1    -0.129520751218E+03   -0.23263E-04   -0.10384E-03   390   0.164E-01    0.884E-03
DAV:   2    -0.129520753290E+03   -0.20715E-05   -0.33594E-05   212   0.264E-02    0.529E-03
DAV:   3    -0.129520753296E+03   -0.62109E-08   -0.36290E-06   272   0.902E-03    0.275E-03
DAV:   4    -0.129520753236E+03    0.60652E-07   -0.97037E-07   210   0.470E-03    0.785E-04
DAV:   5    -0.129520753217E+03    0.18151E-07   -0.25902E-07   272   0.247E-03    0.352E-04
DAV:   6    -0.129520753274E+03   -0.56976E-07   -0.52252E-08   202   0.122E-03
  57 F= -.12952075E+03 E0= -.12952075E+03  d E =-.252314E-04
       N       E                     dE             d eps       ncg     rms          rms(c)
DAV:   1    -0.129520776175E+03   -0.22958E-04   -0.98358E-04   342   0.162E-01    0.715E-03
DAV:   2    -0.129520777786E+03   -0.16111E-05   -0.25503E-05   204   0.234E-02    0.452E-03
DAV:   3    -0.129520777887E+03   -0.10046E-06   -0.26060E-06   166   0.785E-03    0.243E-03
DAV:   4    -0.129520778012E+03   -0.12510E-06   -0.70579E-07   200   0.415E-03    0.597E-04
DAV:   5    -0.129520778075E+03   -0.63223E-07   -0.17953E-07   180   0.209E-03    0.293E-04
DAV:   6    -0.129520778170E+03   -0.94669E-07   -0.31513E-08   191   0.102E-03
  58 F= -.12952078E+03 E0= -.12952078E+03  d E =-.248955E-04
       N       E                     dE             d eps       ncg     rms          rms(c)
DAV:   1    -0.129520816981E+03   -0.38906E-04   -0.92170E-04   315   0.157E-01    0.604E-03
DAV:   2    -0.129520818464E+03   -0.14834E-05   -0.20862E-05   192   0.227E-02    0.376E-03
DAV:   3    -0.129520818797E+03   -0.33272E-06   -0.20769E-06   164   0.782E-03    0.209E-03
DAV:   4    -0.129520819144E+03   -0.34663E-06   -0.47848E-07   201   0.392E-03    0.440E-04
DAV:   5    -0.129520819264E+03   -0.12081E-06   -0.10279E-07   226   0.194E-03    0.233E-04
DAV:   6    -0.129520819352E+03   -0.87612E-07    0.62422E-09   175   0.929E-04
  59 F= -.12952082E+03 E0= -.12952082E+03  d E =-.411821E-04
       N       E                     dE             d eps       ncg     rms          rms(c)
DAV:   1    -0.129520876675E+03   -0.57411E-04   -0.11811E-03   356   0.178E-01    0.710E-03
DAV:   2    -0.129520878408E+03   -0.17324E-05   -0.26054E-05   237   0.240E-02    0.465E-03
DAV:   3    -0.129520878658E+03   -0.25019E-06   -0.25032E-06   238   0.807E-03    0.271E-03
DAV:   4    -0.129520879015E+03   -0.35742E-06   -0.61887E-07   237   0.436E-03    0.675E-04
DAV:   5    -0.129520879078E+03   -0.63211E-07   -0.12683E-07   272   0.217E-03    0.306E-04
DAV:   6    -0.129520879116E+03   -0.37343E-07    0.15406E-08   167   0.105E-03
  60 F= -.12952088E+03 E0= -.12952088E+03  d E =-.597638E-04
       N       E                     dE             d eps       ncg     rms          rms(c)
DAV:   1    -0.129520947796E+03   -0.68717E-04   -0.20266E-03   293   0.235E-01    0.101E-02
DAV:   2    -0.129520950963E+03   -0.31675E-05   -0.51236E-05   228   0.337E-02    0.659E-03
DAV:   3    -0.129520951130E+03   -0.16683E-06   -0.52036E-06   264   0.114E-02    0.385E-03
DAV:   4    -0.129520951295E+03   -0.16489E-06   -0.13921E-06   212   0.620E-03    0.102E-03
DAV:   5    -0.129520951282E+03    0.13153E-07   -0.34894E-07   254   0.315E-03    0.437E-04
DAV:   6    -0.129520951323E+03   -0.40754E-07   -0.57740E-08   193   0.154E-03
  61 F= -.12952095E+03 E0= -.12952095E+03  d E =-.722068E-04
       N       E                     dE             d eps       ncg     rms          rms(c)
DAV:   1    -0.129521021675E+03   -0.70393E-04   -0.29698E-03   328   0.283E-01    0.119E-02
DAV:   2    -0.129521026157E+03   -0.44813E-05   -0.72720E-05   232   0.396E-02    0.790E-03
DAV:   3    -0.129521026207E+03   -0.50851E-07   -0.50862E-06   248   0.108E-02    0.472E-03
DAV:   4    -0.129521026568E+03   -0.36072E-06   -0.21088E-06   262   0.751E-03    0.109E-03
DAV:   5    -0.129521026626E+03   -0.57631E-07   -0.55755E-07   174   0.377E-03    0.557E-04
DAV:   6    -0.129521026717E+03   -0.91074E-07   -0.12568E-07   166   0.173E-03
  62 F= -.12952103E+03 E0= -.12952103E+03  d E =-.753943E-04
       N       E                     dE             d eps       ncg     rms          rms(c)
DAV:   1    -0.129521116109E+03   -0.89483E-04   -0.41007E-03   330   0.329E-01    0.133E-02
DAV:   2    -0.129521121203E+03   -0.50940E-05   -0.81554E-05   267   0.424E-02    0.853E-03
DAV:   3    -0.129521121913E+03   -0.71094E-06   -0.57301E-06   200   0.115E-02    0.469E-03
DAV:   4    -0.129521122941E+03   -0.10275E-05   -0.19839E-06   253   0.727E-03    0.980E-04
DAV:   5    -0.129521123101E+03   -0.15991E-06   -0.54440E-07   165   0.361E-03    0.507E-04
DAV:   6    -0.129521123224E+03   -0.12315E-06   -0.12534E-07   166   0.165E-03
  63 F= -.12952112E+03 E0= -.12952112E+03  d E =-.965073E-04
       N       E                     dE             d eps       ncg     rms          rms(c)
DAV:   1    -0.129521246828E+03   -0.12373E-03   -0.67811E-03   329   0.422E-01    0.175E-02
DAV:   2    -0.129521255109E+03   -0.82816E-05   -0.13222E-04   268   0.544E-02    0.112E-02
DAV:   3    -0.129521256494E+03   -0.13851E-05   -0.10810E-05   269   0.149E-02    0.606E-03
DAV:   4    -0.129521257901E+03   -0.14070E-05   -0.28865E-06   252   0.909E-03    0.127E-03
DAV:   5    -0.129521258028E+03   -0.12706E-06   -0.59440E-07   272   0.408E-03    0.665E-04
DAV:   6    -0.129521258110E+03   -0.81838E-07   -0.89757E-08   194   0.178E-03
  64 F= -.12952126E+03 E0= -.12952126E+03  d E =-.134886E-03
       N       E                     dE             d eps       ncg     rms          rms(c)
DAV:   1    -0.129521394226E+03   -0.13620E-03   -0.11631E-02   330   0.552E-01    0.236E-02
DAV:   2    -0.129521410013E+03   -0.15787E-04   -0.24822E-04   332   0.722E-02    0.158E-02
DAV:   3    -0.129521409887E+03    0.12667E-06   -0.78595E-06   221   0.160E-02    0.890E-03
DAV:   4    -0.129521411970E+03   -0.20838E-05   -0.55179E-06   226   0.127E-02    0.165E-03
DAV:   5    -0.129521412085E+03   -0.11499E-06   -0.11817E-06   248   0.581E-03    0.931E-04
DAV:   6    -0.129521412195E+03   -0.10996E-06   -0.16042E-07   194   0.216E-03
  65 F= -.12952141E+03 E0= -.12952141E+03  d E =-.154085E-03
       N       E                     dE             d eps       ncg     rms          rms(c)
DAV:   1    -0.129521576597E+03   -0.16451E-03   -0.17561E-02   332   0.676E-01    0.285E-02
DAV:   2    -0.129521597909E+03   -0.21312E-04   -0.33567E-04   364   0.842E-02    0.191E-02
DAV:   3    -0.129521598078E+03   -0.16943E-06   -0.75557E-06   210   0.169E-02    0.103E-02
DAV:   4    -0.129521601703E+03   -0.36255E-05   -0.71536E-06   252   0.143E-02    0.206E-03
DAV:   5    -0.129521601906E+03   -0.20258E-06   -0.15895E-06   216   0.679E-03    0.109E-03
DAV:   6    -0.129521602094E+03   -0.18747E-06   -0.20895E-07   164   0.239E-03
  66 F= -.12952160E+03 E0= -.12952160E+03  d E =-.189898E-03
       N       E                     dE             d eps       ncg     rms          rms(c)
DAV:   1    -0.129521809621E+03   -0.20772E-03   -0.27882E-02   332   0.855E-01    0.362E-02
DAV:   2    -0.129521847099E+03   -0.37477E-04   -0.57029E-04   378   0.109E-01    0.247E-02
DAV:   3    -0.129521845977E+03    0.11214E-05   -0.12068E-05   246   0.216E-02    0.138E-02
DAV:   4    -0.129521851362E+03   -0.53843E-05   -0.13279E-05   250   0.189E-02    0.307E-03
DAV:   5    -0.129521851541E+03   -0.17955E-06   -0.29517E-06   272   0.971E-03    0.138E-03
DAV:   6    -0.129521851734E+03   -0.19285E-06   -0.37393E-07   244   0.326E-03
  67 F= -.12952185E+03 E0= -.12952185E+03  d E =-.249640E-03
       N       E                     dE             d eps       ncg     rms          rms(c)
DAV:   1    -0.129522088326E+03   -0.23678E-03   -0.41237E-02   335   0.104E+00    0.432E-02
DAV:   2    -0.129522142900E+03   -0.54574E-04   -0.82559E-04   396   0.131E-01    0.291E-02
DAV:   3    -0.129522142208E+03    0.69185E-06   -0.16155E-05   200   0.249E-02    0.160E-02
DAV:   4    -0.129522150530E+03   -0.83216E-05   -0.16795E-05   236   0.219E-02    0.323E-03
DAV:   5    -0.129522150918E+03   -0.38790E-06   -0.38053E-06   240   0.106E-02    0.162E-03
DAV:   6    -0.129522151240E+03   -0.32196E-06   -0.51171E-07   192   0.361E-03
  68 F= -.12952215E+03 E0= -.12952215E+03  d E =-.299506E-03
       N       E                     dE             d eps       ncg     rms          rms(c)
DAV:   1    -0.129522423155E+03   -0.27224E-03   -0.60720E-02   330   0.127E+00    0.519E-02
DAV:   2    -0.129522511647E+03   -0.88492E-04   -0.13040E-03   394   0.163E-01    0.350E-02
DAV:   3    -0.129522510146E+03    0.15008E-05   -0.23854E-05   251   0.291E-02    0.197E-02
DAV:   4    -0.129522522636E+03   -0.12489E-04   -0.21502E-05   228   0.255E-02    0.327E-03
DAV:   5    -0.129522523279E+03   -0.64380E-06   -0.48308E-06   272   0.114E-02    0.200E-03
DAV:   6    -0.129522523684E+03   -0.40477E-06   -0.64648E-07   202   0.400E-03
  69 F= -.12952252E+03 E0= -.12952252E+03  d E =-.372444E-03
       N       E                     dE             d eps       ncg     rms          rms(c)
DAV:   1    -0.129522837758E+03   -0.31448E-03   -0.83934E-02   330   0.149E+00    0.596E-02
DAV:   2    -0.129522963105E+03   -0.12535E-03   -0.18024E-03   371   0.191E-01    0.407E-02
DAV:   3    -0.129522959786E+03    0.33184E-05   -0.31252E-05   209   0.347E-02    0.234E-02
DAV:   4    -0.129522978400E+03   -0.18613E-04   -0.35950E-05   300   0.320E-02    0.516E-03
DAV:   5    -0.129522979095E+03   -0.69582E-06   -0.86801E-06   252   0.161E-02    0.239E-03
DAV:   6    -0.129522979552E+03   -0.45617E-06   -0.11457E-06   198   0.540E-03
  70 F= -.12952298E+03 E0= -.12952298E+03  d E =-.455867E-03
       N       E                     dE             d eps       ncg     rms          rms(c)
DAV:   1    -0.129523297247E+03   -0.31815E-03   -0.12495E-01   328   0.182E+00    0.720E-02
DAV:   2    -0.129523490277E+03   -0.19303E-03   -0.27247E-03   396   0.234E-01    0.486E-02
DAV:   3    -0.129523485914E+03    0.43628E-05   -0.43653E-05   208   0.409E-02    0.280E-02
DAV:   4    -0.129523512229E+03   -0.26315E-04   -0.50948E-05   300   0.384E-02    0.592E-03
DAV:   5    -0.129523513380E+03   -0.11513E-05   -0.11965E-05   236   0.188E-02    0.285E-03
DAV:   6    -0.129523514026E+03   -0.64576E-06   -0.15281E-06   194   0.620E-03
  71 F= -.12952351E+03 E0= -.12952351E+03  d E =-.534474E-03
       N       E                     dE             d eps       ncg     rms          rms(c)
DAV:   1    -0.129523787997E+03   -0.27462E-03   -0.18834E-01   328   0.224E+00    0.879E-02
DAV:   2    -0.129524094160E+03   -0.30616E-03   -0.42299E-03   396   0.291E-01    0.597E-02
DAV:   3    -0.129524084286E+03    0.98741E-05   -0.69123E-05   275   0.491E-02    0.344E-02
DAV:   4    -0.129524120717E+03   -0.36431E-04   -0.65614E-05   300   0.453E-02    0.579E-03
DAV:   5    -0.129524122790E+03   -0.20735E-05   -0.13719E-05   264   0.193E-02    0.353E-03
DAV:   6    -0.129524123943E+03   -0.11523E-05   -0.16017E-06   202   0.643E-03
  72 F= -.12952412E+03 E0= -.12952412E+03  d E =-.609917E-03
       N       E                     dE             d eps       ncg     rms          rms(c)
DAV:   1    -0.129524213769E+03   -0.90979E-04   -0.27594E-01   328   0.272E+00    0.110E-01
DAV:   2    -0.129524702375E+03   -0.48861E-03   -0.67299E-03   338   0.367E-01    0.770E-02
DAV:   3    -0.129524677413E+03    0.24962E-04   -0.15349E-04   351   0.688E-02    0.468E-02
DAV:   4    -0.129524716848E+03   -0.39435E-04   -0.12137E-04   322   0.622E-02    0.831E-03
DAV:   5    -0.129524720375E+03   -0.35269E-05   -0.26841E-05   272   0.272E-02    0.514E-03
DAV:   6    -0.129524722166E+03   -0.17914E-05   -0.36391E-06   264   0.957E-03
  73 F= -.12952472E+03 E0= -.12952472E+03  d E =-.598224E-03
       N       E                     dE             d eps       ncg     rms          rms(c)
DAV:   1    -0.129523767672E+03    0.95270E-03   -0.48047E-01   328   0.358E+00    0.161E-01
DAV:   2    -0.129524810371E+03   -0.10427E-02   -0.14088E-02   362   0.520E-01    0.109E-01
DAV:   3    -0.129524718449E+03    0.91922E-04   -0.29560E-04   414   0.933E-02    0.637E-02
DAV:   4    -0.129524742881E+03   -0.24432E-04   -0.21136E-04   313   0.782E-02    0.122E-02
DAV:   5    -0.129524748190E+03   -0.53094E-05   -0.44873E-05   368   0.322E-02    0.783E-03
DAV:   6    -0.129524749943E+03   -0.17535E-05   -0.52385E-06   208   0.117E-02
  74 F= -.12952475E+03 E0= -.12952475E+03  d E =-.277773E-04
       N       E                     dE             d eps       ncg     rms          rms(c)
DAV:   1    -0.129525605849E+03   -0.85766E-03   -0.67775E-02   375   0.128E+00    0.903E-02
DAV:   2    -0.129525808699E+03   -0.20285E-03   -0.29183E-03   363   0.228E-01    0.498E-02
DAV:   3    -0.129525784690E+03    0.24009E-04   -0.76266E-05   332   0.470E-02    0.269E-02
DAV:   4    -0.129525778384E+03    0.63060E-05   -0.60530E-05   266   0.380E-02    0.573E-03
DAV:   5    -0.129525780238E+03   -0.18545E-05   -0.12510E-05   368   0.167E-02    0.337E-03
DAV:   6    -0.129525781494E+03   -0.12554E-05   -0.19292E-06   232   0.675E-03
  75 F= -.12952578E+03 E0= -.12952578E+03  d E =-.103155E-02
       N       E                     dE             d eps       ncg     rms          rms(c)
DAV:   1    -0.129525789564E+03   -0.93259E-05   -0.22885E-05   332   0.248E-02    0.139E-03
DAV:   2    -0.129525790688E+03   -0.11239E-05   -0.12073E-06   272   0.591E-03    0.857E-04
DAV:   3    -0.129525791862E+03   -0.11744E-05   -0.19244E-07   232   0.211E-03    0.549E-04
DAV:   4    -0.129525793532E+03   -0.16694E-05   -0.78936E-08   300   0.131E-03    0.218E-04
DAV:   5    -0.129525794609E+03   -0.10772E-05   -0.28340E-08   270   0.815E-04    0.157E-04
DAV:   6    -0.129525796161E+03   -0.15520E-05   -0.46009E-08   266   0.815E-04
  76 F= -.12952580E+03 E0= -.12952580E+03  d E =-.146673E-04
       N       E                     dE             d eps       ncg     rms          rms(c)
DAV:   1    -0.129525809417E+03   -0.14808E-04   -0.86998E-05   291   0.487E-02    0.202E-03
DAV:   2    -0.129525810128E+03   -0.71097E-06   -0.42840E-06   272   0.112E-02    0.122E-03
DAV:   3    -0.129525810478E+03   -0.34979E-06   -0.45704E-07   240   0.348E-03    0.856E-04
DAV:   4    -0.129525810997E+03   -0.51919E-06   -0.83873E-08   220   0.179E-03    0.194E-04
DAV:   5    -0.129525811207E+03   -0.20968E-06    0.46605E-09   271   0.857E-04    0.146E-04
DAV:   6    -0.129525811371E+03   -0.16382E-06    0.35768E-08   200   0.448E-04
  77 F= -.12952581E+03 E0= -.12952581E+03  d E =-.152098E-04
       N       E                     dE             d eps       ncg     rms          rms(c)
DAV:   1    -0.129525829676E+03   -0.18469E-04   -0.18725E-04   342   0.704E-02    0.292E-03
DAV:   2    -0.129525830088E+03   -0.41221E-06   -0.44181E-06   254   0.105E-02    0.185E-03
DAV:   3    -0.129525830213E+03   -0.12457E-06   -0.42327E-07   220   0.370E-03    0.101E-03
DAV:   4    -0.129525830331E+03   -0.11881E-06   -0.57222E-08   230   0.187E-03    0.255E-04
DAV:   5    -0.129525830382E+03   -0.50845E-07    0.37593E-08   218   0.945E-04    0.127E-04
DAV:   6    -0.129525830412E+03   -0.29521E-07    0.63373E-08   185   0.461E-04
  78 F= -.12952583E+03 E0= -.12952583E+03  d E =-.190412E-04
       N       E                     dE             d eps       ncg     rms          rms(c)
DAV:   1    -0.129525854003E+03   -0.23621E-04   -0.31014E-04   281   0.904E-02    0.370E-03
DAV:   2    -0.129525854501E+03   -0.49758E-06   -0.68559E-06   164   0.132E-02    0.232E-03
DAV:   3    -0.129525854582E+03   -0.81424E-07   -0.67376E-07   164   0.466E-03    0.123E-03
DAV:   4    -0.129525854638E+03   -0.55381E-07   -0.10899E-07   167   0.231E-03    0.295E-04
DAV:   5    -0.129525854653E+03   -0.15362E-07    0.28701E-08   165   0.116E-03    0.144E-04
DAV:   6    -0.129525854664E+03   -0.10514E-07    0.64335E-08   164   0.567E-04
  79 F= -.12952585E+03 E0= -.12952585E+03  d E =-.242517E-04
       N       E                     dE             d eps       ncg     rms          rms(c)
DAV:   1    -0.129525884031E+03   -0.29378E-04   -0.46334E-04   260   0.110E-01    0.448E-03
DAV:   2    -0.129525884726E+03   -0.69566E-06   -0.98537E-06   164   0.159E-02    0.281E-03
DAV:   3    -0.129525884855E+03   -0.12864E-06   -0.99654E-07   164   0.562E-03    0.144E-03
DAV:   4    -0.129525884939E+03   -0.83602E-07   -0.18311E-07   164   0.276E-03    0.332E-04
DAV:   5    -0.129525884953E+03   -0.14535E-07    0.95263E-09   164   0.139E-03    0.163E-04
DAV:   6    -0.129525884962E+03   -0.84920E-08    0.59779E-08   164   0.680E-04
  80 F= -.12952588E+03 E0= -.12952588E+03  d E =-.302982E-04
       N       E                     dE             d eps       ncg     rms          rms(c)
DAV:   1    -0.129525920182E+03   -0.35229E-04   -0.65541E-04   260   0.131E-01    0.532E-03
DAV:   2    -0.129525921152E+03   -0.97032E-06   -0.13971E-05   164   0.188E-02    0.334E-03
DAV:   3    -0.129525921334E+03   -0.18234E-06   -0.14427E-06   164   0.667E-03    0.175E-03
DAV:   4    -0.129525921456E+03   -0.12142E-06   -0.29141E-07   164   0.330E-03    0.411E-04
DAV:   5    -0.129525921475E+03   -0.19038E-07   -0.20503E-08   164   0.167E-03    0.207E-04
DAV:   6    -0.129525921485E+03   -0.10016E-07    0.51651E-08   164   0.816E-04
  81 F= -.12952592E+03 E0= -.12952592E+03  d E =-.365232E-04
       N       E                     dE             d eps       ncg     rms          rms(c)
DAV:   1    -0.129525967083E+03   -0.45608E-04   -0.11118E-03   292   0.171E-01    0.690E-03
DAV:   2    -0.129525968380E+03   -0.12967E-05   -0.20303E-05   166   0.215E-02    0.444E-03
DAV:   3    -0.129525968603E+03   -0.22341E-06   -0.20202E-06   164   0.737E-03    0.227E-03
DAV:   4    -0.129525968797E+03   -0.19341E-06   -0.45943E-07   164   0.377E-03    0.526E-04
DAV:   5    -0.129525968821E+03   -0.24297E-07   -0.65764E-08   164   0.189E-03    0.240E-04
DAV:   6    -0.129525968834E+03   -0.12766E-07    0.37246E-08   164   0.910E-04
  82 F= -.12952597E+03 E0= -.12952597E+03  d E =-.473488E-04
       N       E                     dE             d eps       ncg     rms          rms(c)
DAV:   1    -0.129526026034E+03   -0.57213E-04   -0.18381E-03   292   0.219E-01    0.885E-03
DAV:   2    -0.129526028168E+03   -0.21344E-05   -0.33604E-05   200   0.276E-02    0.570E-03
DAV:   3    -0.129526028530E+03   -0.36122E-06   -0.33781E-06   164   0.945E-03    0.292E-03
DAV:   4    -0.129526028835E+03   -0.30550E-06   -0.80867E-07   180   0.483E-03    0.671E-04
DAV:   5    -0.129526028871E+03   -0.35699E-07   -0.16277E-07   164   0.242E-03    0.306E-04
DAV:   6    -0.129526028891E+03   -0.20249E-07    0.63072E-09   164   0.116E-03
  83 F= -.12952603E+03 E0= -.12952603E+03  d E =-.600573E-04
       N       E                     dE             d eps       ncg     rms          rms(c)
DAV:   1    -0.129526100231E+03   -0.71360E-04   -0.29786E-03   324   0.279E-01    0.113E-02
DAV:   2    -0.129526103803E+03   -0.35718E-05   -0.55398E-05   232   0.350E-02    0.727E-03
DAV:   3    -0.129526104234E+03   -0.43062E-06   -0.39853E-06   198   0.969E-03    0.381E-03
DAV:   4    -0.129526104742E+03   -0.50856E-06   -0.13345E-06   234   0.594E-03    0.800E-04
DAV:   5    -0.129526104799E+03   -0.56521E-07   -0.31263E-07   164   0.295E-03    0.390E-04
DAV:   6    -0.129526104831E+03   -0.32020E-07   -0.33960E-08   164   0.132E-03
  84 F= -.12952610E+03 E0= -.12952610E+03  d E =-.759397E-04
       N       E                     dE             d eps       ncg     rms          rms(c)
DAV:   1    -0.129526193225E+03   -0.88427E-04   -0.47932E-03   324   0.353E-01    0.143E-02
DAV:   2    -0.129526198969E+03   -0.57433E-05   -0.88833E-05   257   0.444E-02    0.920E-03
DAV:   3    -0.129526199654E+03   -0.68539E-06   -0.64522E-06   232   0.123E-02    0.476E-03
DAV:   4    -0.129526200431E+03   -0.77677E-06   -0.21745E-06   268   0.746E-03    0.983E-04
DAV:   5    -0.129526200530E+03   -0.99672E-07   -0.54118E-07   164   0.366E-03    0.476E-04
DAV:   6    -0.129526200584E+03   -0.53328E-07   -0.10340E-07   164   0.164E-03
  85 F= -.12952620E+03 E0= -.12952620E+03  d E =-.957531E-04
       N       E                     dE             d eps       ncg     rms          rms(c)
DAV:   1    -0.129526307877E+03   -0.10735E-03   -0.76511E-03   324   0.446E-01    0.182E-02
DAV:   2    -0.129526317061E+03   -0.91838E-05   -0.14124E-04   260   0.560E-02    0.117E-02
DAV:   3    -0.129526318101E+03   -0.10405E-05   -0.10378E-05   228   0.156E-02    0.602E-03
DAV:   4    -0.129526319260E+03   -0.11585E-05   -0.35281E-06   255   0.943E-03    0.124E-03
DAV:   5    -0.129526319417E+03   -0.15734E-06   -0.90802E-07   200   0.461E-03    0.600E-04
DAV:   6    -0.129526319505E+03   -0.87598E-07   -0.20922E-07   164   0.206E-03
  86 F= -.12952632E+03 E0= -.12952632E+03  d E =-.118921E-03
       N       E                     dE             d eps       ncg     rms          rms(c)
DAV:   1    -0.129526448222E+03   -0.12880E-03   -0.12053E-02   327   0.559E-01    0.230E-02
DAV:   2    -0.129526463962E+03   -0.15740E-04   -0.23416E-04   332   0.699E-02    0.152E-02
DAV:   3    -0.129526464115E+03   -0.15265E-06   -0.75685E-06   209   0.157E-02    0.825E-03
DAV:   4    -0.129526466004E+03   -0.18893E-05   -0.47717E-06   236   0.118E-02    0.161E-03
DAV:   5    -0.129526466156E+03   -0.15173E-06   -0.10661E-06   201   0.556E-03    0.850E-04
DAV:   6    -0.129526466270E+03   -0.11412E-06   -0.14144E-07   164   0.206E-03
  87 F= -.12952647E+03 E0= -.12952647E+03  d E =-.146765E-03
       N       E                     dE             d eps       ncg     rms          rms(c)
DAV:   1    -0.129526618983E+03   -0.15283E-03   -0.18870E-02   328   0.699E-01    0.290E-02
DAV:   2    -0.129526643785E+03   -0.24802E-04   -0.36827E-04   364   0.871E-02    0.196E-02
DAV:   3    -0.129526643486E+03    0.29900E-06   -0.81052E-06   209   0.174E-02    0.107E-02
DAV:   4    -0.129526646590E+03   -0.31037E-05   -0.76540E-06   244   0.149E-02    0.215E-03
DAV:   5    -0.129526646757E+03   -0.16753E-06   -0.17767E-06   239   0.716E-03    0.114E-03
DAV:   6    -0.129526646904E+03   -0.14666E-06   -0.25146E-07   174   0.253E-03
  88 F= -.12952665E+03 E0= -.12952665E+03  d E =-.180634E-03
       N       E                     dE             d eps       ncg     rms          rms(c)
DAV:   1    -0.129526827380E+03   -0.18062E-03   -0.29571E-02   328   0.874E-01    0.365E-02
DAV:   2    -0.129526866082E+03   -0.38702E-04   -0.57308E-04   396   0.109E-01    0.247E-02
DAV:   3    -0.129526865092E+03    0.99002E-06   -0.12107E-05   200   0.214E-02    0.134E-02
DAV:   4    -0.129526869904E+03   -0.48114E-05   -0.11966E-05   236   0.182E-02    0.264E-03
DAV:   5    -0.129526870162E+03   -0.25801E-06   -0.25640E-06   237   0.863E-03    0.140E-03
DAV:   6    -0.129526870387E+03   -0.22511E-06   -0.34206E-07   174   0.304E-03
  89 F= -.12952687E+03 E0= -.12952687E+03  d E =-.223483E-03
       N       E                     dE             d eps       ncg     rms          rms(c)
DAV:   1    -0.129527080603E+03   -0.21044E-03   -0.45796E-02   328   0.109E+00    0.454E-02
DAV:   2    -0.129527140833E+03   -0.60230E-04   -0.88432E-04   396   0.135E-01    0.306E-02
DAV:   3    -0.129527139236E+03    0.15969E-05   -0.18528E-05   208   0.264E-02    0.165E-02
DAV:   4    -0.129527146574E+03   -0.73385E-05   -0.19349E-05   268   0.224E-02    0.348E-03
DAV:   5    -0.129527146890E+03   -0.31552E-06   -0.38703E-06   228   0.107E-02    0.167E-03
DAV:   6    -0.129527147171E+03   -0.28062E-06   -0.46877E-07   165   0.356E-03
  90 F= -.12952715E+03 E0= -.12952715E+03  d E =-.276784E-03
       N       E                     dE             d eps       ncg     rms          rms(c)
DAV:   1    -0.129527385650E+03   -0.23876E-03   -0.68451E-02   328   0.133E+00    0.553E-02
DAV:   2    -0.129527477772E+03   -0.92122E-04   -0.13384E-03   396   0.166E-01    0.374E-02
DAV:   3    -0.129527475318E+03    0.24536E-05   -0.27529E-05   200   0.323E-02    0.203E-02
DAV:   4    -0.129527486186E+03   -0.10868E-04   -0.28831E-05   268   0.276E-02    0.430E-03
DAV:   5    -0.129527486645E+03   -0.45896E-06   -0.59175E-06   236   0.133E-02    0.205E-03
DAV:   6    -0.129527487048E+03   -0.40342E-06   -0.73895E-07   173   0.440E-03
  91 F= -.12952749E+03 E0= -.12952749E+03  d E =-.339878E-03
       N       E                     dE             d eps       ncg     rms          rms(c)
DAV:   1    -0.129527752332E+03   -0.26569E-03   -0.98779E-02   328   0.160E+00    0.656E-02
DAV:   2    -0.129527892136E+03   -0.13980E-03   -0.19869E-03   396   0.201E-01    0.444E-02
DAV:   3    -0.129527888413E+03    0.37233E-05   -0.38031E-05   200   0.380E-02    0.245E-02
DAV:   4    -0.129527903672E+03   -0.15259E-04   -0.40606E-05   284   0.331E-02    0.514E-03
DAV:   5    -0.129527904332E+03   -0.65999E-06   -0.85882E-06   237   0.160E-02    0.246E-03
DAV:   6    -0.129527904854E+03   -0.52216E-06   -0.10917E-06   183   0.530E-03
  92 F= -.12952790E+03 E0= -.12952790E+03  d E =-.417806E-03
       N       E                     dE             d eps       ncg     rms          rms(c)
DAV:   1    -0.129528183534E+03   -0.27920E-03   -0.13801E-01   329   0.190E+00    0.764E-02
DAV:   2    -0.129528388809E+03   -0.20527E-03   -0.28637E-03   387   0.240E-01    0.515E-02
DAV:   3    -0.129528383264E+03    0.55441E-05   -0.51944E-05   232   0.433E-02    0.285E-02
DAV:   4    -0.129528404233E+03   -0.20968E-04   -0.46362E-05   268   0.370E-02    0.503E-03
DAV:   5    -0.129528405516E+03   -0.12828E-05   -0.96383E-06   238   0.164E-02    0.288E-03
DAV:   6    -0.129528406357E+03   -0.84166E-06   -0.11593E-06   200   0.553E-03
  93 F= -.12952841E+03 E0= -.12952841E+03  d E =-.501503E-03
       N       E                     dE             d eps       ncg     rms          rms(c)
DAV:   1    -0.129528660579E+03   -0.25506E-03   -0.19266E-01   328   0.226E+00    0.896E-02
DAV:   2    -0.129528962378E+03   -0.30180E-03   -0.41512E-03   371   0.288E-01    0.613E-02
DAV:   3    -0.129528951375E+03    0.11003E-04   -0.74703E-05   274   0.518E-02    0.351E-02
DAV:   4    -0.129528980711E+03   -0.29336E-04   -0.64175E-05   268   0.450E-02    0.595E-03
DAV:   5    -0.129528982791E+03   -0.20792E-05   -0.14173E-05   272   0.198E-02    0.363E-03
DAV:   6    -0.129528983970E+03   -0.11792E-05   -0.17129E-06   204   0.670E-03
  94 F= -.12952898E+03 E0= -.12952898E+03  d E =-.577612E-03
       N       E                     dE             d eps       ncg     rms          rms(c)
DAV:   1    -0.129529056937E+03   -0.74146E-04   -0.28650E-01   329   0.276E+00    0.109E-01
DAV:   2    -0.129529540364E+03   -0.48343E-03   -0.64925E-03   378   0.361E-01    0.744E-02
DAV:   3    -0.129529515421E+03    0.24944E-04   -0.10778E-04   324   0.608E-02    0.426E-02
DAV:   4    -0.129529551370E+03   -0.35950E-04   -0.10428E-04   284   0.564E-02    0.694E-03
DAV:   5    -0.129529554354E+03   -0.29838E-05   -0.20838E-05   264   0.235E-02    0.452E-03
DAV:   6    -0.129529556081E+03   -0.17268E-05   -0.25603E-06   260   0.802E-03
  95 F= -.12952956E+03 E0= -.12952956E+03  d E =-.572111E-03
       N       E                     dE             d eps       ncg     rms          rms(c)
DAV:   1    -0.129528432926E+03    0.11214E-02   -0.46326E-01   329   0.354E+00    0.159E-01
DAV:   2    -0.129529415909E+03   -0.98298E-03   -0.13507E-02   329   0.516E-01    0.112E-01
DAV:   3    -0.129529329052E+03    0.86857E-04   -0.38737E-04   422   0.105E-01    0.686E-02
DAV:   4    -0.129529329044E+03    0.78649E-08   -0.23297E-04   328   0.838E-02    0.140E-02
DAV:   5    -0.129529334120E+03   -0.50761E-05   -0.52669E-05   336   0.364E-02    0.826E-03
DAV:   6    -0.129529336731E+03   -0.26107E-05   -0.57441E-06   262   0.129E-02
  96 F= -.12952934E+03 E0= -.12952934E+03  d E =0.219350E-03
       N       E                     dE             d eps       ncg     rms          rms(c)
DAV:   1    -0.129530222762E+03   -0.88864E-03   -0.84526E-02   331   0.145E+00    0.101E-01
DAV:   2    -0.129530492185E+03   -0.26942E-03   -0.37434E-03   369   0.263E-01    0.561E-02
DAV:   3    -0.129530456549E+03    0.35636E-04   -0.10186E-04   332   0.557E-02    0.310E-02
DAV:   4    -0.129530440742E+03    0.15807E-04   -0.78259E-05   265   0.442E-02    0.712E-03
DAV:   5    -0.129530440685E+03    0.57106E-07   -0.17859E-05   344   0.202E-02    0.388E-03
DAV:   6    -0.129530441150E+03   -0.46505E-06   -0.26886E-06   260   0.813E-03
  97 F= -.12953044E+03 E0= -.12953044E+03  d E =-.110442E-02
       N       E                     dE             d eps       ncg     rms          rms(c)
DAV:   1    -0.129530451142E+03   -0.10458E-04   -0.58177E-05   276   0.389E-02    0.243E-03
DAV:   2    -0.129530452667E+03   -0.15240E-05   -0.32779E-06   272   0.945E-03    0.136E-03
DAV:   3    -0.129530454106E+03   -0.14391E-05   -0.44485E-07   238   0.331E-03    0.883E-04
DAV:   4    -0.129530456241E+03   -0.21354E-05   -0.16383E-07   256   0.189E-03    0.343E-04
DAV:   5    -0.129530457525E+03   -0.12840E-05   -0.41298E-08   268   0.908E-04    0.200E-04
DAV:   6    -0.129530458759E+03   -0.12342E-05   -0.21474E-08   206   0.625E-04
  98 F= -.12953046E+03 E0= -.12953046E+03  d E =-.176093E-04
       N       E                     dE             d eps       ncg     rms          rms(c)
DAV:   1    -0.129530474003E+03   -0.16478E-04   -0.19991E-04   338   0.733E-02    0.379E-03
DAV:   2    -0.129530475120E+03   -0.11174E-05   -0.93101E-06   272   0.156E-02    0.246E-03
DAV:   3    -0.129530475568E+03   -0.44764E-06   -0.92454E-07   220   0.503E-03    0.163E-03
DAV:   4    -0.129530476296E+03   -0.72771E-06   -0.25218E-07   227   0.298E-03    0.459E-04
DAV:   5    -0.129530476588E+03   -0.29284E-06   -0.25035E-08   272   0.139E-03    0.249E-04
DAV:   6    -0.129530476865E+03   -0.27641E-06    0.35860E-08   200   0.744E-04
  99 F= -.12953048E+03 E0= -.12953048E+03  d E =-.181055E-04
       N       E                     dE             d eps       ncg     rms          rms(c)
DAV:   1    -0.129530491084E+03   -0.14496E-04   -0.30873E-04   359   0.914E-02    0.443E-03
DAV:   2    -0.129530491870E+03   -0.78600E-06   -0.11055E-05   226   0.162E-02    0.298E-03
DAV:   3    -0.129530491993E+03   -0.12222E-06   -0.11385E-06   264   0.558E-03    0.187E-03
DAV:   4    -0.129530492096E+03   -0.10378E-06   -0.31122E-07   208   0.331E-03    0.505E-04
DAV:   5    -0.129530492152E+03   -0.55376E-07   -0.25399E-08   264   0.165E-03    0.268E-04
DAV:   6    -0.129530492218E+03   -0.65818E-07    0.45981E-08   202   0.853E-04
 100 F= -.12953049E+03 E0= -.12953049E+03  d E =-.153529E-04
       N       E                     dE             d eps       ncg     rms          rms(c)
DAV:   1    -0.129530508003E+03   -0.15851E-04   -0.32951E-04   343   0.946E-02    0.415E-03
DAV:   2    -0.129530508528E+03   -0.52488E-06   -0.93458E-06   214   0.153E-02    0.279E-03
DAV:   3    -0.129530508571E+03   -0.43057E-07   -0.10270E-06   176   0.545E-03    0.168E-03
DAV:   4    -0.129530508569E+03    0.18208E-08   -0.25016E-07   248   0.305E-03    0.437E-04
DAV:   5    -0.129530508591E+03   -0.22208E-07   -0.16849E-08   167   0.158E-03    0.240E-04
DAV:   6    -0.129530508634E+03   -0.42519E-07    0.43308E-08   172   0.817E-04
 101 F= -.12953051E+03 E0= -.12953051E+03  d E =-.164160E-04
       N       E                     dE             d eps       ncg     rms          rms(c)
DAV:   1    -0.129530530980E+03   -0.22389E-04   -0.35266E-04   305   0.968E-02    0.409E-03
DAV:   2    -0.129530531466E+03   -0.48601E-06   -0.72590E-06   164   0.139E-02    0.257E-03
DAV:   3    -0.129530531602E+03   -0.13666E-06   -0.79218E-07   164   0.505E-03    0.131E-03
DAV:   4    -0.129530531706E+03   -0.10329E-06   -0.14670E-07   200   0.251E-03    0.323E-04
DAV:   5    -0.129530531749E+03   -0.43264E-07    0.13511E-08   164   0.132E-03    0.173E-04
DAV:   6    -0.129530531781E+03   -0.31691E-07    0.55892E-08   192   0.658E-04
 102 F= -.12953053E+03 E0= -.12953053E+03  d E =-.231471E-04
       N       E                     dE             d eps       ncg     rms          rms(c)
DAV:   1    -0.129530561551E+03   -0.29802E-04   -0.49562E-04   260   0.115E-01    0.486E-03
DAV:   2    -0.129530562347E+03   -0.79587E-06   -0.10905E-05   238   0.169E-02    0.304E-03
DAV:   3    -0.129530562480E+03   -0.13283E-06   -0.11721E-06   210   0.605E-03    0.156E-03
DAV:   4    -0.129530562547E+03   -0.67157E-07   -0.24191E-07   212   0.300E-03    0.389E-04
DAV:   5    -0.129530562566E+03   -0.18509E-07   -0.60083E-09   165   0.152E-03    0.194E-04
DAV:   6    -0.129530562576E+03   -0.10029E-07    0.53249E-08   164   0.741E-04
 103 F= -.12953056E+03 E0= -.12953056E+03  d E =-.307950E-04
       N       E                     dE             d eps       ncg     rms          rms(c)
DAV:   1    -0.129530599534E+03   -0.36968E-04   -0.89734E-04   260   0.156E-01    0.664E-03
DAV:   2    -0.129530601119E+03   -0.15846E-05   -0.22692E-05   237   0.240E-02    0.423E-03
DAV:   3    -0.129530601236E+03   -0.11755E-06   -0.24678E-06   272   0.848E-03    0.233E-03
DAV:   4    -0.129530601257E+03   -0.20582E-07   -0.60535E-07   229   0.434E-03    0.582E-04
DAV:   5    -0.129530601268E+03   -0.11672E-07   -0.10640E-07   177   0.220E-03    0.312E-04
DAV:   6    -0.129530601291E+03   -0.22802E-07    0.21250E-08   164   0.105E-03
 104 F= -.12953060E+03 E0= -.12953060E+03  d E =-.387154E-04
       N       E                     dE             d eps       ncg     rms          rms(c)
DAV:   1    -0.129530644194E+03   -0.42926E-04   -0.14063E-03   302   0.195E-01    0.834E-03
DAV:   2    -0.129530645986E+03   -0.17918E-05   -0.28574E-05   203   0.259E-02    0.528E-03
DAV:   3    -0.129530646075E+03   -0.89249E-07   -0.30601E-06   254   0.897E-03    0.267E-03
DAV:   4    -0.129530646140E+03   -0.64453E-07   -0.78512E-07   218   0.461E-03    0.653E-04
DAV:   5    -0.129530646175E+03   -0.35755E-07   -0.16130E-07   166   0.229E-03    0.306E-04
DAV:   6    -0.129530646230E+03   -0.54200E-07   -0.46121E-09   198   0.111E-03
 105 F= -.12953065E+03 E0= -.12953065E+03  d E =-.449385E-04
       N       E                     dE             d eps       ncg     rms          rms(c)
DAV:   1    -0.129530701286E+03   -0.55110E-04   -0.19836E-03   329   0.230E-01    0.955E-03
DAV:   2    -0.129530703469E+03   -0.21836E-05   -0.34432E-05   200   0.286E-02    0.601E-03
DAV:   3    -0.129530703819E+03   -0.34964E-06   -0.37013E-06   189   0.997E-03    0.285E-03
DAV:   4    -0.129530704099E+03   -0.28022E-06   -0.90609E-07   173   0.494E-03    0.672E-04
DAV:   5    -0.129530704195E+03   -0.96249E-07   -0.18145E-07   201   0.247E-03    0.282E-04
DAV:   6    -0.129530704268E+03   -0.72429E-07   -0.70523E-09   188   0.121E-03
 106 F= -.12953070E+03 E0= -.12953070E+03  d E =-.580382E-04
