 vasp.5.4.1 24Jun15 (build Jan 13 2020 12:58:22) complex                        
  
 executed on           IFC91_ompi date 2020.02.03  09:56:59
 running on   15 total cores
 each image running on    1 cores
 distrk:  each k-point on    1 cores,    1 groups
 distr:  one band on NCORES_PER_BAND=   1 cores,    1 groups


--------------------------------------------------------------------------------------------------------


 INCAR:
 POTCAR:    PAW_PBE H 15Jun2001                   
 POTCAR:    PAW_PBE C 08Apr2002                   
 POTCAR:    PAW_PBE N 08Apr2002                   
 POTCAR:    PAW_PBE O 08Apr2002                   
 POTCAR:    PAW_PBE H 15Jun2001                   
   VRHFIN =H: ultrasoft test                                                    
   LEXCH  = PE                                                                  
   EATOM  =    12.4884 eV,    0.9179 Ry                                         
                                                                                
   TITEL  = PAW_PBE H 15Jun2001                                                 
   LULTRA =        F    use ultrasoft PP ?                                      
   IUNSCR =        0    unscreen: 0-lin 1-nonlin 2-no                           
   RPACOR =    0.000    partial core radius                                     
   POMASS =    1.000; ZVAL   =    1.000    mass and valenz                      
   RCORE  =    1.100    outmost cutoff radius                                   
   RWIGS  =    0.700; RWIGS  =    0.370    wigner-seitz radius (au A)           
   ENMAX  =  250.000; ENMIN  =  200.000 eV                                      
   RCLOC  =    0.701    cutoff for local pot                                    
   LCOR   =        T    correct aug charges                                     
   LPAW   =        T    paw PP                                                  
   EAUG   =  400.000                                                            
   RMAX   =    1.123    core radius for proj-oper                               
   RAUG   =    1.200    factor for augmentation sphere                          
   RDEP   =    1.112    radius for radial grids                                 
   RDEPT  =    0.926    core radius for aug-charge                              
                                                                                
   Atomic configuration                                                         
    2 entries                                                                   
     n  l   j            E        occ.                                          
     1  0  0.50        -6.4927   1.0000                                         
     2  1  0.50        -3.4015   0.0000                                         
   Description                                                                  
     l       E           TYP  RCUT    TYP  RCUT                                 
     0     -6.4927494     23  1.100                                             
     0      6.8029130     23  1.100                                             
     1     -4.0817478     23  1.100                                             
  local pseudopotential read in
  atomic valenz-charges read in
  non local Contribution for L=           0  read in
    real space projection operators read in
  non local Contribution for L=           0  read in
    real space projection operators read in
  non local Contribution for L=           1  read in
    real space projection operators read in
    PAW grid and wavefunctions read in
 
   number of l-projection  operators is LMAX  =           3
   number of lm-projection operators is LMMAX =           5
 
 POTCAR:    PAW_PBE C 08Apr2002                   
   VRHFIN =C: s2p2                                                              
   LEXCH  = PE                                                                  
   EATOM  =   147.1560 eV,   10.8157 Ry                                         
                                                                                
   TITEL  = PAW_PBE C 08Apr2002                                                 
   LULTRA =        F    use ultrasoft PP ?                                      
   IUNSCR =        1    unscreen: 0-lin 1-nonlin 2-no                           
   RPACOR =    1.200    partial core radius                                     
   POMASS =   12.011; ZVAL   =    4.000    mass and valenz                      
   RCORE  =    1.500    outmost cutoff radius                                   
   RWIGS  =    1.630; RWIGS  =    0.863    wigner-seitz radius (au A)           
   ENMAX  =  400.000; ENMIN  =  300.000 eV                                      
   ICORE  =        2    local potential                                         
   LCOR   =        T    correct aug charges                                     
   LPAW   =        T    paw PP                                                  
   EAUG   =  644.873                                                            
   DEXC   =    0.000                                                            
   RMAX   =    1.529    core radius for proj-oper                               
   RAUG   =    1.300    factor for augmentation sphere                          
   RDEP   =    1.501    radius for radial grids                                 
   RDEPT  =    1.300    core radius for aug-charge                              
                                                                                
   Atomic configuration                                                         
    4 entries                                                                   
     n  l   j            E        occ.                                          
     1  0  0.50      -273.3789   2.0000                                         
     2  0  0.50       -13.7508   2.0000                                         
     2  1  0.50        -5.2854   2.0000                                         
     3  2  1.50        -5.4423   0.0000                                         
   Description                                                                  
     l       E           TYP  RCUT    TYP  RCUT                                 
     0    -13.7508458     23  1.200                                             
     0     -8.2022199     23  1.200                                             
     1     -5.2854383     23  1.500                                             
     1     34.0145650     23  1.500                                             
     2     -5.4423304      7  1.500                                             
  local pseudopotential read in
  partial core-charges read in
  partial kinetic energy density read in
  atomic valenz-charges read in
  non local Contribution for L=           0  read in
    real space projection operators read in
  non local Contribution for L=           0  read in
    real space projection operators read in
  non local Contribution for L=           1  read in
    real space projection operators read in
  non local Contribution for L=           1  read in
    real space projection operators read in
    PAW grid and wavefunctions read in
 
   number of l-projection  operators is LMAX  =           4
   number of lm-projection operators is LMMAX =           8
 
 POTCAR:    PAW_PBE N 08Apr2002                   
   VRHFIN =N: s2p3                                                              
   LEXCH  = PE                                                                  
   EATOM  =   264.5486 eV,   19.4438 Ry                                         
                                                                                
   TITEL  = PAW_PBE N 08Apr2002                                                 
   LULTRA =        F    use ultrasoft PP ?                                      
   IUNSCR =        1    unscreen: 0-lin 1-nonlin 2-no                           
   RPACOR =    1.200    partial core radius                                     
   POMASS =   14.001; ZVAL   =    5.000    mass and valenz                      
   RCORE  =    1.500    outmost cutoff radius                                   
   RWIGS  =    1.400; RWIGS  =    0.741    wigner-seitz radius (au A)           
   ENMAX  =  400.000; ENMIN  =  300.000 eV                                      
   ICORE  =        2    local potential                                         
   LCOR   =        T    correct aug charges                                     
   LPAW   =        T    paw PP                                                  
   EAUG   =  627.112                                                            
   DEXC   =    0.000                                                            
   RMAX   =    1.529    core radius for proj-oper                               
   RAUG   =    1.300    factor for augmentation sphere                          
   RDEP   =    1.514    radius for radial grids                                 
   RDEPT  =    1.338    core radius for aug-charge                              
                                                                                
   Atomic configuration                                                         
    4 entries                                                                   
     n  l   j            E        occ.                                          
     1  0  0.50      -384.7179   2.0000                                         
     2  0  0.50       -18.5828   2.0000                                         
     2  1  0.50        -7.0898   3.0000                                         
     3  2  1.50        -6.8029   0.0000                                         
   Description                                                                  
     l       E           TYP  RCUT    TYP  RCUT                                 
     0    -18.5828119     23  1.200                                             
     0    -13.5018863     23  1.200                                             
     1     -7.0897853     23  1.500                                             
     1      9.5240782     23  1.500                                             
     2     -6.8029130      7  1.500                                             
  local pseudopotential read in
  partial core-charges read in
  partial kinetic energy density read in
  atomic valenz-charges read in
  non local Contribution for L=           0  read in
    real space projection operators read in
  non local Contribution for L=           0  read in
    real space projection operators read in
  non local Contribution for L=           1  read in
    real space projection operators read in
  non local Contribution for L=           1  read in
    real space projection operators read in
    PAW grid and wavefunctions read in
 
   number of l-projection  operators is LMAX  =           4
   number of lm-projection operators is LMMAX =           8
 
 POTCAR:    PAW_PBE O 08Apr2002                   
   VRHFIN =O: s2p4                                                              
   LEXCH  = PE                                                                  
   EATOM  =   432.3788 eV,   31.7789 Ry                                         
                                                                                
   TITEL  = PAW_PBE O 08Apr2002                                                 
   LULTRA =        F    use ultrasoft PP ?                                      
   IUNSCR =        1    unscreen: 0-lin 1-nonlin 2-no                           
   RPACOR =    1.200    partial core radius                                     
   POMASS =   16.000; ZVAL   =    6.000    mass and valenz                      
   RCORE  =    1.520    outmost cutoff radius                                   
   RWIGS  =    1.550; RWIGS  =    0.820    wigner-seitz radius (au A)           
   ENMAX  =  400.000; ENMIN  =  300.000 eV                                      
   ICORE  =        2    local potential                                         
   LCOR   =        T    correct aug charges                                     
   LPAW   =        T    paw PP                                                  
   EAUG   =  605.392                                                            
   DEXC   =    0.000                                                            
   RMAX   =    1.553    core radius for proj-oper                               
   RAUG   =    1.300    factor for augmentation sphere                          
   RDEP   =    1.550    radius for radial grids                                 
   RDEPT  =    1.329    core radius for aug-charge                              
                                                                                
   Atomic configuration                                                         
    4 entries                                                                   
     n  l   j            E        occ.                                          
     1  0  0.50      -514.6923   2.0000                                         
     2  0  0.50       -23.9615   2.0000                                         
     2  1  0.50        -9.0305   4.0000                                         
     3  2  1.50        -9.5241   0.0000                                         
   Description                                                                  
     l       E           TYP  RCUT    TYP  RCUT                                 
     0    -23.9615318     23  1.200                                             
     0     -9.5240782     23  1.200                                             
     1     -9.0304911     23  1.520                                             
     1      8.1634956     23  1.520                                             
     2     -9.5240782      7  1.500                                             
  local pseudopotential read in
  partial core-charges read in
  partial kinetic energy density read in
  kinetic energy density of atom read in
  atomic valenz-charges read in
  non local Contribution for L=           0  read in
    real space projection operators read in
  non local Contribution for L=           0  read in
    real space projection operators read in
  non local Contribution for L=           1  read in
    real space projection operators read in
  non local Contribution for L=           1  read in
    real space projection operators read in
    PAW grid and wavefunctions read in
 
   number of l-projection  operators is LMAX  =           4
   number of lm-projection operators is LMMAX =           8
 
 Optimization of the real space projectors (new method)

 maximal supplied QI-value         = 34.20
 optimisation between [QCUT,QGAM] = [  9.92, 20.18] = [ 27.55,114.04] Ry 
 Optimized for a Real-space Cutoff    1.26 Angstroem

   l    n(q)    QCUT    max X(q) W(low)/X(q) W(high)/X(q)  e(spline) 
   0      8     9.919    19.460    0.50E-03    0.23E-03    0.29E-06
   0      8     9.919    12.209    0.48E-03    0.23E-03    0.28E-06
   1      7     9.919     4.655    0.17E-03    0.75E-03    0.30E-06
 Optimization of the real space projectors (new method)

 maximal supplied QI-value         = 25.13
 optimisation between [QCUT,QGAM] = [ 10.05, 20.36] = [ 28.30,116.06] Ry 
 Optimized for a Real-space Cutoff    1.30 Angstroem

   l    n(q)    QCUT    max X(q) W(low)/X(q) W(high)/X(q)  e(spline) 
   0      8    10.053   115.676    0.49E-03    0.72E-03    0.18E-06
   0      8    10.053    87.132    0.49E-03    0.71E-03    0.18E-06
   1      7    10.053     4.429    0.32E-03    0.31E-03    0.18E-06
   1      7    10.053     2.733    0.23E-03    0.19E-03    0.20E-06
 Optimization of the real space projectors (new method)

 maximal supplied QI-value         = 25.13
 optimisation between [QCUT,QGAM] = [ 10.05, 20.36] = [ 28.30,116.06] Ry 
 Optimized for a Real-space Cutoff    1.65 Angstroem

   l    n(q)    QCUT    max X(q) W(low)/X(q) W(high)/X(q)  e(spline) 
   0     10    10.053    79.467    0.76E-04    0.72E-04    0.56E-06
   0     10    10.053    66.151    0.76E-04    0.72E-04    0.55E-06
   1     10    10.053     8.350    0.25E-03    0.92E-03    0.41E-05
   1     10    10.053     5.531    0.27E-03    0.10E-02    0.45E-05
 Optimization of the real space projectors (new method)

 maximal supplied QI-value         = 24.76
 optimisation between [QCUT,QGAM] = [ 10.15, 20.30] = [ 28.85,115.39] Ry 
 Optimized for a Real-space Cutoff    1.38 Angstroem

   l    n(q)    QCUT    max X(q) W(low)/X(q) W(high)/X(q)  e(spline) 
   0      8    10.150    20.381    0.22E-03    0.32E-03    0.29E-06
   0      8    10.150    15.268    0.23E-03    0.35E-03    0.30E-06
   1      8    10.150     5.964    0.46E-03    0.53E-03    0.21E-06
   1      8    10.150     5.382    0.38E-03    0.45E-03    0.19E-06
  PAW_PBE H 15Jun2001                   :
 energy of atom  1       EATOM=  -12.4884
 kinetic energy error for atom=    0.0098 (will be added to EATOM!!)
  PAW_PBE C 08Apr2002                   :
 energy of atom  2       EATOM= -147.1560
 kinetic energy error for atom=    0.0288 (will be added to EATOM!!)
  PAW_PBE N 08Apr2002                   :
 energy of atom  3       EATOM= -264.5486
 kinetic energy error for atom=    0.0736 (will be added to EATOM!!)
  PAW_PBE O 08Apr2002                   :
 energy of atom  4       EATOM= -432.3788
 kinetic energy error for atom=    0.1156 (will be added to EATOM!!)
 
 
 POSCAR: H12 C6 N2 O2                            
  positions in direct lattice
  velocities in cartesian coordinates
 exchange correlation table for  LEXCH =        8
   RHO(1)=    0.500       N(1)  =     2000
   RHO(2)=  100.500       N(2)  =     4000

 VTST: version 3.2, (02/03/18)

 CHAIN: initializing optimizer
 
 OPT: Using FIRE optimizer
 OPT: FIRE, Init
 OPT: FIRE, MAXMOVE       0.20000
 OPT: FIRE, TIMESTEP      0.10000
 OPT: FIRE, FTIMEMAX      1.00000
 OPT: FIRE, FTIMEINC      1.10000
 OPT: FIRE, FTIMEDEC      0.50000
 OPT: FIRE, FALPHADEC     0.99000
 OPT: FIRE, FALPHA        0.10000
 OPT: FIRE, FNMIN         5
 
 CHAIN: Read ICHAIN            0
 CHAIN: Running the NEB
 NEB:          SPRING     -5.000000
 NEB:          LCLIMB      T
 NEB:     LTANGENTOLD      F
 NEB:           LDNEB      F
 NEB:        LDNEBORG      F
 NEB:        LNEBCELL      F
 NEB:          EFIRST      0.000000
 NEB:           ELAST      0.000000
 
 POSCAR: H12 C6 N2 O2                            
  positions in direct lattice
  No initial velocities read in
 
 POSCAR: H12 C6 N2 O2                            
  positions in direct lattice
  No initial velocities read in
 


--------------------------------------------------------------------------------------------------------


 ion  position               nearest neighbor table
   1  0.377  0.540  0.514-  13 1.09
   2  0.385  0.497  0.473-  13 1.10
   3  0.376  0.483  0.530-  13 1.10
   4  0.451  0.451  0.480-  19 1.01
   5  0.516  0.480  0.546-  15 1.10
   6  0.561  0.416  0.516-  16 1.10
   7  0.523  0.411  0.471-  16 1.10
   8  0.504  0.399  0.527-  16 1.10
   9  0.520  0.552  0.519-  20 1.02
  10  0.611  0.563  0.486-  18 1.10
  11  0.572  0.580  0.445-  18 1.10
  12  0.572  0.606  0.498-  18 1.10
  13  0.392  0.507  0.508-   1 1.09   2 1.10   3 1.10  14 1.51
  14  0.441  0.509  0.516-  21 1.24  19 1.36  13 1.51
  15  0.513  0.469  0.511-   5 1.10  19 1.46  16 1.52  17 1.56
  16  0.526  0.421  0.506-   6 1.10   7 1.10   8 1.10  15 1.52
  17  0.545  0.499  0.484-  22 1.24  20 1.36  15 1.56
  18  0.577  0.575  0.481-  12 1.10  11 1.10  10 1.10  20 1.45
  19  0.466  0.475  0.499-   4 1.01  14 1.36  15 1.46
  20  0.545  0.542  0.498-   9 1.02  17 1.36  18 1.45
  21  0.458  0.540  0.538-  14 1.24
  22  0.570  0.485  0.455-  17 1.24
 
  LATTYP: Found a simple cubic cell.
 ALAT       =    30.0000000000
  
  Lattice vectors:
  
 A1 = (  30.0000000000,   0.0000000000,   0.0000000000)
 A2 = (   0.0000000000,  30.0000000000,   0.0000000000)
 A3 = (   0.0000000000,   0.0000000000,  30.0000000000)


Analysis of symmetry for initial positions (statically):
=====================================================================
 Subroutine PRICEL returns:
 Original cell was already a primitive cell.
 

 Routine SETGRP: Setting up the symmetry group for a 
 simple cubic supercell.


 Subroutine GETGRP returns: Found  1 space group operations
 (whereof  1 operations were pure point group operations)
 out of a pool of 48 trial point group operations.


The static configuration has the point symmetry C_1 .


Analysis of symmetry for dynamics (positions and initial velocities):
=====================================================================
 Subroutine PRICEL returns:
 Original cell was already a primitive cell.
 

 Routine SETGRP: Setting up the symmetry group for a 
 simple cubic supercell.


 Subroutine GETGRP returns: Found  1 space group operations
 (whereof  1 operations were pure point group operations)
 out of a pool of 48 trial point group operations.


The dynamic configuration has the point symmetry C_1 .
 
 
 KPOINTS: Mo2C                                    

Automatic generation of k-mesh.
Space group operators:
 irot       det(A)        alpha          n_x          n_y          n_z        tau_x        tau_y        tau_z
    1     1.000000     0.000000     1.000000     0.000000     0.000000     0.000000     0.000000     0.000000
 
 Subroutine IBZKPT returns following result:
 ===========================================
 
 Found      4 irreducible k-points:
 
 Following reciprocal coordinates:
            Coordinates               Weight
  0.250000  0.250000  0.250000      2.000000
 -0.250000  0.250000  0.250000      2.000000
  0.250000 -0.250000  0.250000      2.000000
 -0.250000 -0.250000  0.250000      2.000000
 
 Following cartesian coordinates:
            Coordinates               Weight
  0.008333  0.008333  0.008333      2.000000
 -0.008333  0.008333  0.008333      2.000000
  0.008333 -0.008333  0.008333      2.000000
 -0.008333 -0.008333  0.008333      2.000000
 


--------------------------------------------------------------------------------------------------------




 Dimension of arrays:
   k-points           NKPTS =      4   k-points in BZ     NKDIM =      4   number of bands    NBANDS=     41
   number of dos      NEDOS =    301   number of ions     NIONS =     22
   non local maximal  LDIM  =      4   non local SUM 2l+1 LMDIM =      8
   total plane-waves  NPLWV = ******
   max r-space proj   IRMAX =   2395   max aug-charges    IRDMAX=   1821
   dimension x,y,z NGX =   150 NGY =  150 NGZ =  150
   dimension x,y,z NGXF=   300 NGYF=  300 NGZF=  300
   support grid    NGXF=   300 NGYF=  300 NGZF=  300
   ions per type =              12   6   2   2
 NGX,Y,Z   is equivalent  to a cutoff of   8.31,  8.31,  8.31 a.u.
 NGXF,Y,Z  is equivalent  to a cutoff of  16.62, 16.62, 16.62 a.u.


 I would recommend the setting:
   dimension x,y,z NGX =   147 NGY =  147 NGZ =  147
 SYSTEM =  unknown system                          
 POSCAR =  H12 C6 N2 O2                            

 Startparameter for this run:
   NWRITE =      2    write-flag & timer
   PREC   = normal    normal or accurate (medium, high low for compatibility)
   ISTART =      0    job   : 0-new  1-cont  2-samecut
   ICHARG =      2    charge: 1-file 2-atom 10-const
   ISPIN  =      1    spin polarized calculation?
   LNONCOLLINEAR =      F non collinear calculations
   LSORBIT =      F    spin-orbit coupling
   INIWAV =      1    electr: 0-lowe 1-rand  2-diag
   LASPH  =      F    aspherical Exc in radial PAW
   METAGGA=      F    non-selfconsistent MetaGGA calc.

 Electronic Relaxation 1
   ENCUT  =  400.0 eV  29.40 Ry    5.42 a.u.  48.92 48.92 48.92*2*pi/ulx,y,z
   ENINI  =  400.0     initial cutoff
   ENAUG  =  644.9 eV  augmentation charge cutoff
   NELM   =    500;   NELMIN=  6; NELMDL= -5     # of ELM steps 
   EDIFF  = 0.1E-03   stopping-criterion for ELM
   LREAL  =      T    real-space projection
   NLSPLINE    = F    spline interpolate recip. space projectors
   LCOMPAT=      F    compatible to vasp.4.4
   GGA_COMPAT  = T    GGA compatible to vasp.4.4-vasp.4.6
   LMAXPAW     = -100 max onsite density
   LMAXMIX     =    2 max onsite mixed and CHGCAR
   VOSKOWN=      0    Vosko Wilk Nusair interpolation
   ROPT   =   -0.00050  -0.00050  -0.00050  -0.00050
 Ionic relaxation
   EDIFFG = -.1E+00   stopping-criterion for IOM
   NSW    =    300    number of steps for IOM
   NBLOCK =      1;   KBLOCK =    300    inner block; outer block 
   IBRION =      3    ionic relax: 0-MD 1-quasi-New 2-CG
   NFREE  =      0    steps in history (QN), initial steepest desc. (CG)
   ISIF   =      2    stress and relaxation
   IWAVPR =     11    prediction:  0-non 1-charg 2-wave 3-comb
   ISYM   =      2    0-nonsym 1-usesym 2-fastsym
   LCORR  =      T    Harris-Foulkes like correction to forces

   POTIM  = 0.0000    time-step for ionic-motion
   TEIN   =    0.0    initial temperature
   TEBEG  =    0.0;   TEEND  =   0.0 temperature during run
   SMASS  =   2.00    Nose mass-parameter (am)
   estimated Nose-frequenzy (Omega)   =  0.24E+10 period in steps =  0.00 mass=   0.137E-25a.u.
   SCALEE = 1.0000    scale energy and forces
   NPACO  =    256;   APACO  = 16.0  distance and # of slots for P.C.
   PSTRESS=    0.0 pullay stress

  Mass of Ions in am
   POMASS =   1.00 12.01 14.00 16.00
  Ionic Valenz
   ZVAL   =   1.00  4.00  5.00  6.00
  Atomic Wigner-Seitz radii
   RWIGS  =  -1.00 -1.00 -1.00 -1.00
  virtual crystal weights 
   VCA    =   1.00  1.00  1.00  1.00
   NELECT =      58.0000    total number of electrons
   NUPDOWN=      -1.0000    fix difference up-down

 DOS related values:
   EMIN   =  10.00;   EMAX   =-10.00  energy-range for DOS
   EFERMI =   0.00
   ISMEAR =     0;   SIGMA  =   0.20  broadening in eV -4-tet -1-fermi 0-gaus

 Electronic relaxation 2 (details)
   IALGO  =     38    algorithm
   LDIAG  =      T    sub-space diagonalisation (order eigenvalues)
   LSUBROT=      F    optimize rotation matrix (better conditioning)
   TURBO    =      0    0=normal 1=particle mesh
   IRESTART =      0    0=no restart 2=restart with 2 vectors
   NREBOOT  =      0    no. of reboots
   NMIN     =      0    reboot dimension
   EREF     =   0.00    reference energy to select bands
   IMIX   =      4    mixing-type and parameters
     AMIX     =   0.40;   BMIX     =  1.00
     AMIX_MAG =   1.60;   BMIX_MAG =  1.00
     AMIN     =   0.10
     WC   =   100.;   INIMIX=   1;  MIXPRE=   1;  MAXMIX= -45

 Intra band minimization:
   WEIMIN = 0.0010     energy-eigenvalue tresh-hold
   EBREAK =  0.61E-06  absolut break condition
   DEPER  =   0.30     relativ break condition  

   TIME   =   0.40     timestep for ELM

  volume/ion in A,a.u.               =    1227.27      8282.05
  Fermi-wavevector in a.u.,A,eV,Ry     =   0.211234  0.399174  0.607087  0.044620
  Thomas-Fermi vector in A             =   0.980021
 
 Write flags
   LWAVE  =      F    write WAVECAR
   LCHARG =      F    write CHGCAR
   LVTOT  =      F    write LOCPOT, total local potential
   LVHAR  =      F    write LOCPOT, Hartree potential only
   LELF   =      F    write electronic localiz. function (ELF)
   LORBIT =      0    0 simple, 1 ext, 2 COOP (PROOUT)


 Dipole corrections
   LMONO  =      F    monopole corrections only (constant potential shift)
   LDIPOL =      F    correct potential (dipole corrections)
   IDIPOL =      0    1-x, 2-y, 3-z, 4-all directions 
   EPSILON=  1.0000000 bulk dielectric constant

 Exchange correlation treatment:
   GGA     =    PE    GGA type
   LEXCH   =     8    internal setting for exchange type
   VOSKOWN=      0    Vosko Wilk Nusair interpolation
   LHFCALC =     F    Hartree Fock is set to
   LHFONE  =     F    Hartree Fock one center treatment
   AEXX    =    0.0000 exact exchange contribution

 Linear response parameters
   LEPSILON=     F    determine dielectric tensor
   LRPA    =     F    only Hartree local field effects (RPA)
   LNABLA  =     F    use nabla operator in PAW spheres
   LVEL    =     F    velocity operator in full k-point grid
   LINTERFAST=   F  fast interpolation
   KINTER  =     0    interpolate to denser k-point grid
   CSHIFT  =0.1000    complex shift for real part using Kramers Kronig
   OMEGAMAX=  -1.0    maximum frequency
   DEG_THRESHOLD= 0.2000000E-02 threshold for treating states as degnerate
   RTIME   =    0.100 relaxation time in fs

 Orbital magnetization related:
   ORBITALMAG=     F  switch on orbital magnetization
   LCHIMAG   =     F  perturbation theory with respect to B field
   DQ        =  0.001000  dq finite difference perturbation B field



--------------------------------------------------------------------------------------------------------


 quickmin algorithm: (dynamic with friction)
 charge density and potential will be updated during run
 non-spin polarized calculation
 Variant of blocked Davidson
 Davidson routine will perform the subspace rotation
 perform sub-space diagonalisation
    after iterative eigenvector-optimisation
 modified Broyden-mixing scheme, WC =      100.0
 initial mixing is a Kerker type mixing with AMIX =  0.4000 and BMIX =      1.0000
 Hartree-type preconditioning will be used
 using additional bands           12
 real space projection scheme for non local part
 use partial core corrections
 calculate Harris-corrections to forces 
   (improved forces if not selfconsistent)
 use gradient corrections 
 use of overlap-Matrix (Vanderbilt PP)
 Gauss-broadening in eV      SIGMA  =   0.20


--------------------------------------------------------------------------------------------------------


  energy-cutoff  :      400.00
  volume of cell :    27000.00
      direct lattice vectors                 reciprocal lattice vectors
    30.000000000  0.000000000  0.000000000     0.033333333  0.000000000  0.000000000
     0.000000000 30.000000000  0.000000000     0.000000000  0.033333333  0.000000000
     0.000000000  0.000000000 30.000000000     0.000000000  0.000000000  0.033333333

  length of vectors
    30.000000000 30.000000000 30.000000000     0.033333333  0.033333333  0.033333333


 
 k-points in units of 2pi/SCALE and weight: Mo2C                                    
   0.00833333  0.00833333  0.00833333       0.250
  -0.00833333  0.00833333  0.00833333       0.250
   0.00833333 -0.00833333  0.00833333       0.250
  -0.00833333 -0.00833333  0.00833333       0.250
 
 k-points in reciprocal lattice and weights: Mo2C                                    
   0.25000000  0.25000000  0.25000000       0.250
  -0.25000000  0.25000000  0.25000000       0.250
   0.25000000 -0.25000000  0.25000000       0.250
  -0.25000000 -0.25000000  0.25000000       0.250
 
 position of ions in fractional coordinates (direct lattice) 
   0.37690244  0.53997351  0.51357948
   0.38458683  0.49658378  0.47313083
   0.37581580  0.48292896  0.53023830
   0.45130340  0.45144428  0.48041726
   0.51574731  0.47986431  0.54624661
   0.56062110  0.41587248  0.51565327
   0.52285504  0.41051076  0.47090094
   0.50423161  0.39934403  0.52674638
   0.51976545  0.55159974  0.51859028
   0.61107262  0.56320283  0.48586392
   0.57202118  0.58007203  0.44452545
   0.57187608  0.60632259  0.49821144
   0.39155959  0.50710297  0.50751573
   0.44117283  0.50943943  0.51618624
   0.51291914  0.46917890  0.51121500
   0.52568639  0.42056220  0.50599031
   0.54531096  0.49929995  0.48408564
   0.57664208  0.57471057  0.48050576
   0.46601751  0.47532696  0.49932418
   0.54533342  0.54232519  0.49793287
   0.45839659  0.53978999  0.53839923
   0.57016116  0.48454258  0.45473829
 
 position of ions in cartesian coordinates  (Angst):
  11.30707315 16.19920535 15.40738443
  11.53760477 14.89751338 14.19392483
  11.27447407 14.48786873 15.90714906
  13.53910205 13.54332850 14.41251776
  15.47241933 14.39592935 16.38739830
  16.81863304 12.47617451 15.46959801
  15.68565117 12.31532277 14.12702812
  15.12694836 11.98032089 15.80239139
  15.59296358 16.54799225 15.55770843
  18.33217867 16.89608477 14.57591764
  17.16063549 17.40216098 13.33576345
  17.15628247 18.18967767 14.94634328
  11.74678773 15.21308907 15.22547181
  13.23518486 15.28318276 15.48558722
  15.38757434 14.07536701 15.33644995
  15.77059179 12.61686610 15.17970929
  16.35932868 14.97899836 14.52256915
  17.29926232 17.24131720 14.41517268
  13.98052529 14.25980883 14.97972553
  16.36000251 16.26975570 14.93798625
  13.75189767 16.19369966 16.15197701
  17.10483486 14.53627745 13.64214859
 


--------------------------------------------------------------------------------------------------------


 k-point  1 :   0.2500 0.2500 0.2500  plane waves:  490454
 k-point  2 :  -0.2500 0.2500 0.2500  plane waves:  490454
 k-point  3 :   0.2500-0.2500 0.2500  plane waves:  490454
 k-point  4 :  -0.2500-0.2500 0.2500  plane waves:  490454

 maximum and minimum number of plane-waves per node :    490454   490454

 maximum number of plane-waves:    490454
 maximum index in each direction: 
   IXMAX=   49   IYMAX=   49   IZMAX=   48
   IXMIN=  -49   IYMIN=  -49   IZMIN=  -49

 WARNING: aliasing errors must be expected set NGX to 198 to avoid them
 WARNING: aliasing errors must be expected set NGY to 198 to avoid them
 WARNING: aliasing errors must be expected set NGZ to 196 to avoid them
 aliasing errors are usually negligible using standard VASP settings
 and one can safely disregard these warnings

 serial   3D FFT for wavefunctions
 parallel 3D FFT for charge:
    minimum data exchange during FFTs selected (reduces bandwidth)


 total amount of memory used by VASP on root node  4333713. kBytes
========================================================================

   base      :      30000. kBytes
   nonlr-proj:       2408. kBytes
   fftplans  :     924480. kBytes
   grid      :    2089440. kBytes
   one-center:         67. kBytes
   wavefun   :    1287318. kBytes
 
     INWAV:  cpu time    0.0010: real time    0.0003
 Broyden mixing: mesh for mixing (old mesh)
   NGX = 97   NGY = 97   NGZ = 97
  (NGX  =300   NGY  =300   NGZ  =300)
  gives a total of 912673 points

 initial charge density was supplied:
 charge density of overlapping atoms calculated
 number of electron      58.0000000 magnetization 
 keeping initial charge density in first step


--------------------------------------------------------------------------------------------------------


 Maximum index for non-local projection operator         2286
 Maximum index for augmentation-charges         1583 (set IRDMAX)


--------------------------------------------------------------------------------------------------------


 First call to EWALD:  gamma=   0.059
 Maximum number of real-space cells 3x 3x 3
 Maximum number of reciprocal cells 3x 3x 3

 FEWALD executed in parallel
    FEWALD:  cpu time    0.0050: real time    0.0049


----------------------------------------- Iteration    1(   1)  ---------------------------------------


    POTLOK:  cpu time   25.9281: real time   25.9080
    SETDIJ:  cpu time    0.0300: real time    0.0294
     EDDAV:  cpu time  303.7038: real time  303.4559
       DOS:  cpu time    0.0010: real time    0.0009
    --------------------------------------------
      LOOP:  cpu time  329.6659: real time  329.3989

 eigenvalue-minimisations  :   392
 total energy-change (2. order) : 0.6103553E+03  (-0.7971866E+03)
 number of electron      58.0000000 magnetization 
 augmentation part       58.0000000 magnetization 

 Free energy of the ion-electron system (eV)
  ---------------------------------------------------
  alpha Z        PSCENC =         0.51957394
  Ewald energy   TEWEN  =      6070.58563740
  -Hartree energ DENC   =     -7811.84903530
  -exchange      EXHF   =         0.00000000
  -V(xc)+E(xc)   XCENC  =       202.11895308
  PAW double counting   =      1779.70502452    -1789.20730229
  entropy T*S    EENTRO =        -0.80307165
  eigenvalues    EBANDS =      -266.69785627
  atomic energy  EATOM  =      2425.98333211
  Solvation  Ediel_sol  =         0.00000000
  ---------------------------------------------------
  free energy    TOTEN  =       610.35525553 eV

  energy without entropy =      611.15832718  energy(sigma->0) =      610.75679136


--------------------------------------------------------------------------------------------------------




----------------------------------------- Iteration    1(   2)  ---------------------------------------


     EDDAV:  cpu time  413.9881: real time  413.6514
       DOS:  cpu time    0.0000: real time    0.0007
    --------------------------------------------
      LOOP:  cpu time  413.9901: real time  413.6554

 eigenvalue-minimisations  :   564
 total energy-change (2. order) :-0.3302820E+03  (-0.3193334E+03)
 number of electron      58.0000000 magnetization 
 augmentation part       58.0000000 magnetization 

 Free energy of the ion-electron system (eV)
  ---------------------------------------------------
  alpha Z        PSCENC =         0.51957394
  Ewald energy   TEWEN  =      6070.58563740
  -Hartree energ DENC   =     -7811.84903530
  -exchange      EXHF   =         0.00000000
  -V(xc)+E(xc)   XCENC  =       202.11895308
  PAW double counting   =      1779.70502452    -1789.20730229
  entropy T*S    EENTRO =        -0.47390430
  eigenvalues    EBANDS =      -597.30897675
  atomic energy  EATOM  =      2425.98333211
  Solvation  Ediel_sol  =         0.00000000
  ---------------------------------------------------
  free energy    TOTEN  =       280.07330240 eV

  energy without entropy =      280.54720670  energy(sigma->0) =      280.31025455


--------------------------------------------------------------------------------------------------------




----------------------------------------- Iteration    1(   3)  ---------------------------------------


     EDDAV:  cpu time  369.4238: real time  369.1226
       DOS:  cpu time    0.0000: real time    0.0006
    --------------------------------------------
      LOOP:  cpu time  369.4248: real time  369.1266

 eigenvalue-minimisations  :   495
 total energy-change (2. order) :-0.3240383E+03  (-0.3145788E+03)
 number of electron      58.0000000 magnetization 
 augmentation part       58.0000000 magnetization 

 Free energy of the ion-electron system (eV)
  ---------------------------------------------------
  alpha Z        PSCENC =         0.51957394
  Ewald energy   TEWEN  =      6070.58563740
  -Hartree energ DENC   =     -7811.84903530
  -exchange      EXHF   =         0.00000000
  -V(xc)+E(xc)   XCENC  =       202.11895308
  PAW double counting   =      1779.70502452    -1789.20730229
  entropy T*S    EENTRO =        -0.00000158
  eigenvalues    EBANDS =      -921.82117989
  atomic energy  EATOM  =      2425.98333211
  Solvation  Ediel_sol  =         0.00000000
  ---------------------------------------------------
  free energy    TOTEN  =       -43.96499801 eV

  energy without entropy =      -43.96499643  energy(sigma->0) =      -43.96499722


--------------------------------------------------------------------------------------------------------




----------------------------------------- Iteration    1(   4)  ---------------------------------------


     EDDAV:  cpu time  306.1255: real time  305.8757
       DOS:  cpu time    0.0000: real time    0.0005
    --------------------------------------------
      LOOP:  cpu time  306.1265: real time  305.8796

 eigenvalue-minimisations  :   396
 total energy-change (2. order) :-0.9274814E+02  (-0.9260770E+02)
 number of electron      58.0000000 magnetization 
 augmentation part       58.0000000 magnetization 

 Free energy of the ion-electron system (eV)
  ---------------------------------------------------
  alpha Z        PSCENC =         0.51957394
  Ewald energy   TEWEN  =      6070.58563740
  -Hartree energ DENC   =     -7811.84903530
  -exchange      EXHF   =         0.00000000
  -V(xc)+E(xc)   XCENC  =       202.11895308
  PAW double counting   =      1779.70502452    -1789.20730229
  entropy T*S    EENTRO =         0.00000000
  eigenvalues    EBANDS =     -1014.56931792
  atomic energy  EATOM  =      2425.98333211
  Solvation  Ediel_sol  =         0.00000000
  ---------------------------------------------------
  free energy    TOTEN  =      -136.71313446 eV

  energy without entropy =     -136.71313446  energy(sigma->0) =     -136.71313446


--------------------------------------------------------------------------------------------------------




----------------------------------------- Iteration    1(   5)  ---------------------------------------


     EDDAV:  cpu time  319.4414: real time  319.1810
       DOS:  cpu time    0.0000: real time    0.0005
    CHARGE:  cpu time   19.8130: real time   19.7967
    MIXING:  cpu time    0.6059: real time    0.6066
    --------------------------------------------
      LOOP:  cpu time  339.8623: real time  339.5880

 eigenvalue-minimisations  :   416
 total energy-change (2. order) :-0.5212837E+01  (-0.5192631E+01)
 number of electron      57.9999945 magnetization 
 augmentation part        2.9744120 magnetization 

 Broyden mixing:
  rms(total) = 0.19583E+01    rms(broyden)= 0.19561E+01
  rms(prec ) = 0.20335E+01
  weight for this iteration     100.00

 Free energy of the ion-electron system (eV)
  ---------------------------------------------------
  alpha Z        PSCENC =         0.51957394
  Ewald energy   TEWEN  =      6070.58563740
  -Hartree energ DENC   =     -7811.84903530
  -exchange      EXHF   =         0.00000000
  -V(xc)+E(xc)   XCENC  =       202.11895308
  PAW double counting   =      1779.70502452    -1789.20730229
  entropy T*S    EENTRO =         0.00000000
  eigenvalues    EBANDS =     -1019.78215496
  atomic energy  EATOM  =      2425.98333211
  Solvation  Ediel_sol  =         0.00000000
  ---------------------------------------------------
  free energy    TOTEN  =      -141.92597150 eV

  energy without entropy =     -141.92597150  energy(sigma->0) =     -141.92597150


--------------------------------------------------------------------------------------------------------




----------------------------------------- Iteration    1(   6)  ---------------------------------------


    POTLOK:  cpu time   22.2216: real time   22.2039
    SETDIJ:  cpu time    0.0290: real time    0.0289
     EDDAV:  cpu time  290.7968: real time  290.5584
       DOS:  cpu time    0.0000: real time    0.0005
    CHARGE:  cpu time   17.3764: real time   17.3621
    MIXING:  cpu time    0.6459: real time    0.6459
    --------------------------------------------
      LOOP:  cpu time  331.0727: real time  330.8038

 eigenvalue-minimisations  :   399
 total energy-change (2. order) : 0.1012428E+02  (-0.2381598E+01)
 number of electron      57.9999958 magnetization 
 augmentation part        2.6351498 magnetization 

 Broyden mixing:
  rms(total) = 0.10014E+01    rms(broyden)= 0.10010E+01
  rms(prec ) = 0.10297E+01
  weight for this iteration     100.00

 eigenvalues of (default mixing * dielectric matrix)
  average eigenvalue GAMMA=   1.2773
  1.2773

 Free energy of the ion-electron system (eV)
  ---------------------------------------------------
  alpha Z        PSCENC =         0.51957394
  Ewald energy   TEWEN  =      6070.58563740
  -Hartree energ DENC   =     -7927.43857417
  -exchange      EXHF   =         0.00000000
  -V(xc)+E(xc)   XCENC  =       208.20467627
  PAW double counting   =      2781.07028671    -2791.94118504
  entropy T*S    EENTRO =         0.00000000
  eigenvalues    EBANDS =      -898.78543841
  atomic energy  EATOM  =      2425.98333211
  Solvation  Ediel_sol  =         0.00000000
  ---------------------------------------------------
  free energy    TOTEN  =      -131.80169120 eV

  energy without entropy =     -131.80169120  energy(sigma->0) =     -131.80169120


--------------------------------------------------------------------------------------------------------




----------------------------------------- Iteration    1(   7)  ---------------------------------------


    POTLOK:  cpu time   19.1761: real time   19.1605
    SETDIJ:  cpu time    0.0290: real time    0.0285
     EDDAV:  cpu time  295.4461: real time  295.2051
       DOS:  cpu time    0.0000: real time    0.0005
    CHARGE:  cpu time   20.5679: real time   20.5509
    MIXING:  cpu time    0.7649: real time    0.7646
    --------------------------------------------
      LOOP:  cpu time  335.9859: real time  335.7141

 eigenvalue-minimisations  :   400
 total energy-change (2. order) : 0.1774331E+01  (-0.4491377E+00)
 number of electron      57.9999958 magnetization 
 augmentation part        2.6241709 magnetization 

 Broyden mixing:
  rms(total) = 0.51608E+00    rms(broyden)= 0.51596E+00
  rms(prec ) = 0.52870E+00
  weight for this iteration     100.00

 eigenvalues of (default mixing * dielectric matrix)
  average eigenvalue GAMMA=   1.5634
  1.0960  2.0308

 Free energy of the ion-electron system (eV)
  ---------------------------------------------------
  alpha Z        PSCENC =         0.51957394
  Ewald energy   TEWEN  =      6070.58563740
  -Hartree energ DENC   =     -7990.01194991
  -exchange      EXHF   =         0.00000000
  -V(xc)+E(xc)   XCENC  =       211.23400252
  PAW double counting   =      3758.68542596    -3769.82973207
  entropy T*S    EENTRO =         0.00000000
  eigenvalues    EBANDS =      -837.19365003
  atomic energy  EATOM  =      2425.98333211
  Solvation  Ediel_sol  =         0.00000000
  ---------------------------------------------------
  free energy    TOTEN  =      -130.02736008 eV

  energy without entropy =     -130.02736008  energy(sigma->0) =     -130.02736008


--------------------------------------------------------------------------------------------------------




----------------------------------------- Iteration    1(   8)  ---------------------------------------


    POTLOK:  cpu time   22.5706: real time   22.5527
    SETDIJ:  cpu time    0.0300: real time    0.0297
     EDDAV:  cpu time  332.2755: real time  332.0039
       DOS:  cpu time    0.0000: real time    0.0005
    CHARGE:  cpu time   18.4172: real time   18.4019
    MIXING:  cpu time    0.7599: real time    0.7585
    --------------------------------------------
      LOOP:  cpu time  374.0541: real time  373.7513

 eigenvalue-minimisations  :   448
 total energy-change (2. order) : 0.4832964E+00  (-0.8890061E-01)
 number of electron      57.9999958 magnetization 
 augmentation part        2.5940641 magnetization 

 Broyden mixing:
  rms(total) = 0.15621E+00    rms(broyden)= 0.15615E+00
  rms(prec ) = 0.16367E+00
  weight for this iteration     100.00

 eigenvalues of (default mixing * dielectric matrix)
  average eigenvalue GAMMA=   1.5471
  2.3859  0.9426  1.3128

 Free energy of the ion-electron system (eV)
  ---------------------------------------------------
  alpha Z        PSCENC =         0.51957394
  Ewald energy   TEWEN  =      6070.58563740
  -Hartree energ DENC   =     -8031.03719131
  -exchange      EXHF   =         0.00000000
  -V(xc)+E(xc)   XCENC  =       213.36575392
  PAW double counting   =      4586.26299579    -4597.59312186
  entropy T*S    EENTRO =         0.00000000
  eigenvalues    EBANDS =      -797.63104365
  atomic energy  EATOM  =      2425.98333211
  Solvation  Ediel_sol  =         0.00000000
  ---------------------------------------------------
  free energy    TOTEN  =      -129.54406366 eV

  energy without entropy =     -129.54406366  energy(sigma->0) =     -129.54406366


--------------------------------------------------------------------------------------------------------




----------------------------------------- Iteration    1(   9)  ---------------------------------------


    POTLOK:  cpu time   21.4107: real time   21.3924
    SETDIJ:  cpu time    0.0290: real time    0.0293
     EDDAV:  cpu time  332.4235: real time  332.1522
       DOS:  cpu time    0.0000: real time    0.0005
    CHARGE:  cpu time   20.5679: real time   20.5507
    MIXING:  cpu time    0.8229: real time    0.8233
    --------------------------------------------
      LOOP:  cpu time  375.2550: real time  374.9526

 eigenvalue-minimisations  :   464
 total energy-change (2. order) : 0.6817371E-01  (-0.1026258E-01)
 number of electron      57.9999958 magnetization 
 augmentation part        2.5862356 magnetization 

 Broyden mixing:
  rms(total) = 0.56448E-01    rms(broyden)= 0.56421E-01
  rms(prec ) = 0.64840E-01
  weight for this iteration     100.00

 eigenvalues of (default mixing * dielectric matrix)
  average eigenvalue GAMMA=   1.5155
  2.2165  1.0528  1.0528  1.7398

 Free energy of the ion-electron system (eV)
  ---------------------------------------------------
  alpha Z        PSCENC =         0.51957394
  Ewald energy   TEWEN  =      6070.58563740
  -Hartree energ DENC   =     -8044.62064986
  -exchange      EXHF   =         0.00000000
  -V(xc)+E(xc)   XCENC  =       213.91599730
  PAW double counting   =      4823.87750512    -4835.17253700
  entropy T*S    EENTRO =         0.00000000
  eigenvalues    EBANDS =      -784.56474896
  atomic energy  EATOM  =      2425.98333211
  Solvation  Ediel_sol  =         0.00000000
  ---------------------------------------------------
  free energy    TOTEN  =      -129.47588995 eV

  energy without entropy =     -129.47588995  energy(sigma->0) =     -129.47588995


--------------------------------------------------------------------------------------------------------




----------------------------------------- Iteration    1(  10)  ---------------------------------------


    POTLOK:  cpu time   22.3866: real time   22.3698
    SETDIJ:  cpu time    0.0290: real time    0.0292
     EDDAV:  cpu time  320.7162: real time  320.4533
       DOS:  cpu time    0.0000: real time    0.0006
    CHARGE:  cpu time   17.9583: real time   17.9429
    MIXING:  cpu time    0.9179: real time    0.9173
    --------------------------------------------
      LOOP:  cpu time  362.0100: real time  361.7169

 eigenvalue-minimisations  :   432
 total energy-change (2. order) : 0.1031555E-01  (-0.2508164E-02)
 number of electron      57.9999957 magnetization 
 augmentation part        2.5931148 magnetization 

 Broyden mixing:
  rms(total) = 0.25856E-01    rms(broyden)= 0.25834E-01
  rms(prec ) = 0.35654E-01
  weight for this iteration     100.00

 eigenvalues of (default mixing * dielectric matrix)
  average eigenvalue GAMMA=   1.4885
  2.1772  2.1772  0.9536  0.9536  1.1809

 Free energy of the ion-electron system (eV)
  ---------------------------------------------------
  alpha Z        PSCENC =         0.51957394
  Ewald energy   TEWEN  =      6070.58563740
  -Hartree energ DENC   =     -8049.63392784
  -exchange      EXHF   =         0.00000000
  -V(xc)+E(xc)   XCENC  =       213.92922091
  PAW double counting   =      4816.80182430    -4828.04841070
  entropy T*S    EENTRO =         0.00000000
  eigenvalues    EBANDS =      -779.60282451
  atomic energy  EATOM  =      2425.98333211
  Solvation  Ediel_sol  =         0.00000000
  ---------------------------------------------------
  free energy    TOTEN  =      -129.46557440 eV

  energy without entropy =     -129.46557440  energy(sigma->0) =     -129.46557440


--------------------------------------------------------------------------------------------------------




----------------------------------------- Iteration    1(  11)  ---------------------------------------


    POTLOK:  cpu time   21.2528: real time   21.2359
    SETDIJ:  cpu time    0.0300: real time    0.0293
     EDDAV:  cpu time  321.6401: real time  321.3778
       DOS:  cpu time    0.0000: real time    0.0005
    CHARGE:  cpu time   21.5657: real time   21.5484
    MIXING:  cpu time    0.9709: real time    0.9704
    --------------------------------------------
      LOOP:  cpu time  365.4614: real time  365.1662

 eigenvalue-minimisations  :   448
 total energy-change (2. order) : 0.4876743E-02  (-0.7876371E-03)
 number of electron      57.9999958 magnetization 
 augmentation part        2.5888766 magnetization 

 Broyden mixing:
  rms(total) = 0.15921E-01    rms(broyden)= 0.15916E-01
  rms(prec ) = 0.24565E-01
  weight for this iteration     100.00

 eigenvalues of (default mixing * dielectric matrix)
  average eigenvalue GAMMA=   1.5481
  2.4709  2.4709  0.9460  0.9460  1.2273  1.2273

 Free energy of the ion-electron system (eV)
  ---------------------------------------------------
  alpha Z        PSCENC =         0.51957394
  Ewald energy   TEWEN  =      6070.58563740
  -Hartree energ DENC   =     -8055.50155531
  -exchange      EXHF   =         0.00000000
  -V(xc)+E(xc)   XCENC  =       214.03304055
  PAW double counting   =      4818.95261743    -4830.19732420
  entropy T*S    EENTRO =         0.00000000
  eigenvalues    EBANDS =      -773.83601957
  atomic energy  EATOM  =      2425.98333211
  Solvation  Ediel_sol  =         0.00000000
  ---------------------------------------------------
  free energy    TOTEN  =      -129.46069765 eV

  energy without entropy =     -129.46069765  energy(sigma->0) =     -129.46069765


--------------------------------------------------------------------------------------------------------




----------------------------------------- Iteration    1(  12)  ---------------------------------------


    POTLOK:  cpu time   22.4146: real time   22.3963
    SETDIJ:  cpu time    0.0290: real time    0.0290
     EDDAV:  cpu time  291.9136: real time  291.6756
       DOS:  cpu time    0.0000: real time    0.0005
    CHARGE:  cpu time   18.4922: real time   18.4769
    MIXING:  cpu time    0.9499: real time    0.9493
    --------------------------------------------
      LOOP:  cpu time  333.8013: real time  333.5317

 eigenvalue-minimisations  :   383
 total energy-change (2. order) :-0.1228597E-02  (-0.5877010E-03)
 number of electron      57.9999958 magnetization 
 augmentation part        2.5881126 magnetization 

 Broyden mixing:
  rms(total) = 0.97603E-02    rms(broyden)= 0.97562E-02
  rms(prec ) = 0.15746E-01
  weight for this iteration     100.00

 eigenvalues of (default mixing * dielectric matrix)
  average eigenvalue GAMMA=   1.6126
  2.7443  2.7443  1.3909  1.2366  1.2366  0.9679  0.9679

 Free energy of the ion-electron system (eV)
  ---------------------------------------------------
  alpha Z        PSCENC =         0.51957394
  Ewald energy   TEWEN  =      6070.58563740
  -Hartree energ DENC   =     -8062.32357636
  -exchange      EXHF   =         0.00000000
  -V(xc)+E(xc)   XCENC  =       214.12300088
  PAW double counting   =      4814.63929569    -4825.87445034
  entropy T*S    EENTRO =         0.00000000
  eigenvalues    EBANDS =      -767.11473957
  atomic energy  EATOM  =      2425.98333211
  Solvation  Ediel_sol  =         0.00000000
  ---------------------------------------------------
  free energy    TOTEN  =      -129.46192625 eV

  energy without entropy =     -129.46192625  energy(sigma->0) =     -129.46192625


--------------------------------------------------------------------------------------------------------




----------------------------------------- Iteration    1(  13)  ---------------------------------------


    POTLOK:  cpu time   21.0978: real time   21.0811
    SETDIJ:  cpu time    0.0290: real time    0.0285
     EDDAV:  cpu time  302.4350: real time  302.1874
       DOS:  cpu time    0.0000: real time    0.0005
    CHARGE:  cpu time   18.3732: real time   18.3576
    MIXING:  cpu time    1.0888: real time    1.0882
    --------------------------------------------
      LOOP:  cpu time  343.0249: real time  342.7469

 eigenvalue-minimisations  :   424
 total energy-change (2. order) :-0.6500052E-02  (-0.4523631E-03)
 number of electron      57.9999958 magnetization 
 augmentation part        2.5868033 magnetization 

 Broyden mixing:
  rms(total) = 0.57118E-02    rms(broyden)= 0.57065E-02
  rms(prec ) = 0.92552E-02
  weight for this iteration     100.00

 eigenvalues of (default mixing * dielectric matrix)
  average eigenvalue GAMMA=   1.7123
  4.1110  2.4965  1.5950  1.4832  0.9993  0.9993  0.9500  1.0644

 Free energy of the ion-electron system (eV)
  ---------------------------------------------------
  alpha Z        PSCENC =         0.51957394
  Ewald energy   TEWEN  =      6070.58563740
  -Hartree energ DENC   =     -8068.10585509
  -exchange      EXHF   =         0.00000000
  -V(xc)+E(xc)   XCENC  =       214.18968303
  PAW double counting   =      4808.38886715    -4819.62366668
  entropy T*S    EENTRO =         0.00000000
  eigenvalues    EBANDS =      -761.40599815
  atomic energy  EATOM  =      2425.98333211
  Solvation  Ediel_sol  =         0.00000000
  ---------------------------------------------------
  free energy    TOTEN  =      -129.46842630 eV

  energy without entropy =     -129.46842630  energy(sigma->0) =     -129.46842630


--------------------------------------------------------------------------------------------------------




----------------------------------------- Iteration    1(  14)  ---------------------------------------


    POTLOK:  cpu time   21.7657: real time   21.7486
    SETDIJ:  cpu time    0.0310: real time    0.0313
     EDDAV:  cpu time  320.0413: real time  319.7800
       DOS:  cpu time    0.0000: real time    0.0005
    CHARGE:  cpu time   18.8661: real time   18.8505
    MIXING:  cpu time    1.1928: real time    1.1920
    --------------------------------------------
      LOOP:  cpu time  361.8990: real time  361.6068

 eigenvalue-minimisations  :   432
 total energy-change (2. order) :-0.6256355E-02  (-0.1606590E-03)
 number of electron      57.9999958 magnetization 
 augmentation part        2.5862405 magnetization 

 Broyden mixing:
  rms(total) = 0.37816E-02    rms(broyden)= 0.37789E-02
  rms(prec ) = 0.57873E-02
  weight for this iteration     100.00

 eigenvalues of (default mixing * dielectric matrix)
  average eigenvalue GAMMA=   1.8228
  5.0203  2.4578  2.1389  1.3233  1.3233  1.1499  1.0457  0.9733  0.9733

 Free energy of the ion-electron system (eV)
  ---------------------------------------------------
  alpha Z        PSCENC =         0.51957394
  Ewald energy   TEWEN  =      6070.58563740
  -Hartree energ DENC   =     -8071.47399497
  -exchange      EXHF   =         0.00000000
  -V(xc)+E(xc)   XCENC  =       214.21229470
  PAW double counting   =      4803.19955234    -4814.43171859
  entropy T*S    EENTRO =         0.00000000
  eigenvalues    EBANDS =      -758.06935959
  atomic energy  EATOM  =      2425.98333211
  Solvation  Ediel_sol  =         0.00000000
  ---------------------------------------------------
  free energy    TOTEN  =      -129.47468266 eV

  energy without entropy =     -129.47468266  energy(sigma->0) =     -129.47468266


--------------------------------------------------------------------------------------------------------




----------------------------------------- Iteration    1(  15)  ---------------------------------------


    POTLOK:  cpu time   21.0548: real time   21.0379
    SETDIJ:  cpu time    0.0290: real time    0.0291
     EDDAV:  cpu time  280.6553: real time  280.4257
       DOS:  cpu time    0.0000: real time    0.0005
    CHARGE:  cpu time   18.8611: real time   18.8463
    MIXING:  cpu time    1.2288: real time    1.2281
    --------------------------------------------
      LOOP:  cpu time  321.8311: real time  321.5717

 eigenvalue-minimisations  :   398
 total energy-change (2. order) :-0.7764609E-02  (-0.7590563E-04)
 number of electron      57.9999958 magnetization 
 augmentation part        2.5860715 magnetization 

 Broyden mixing:
  rms(total) = 0.22668E-02    rms(broyden)= 0.22659E-02
  rms(prec ) = 0.34278E-02
  weight for this iteration     100.00

 eigenvalues of (default mixing * dielectric matrix)
  average eigenvalue GAMMA=   1.9240
  5.7118  2.8731  2.4018  1.7789  1.2507  1.0670  1.0670  1.0786  1.0057  1.0057

 Free energy of the ion-electron system (eV)
  ---------------------------------------------------
  alpha Z        PSCENC =         0.51957394
  Ewald energy   TEWEN  =      6070.58563740
  -Hartree energ DENC   =     -8073.20917776
  -exchange      EXHF   =         0.00000000
  -V(xc)+E(xc)   XCENC  =       214.21241009
  PAW double counting   =      4802.10414003    -4813.33472538
  entropy T*S    EENTRO =         0.00000000
  eigenvalues    EBANDS =      -756.34363770
  atomic energy  EATOM  =      2425.98333211
  Solvation  Ediel_sol  =         0.00000000
  ---------------------------------------------------
  free energy    TOTEN  =      -129.48244727 eV

  energy without entropy =     -129.48244727  energy(sigma->0) =     -129.48244727


--------------------------------------------------------------------------------------------------------




----------------------------------------- Iteration    1(  16)  ---------------------------------------


    POTLOK:  cpu time   24.2423: real time   24.2241
    SETDIJ:  cpu time    0.0290: real time    0.0290
     EDDAV:  cpu time  259.3076: real time  259.0955
       DOS:  cpu time    0.0000: real time    0.0005
    CHARGE:  cpu time   20.0050: real time   19.9890
    MIXING:  cpu time    1.3378: real time    1.3364
    --------------------------------------------
      LOOP:  cpu time  304.9246: real time  304.6783

 eigenvalue-minimisations  :   334
 total energy-change (2. order) :-0.5965675E-02  (-0.4817891E-04)
 number of electron      57.9999958 magnetization 
 augmentation part        2.5861646 magnetization 

 Broyden mixing:
  rms(total) = 0.13350E-02    rms(broyden)= 0.13346E-02
  rms(prec ) = 0.19738E-02
  weight for this iteration     100.00

 eigenvalues of (default mixing * dielectric matrix)
  average eigenvalue GAMMA=   1.9851
  6.4219  3.2390  2.3155  1.9198  1.4122  1.4122  1.0939  1.0251  1.0251  0.9856
  0.9856

 Free energy of the ion-electron system (eV)
  ---------------------------------------------------
  alpha Z        PSCENC =         0.51957394
  Ewald energy   TEWEN  =      6070.58563740
  -Hartree energ DENC   =     -8073.89325890
  -exchange      EXHF   =         0.00000000
  -V(xc)+E(xc)   XCENC  =       214.20305789
  PAW double counting   =      4802.50679238    -4813.73659013
  entropy T*S    EENTRO =         0.00000000
  eigenvalues    EBANDS =      -755.65695763
  atomic energy  EATOM  =      2425.98333211
  Solvation  Ediel_sol  =         0.00000000
  ---------------------------------------------------
  free energy    TOTEN  =      -129.48841294 eV

  energy without entropy =     -129.48841294  energy(sigma->0) =     -129.48841294


--------------------------------------------------------------------------------------------------------




----------------------------------------- Iteration    1(  17)  ---------------------------------------


    POTLOK:  cpu time   21.7767: real time   21.7590
    SETDIJ:  cpu time    0.0290: real time    0.0285
     EDDAV:  cpu time  249.7820: real time  249.5778
       DOS:  cpu time    0.0010: real time    0.0005
    CHARGE:  cpu time   17.0984: real time   17.0845
    MIXING:  cpu time    1.1698: real time    1.1691
    --------------------------------------------
      LOOP:  cpu time  289.8579: real time  290.0529

 eigenvalue-minimisations  :   334
 total energy-change (2. order) :-0.2925703E-02  (-0.1624810E-04)
 number of electron      57.9999958 magnetization 
 augmentation part        2.5860396 magnetization 

 Broyden mixing:
  rms(total) = 0.78821E-03    rms(broyden)= 0.78779E-03
  rms(prec ) = 0.11611E-02
  weight for this iteration     100.00

 eigenvalues of (default mixing * dielectric matrix)
  average eigenvalue GAMMA=   2.0481
  7.1966  3.6884  2.3458  2.3458  1.5021  1.5021  1.0524  1.0524  1.0195  1.0195
  0.9262  0.9262

 Free energy of the ion-electron system (eV)
  ---------------------------------------------------
  alpha Z        PSCENC =         0.51957394
  Ewald energy   TEWEN  =      6070.58563740
  -Hartree energ DENC   =     -8074.26728033
  -exchange      EXHF   =         0.00000000
  -V(xc)+E(xc)   XCENC  =       214.19936195
  PAW double counting   =      4802.43560626    -4813.66566112
  entropy T*S    EENTRO =         0.00000000
  eigenvalues    EBANDS =      -755.28190885
  atomic energy  EATOM  =      2425.98333211
  Solvation  Ediel_sol  =         0.00000000
  ---------------------------------------------------
  free energy    TOTEN  =      -129.49133864 eV

  energy without entropy =     -129.49133864  energy(sigma->0) =     -129.49133864


--------------------------------------------------------------------------------------------------------




----------------------------------------- Iteration    1(  18)  ---------------------------------------


    POTLOK:  cpu time   19.1041: real time   19.0888
    SETDIJ:  cpu time    0.0290: real time    0.0288
     EDDAV:  cpu time  238.0088: real time  237.8154
       DOS:  cpu time    0.0000: real time    0.0005
    CHARGE:  cpu time   19.9040: real time   19.8876
    MIXING:  cpu time    1.5038: real time    1.5017
    --------------------------------------------
      LOOP:  cpu time  278.5517: real time  278.3263

 eigenvalue-minimisations  :   300
 total energy-change (2. order) :-0.1445479E-02  (-0.9966610E-05)
 number of electron      57.9999958 magnetization 
 augmentation part        2.5859964 magnetization 

 Broyden mixing:
  rms(total) = 0.53404E-03    rms(broyden)= 0.53385E-03
  rms(prec ) = 0.75447E-03
  weight for this iteration     100.00

 eigenvalues of (default mixing * dielectric matrix)
  average eigenvalue GAMMA=   2.0924
  7.6165  4.2439  2.3868  2.3868  1.6447  1.4488  1.4488  1.0429  1.0429  0.9630
  0.9630  1.0064  1.0064

 Free energy of the ion-electron system (eV)
  ---------------------------------------------------
  alpha Z        PSCENC =         0.51957394
  Ewald energy   TEWEN  =      6070.58563740
  -Hartree energ DENC   =     -8074.41055836
  -exchange      EXHF   =         0.00000000
  -V(xc)+E(xc)   XCENC  =       214.19688264
  PAW double counting   =      4802.71146100    -4813.94138925
  entropy T*S    EENTRO =         0.00000000
  eigenvalues    EBANDS =      -755.13772361
  atomic energy  EATOM  =      2425.98333211
  Solvation  Ediel_sol  =         0.00000000
  ---------------------------------------------------
  free energy    TOTEN  =      -129.49278412 eV

  energy without entropy =     -129.49278412  energy(sigma->0) =     -129.49278412


--------------------------------------------------------------------------------------------------------




----------------------------------------- Iteration    1(  19)  ---------------------------------------


    POTLOK:  cpu time   21.5357: real time   21.5186
    SETDIJ:  cpu time    0.0280: real time    0.0285
     EDDAV:  cpu time  239.3566: real time  239.1611
       DOS:  cpu time    0.0000: real time    0.0005
    CHARGE:  cpu time   18.7521: real time   18.7370
    MIXING:  cpu time    1.5168: real time    1.5146
    --------------------------------------------
      LOOP:  cpu time  281.1903: real time  280.9653

 eigenvalue-minimisations  :   302
 total energy-change (2. order) :-0.8668419E-03  (-0.4540141E-05)
 number of electron      57.9999958 magnetization 
 augmentation part        2.5859905 magnetization 

 Broyden mixing:
  rms(total) = 0.32354E-03    rms(broyden)= 0.32336E-03
  rms(prec ) = 0.45230E-03
  weight for this iteration     100.00

 eigenvalues of (default mixing * dielectric matrix)
  average eigenvalue GAMMA=   2.1488
  8.1134  4.8067  2.6492  2.6492  1.7102  1.5629  1.5629  0.9617  1.0618  1.0618
  0.9894  0.9894  0.9819  0.9819

 Free energy of the ion-electron system (eV)
  ---------------------------------------------------
  alpha Z        PSCENC =         0.51957394
  Ewald energy   TEWEN  =      6070.58563740
  -Hartree energ DENC   =     -8074.46531958
  -exchange      EXHF   =         0.00000000
  -V(xc)+E(xc)   XCENC  =       214.19574365
  PAW double counting   =      4802.92201237    -4814.15190197
  entropy T*S    EENTRO =         0.00000000
  eigenvalues    EBANDS =      -755.08272889
  atomic energy  EATOM  =      2425.98333211
  Solvation  Ediel_sol  =         0.00000000
  ---------------------------------------------------
  free energy    TOTEN  =      -129.49365097 eV

  energy without entropy =     -129.49365097  energy(sigma->0) =     -129.49365097


--------------------------------------------------------------------------------------------------------




----------------------------------------- Iteration    1(  20)  ---------------------------------------


    POTLOK:  cpu time   20.5289: real time   20.5132
    SETDIJ:  cpu time    0.0290: real time    0.0294
     EDDAV:  cpu time  237.0700: real time  236.8751
       DOS:  cpu time    0.0000: real time    0.0005
    CHARGE:  cpu time   17.7923: real time   17.7780
    MIXING:  cpu time    1.5568: real time    1.5546
    --------------------------------------------
      LOOP:  cpu time  276.9789: real time  276.7551

 eigenvalue-minimisations  :   320
 total energy-change (2. order) :-0.4422662E-03  (-0.2093009E-05)
 number of electron      57.9999958 magnetization 
 augmentation part        2.5859863 magnetization 

 Broyden mixing:
  rms(total) = 0.23710E-03    rms(broyden)= 0.23705E-03
  rms(prec ) = 0.30110E-03
  weight for this iteration     100.00

 eigenvalues of (default mixing * dielectric matrix)
  average eigenvalue GAMMA=   2.1522
  8.2696  5.2206  2.7462  2.4888  2.2110  1.5656  1.2858  1.2858  1.0004  0.9818
  0.9818  1.0812  1.0812  1.0413  1.0413

 Free energy of the ion-electron system (eV)
  ---------------------------------------------------
  alpha Z        PSCENC =         0.51957394
  Ewald energy   TEWEN  =      6070.58563740
  -Hartree energ DENC   =     -8074.49192773
  -exchange      EXHF   =         0.00000000
  -V(xc)+E(xc)   XCENC  =       214.19476248
  PAW double counting   =      4802.59495974    -4813.82480385
  entropy T*S    EENTRO =         0.00000000
  eigenvalues    EBANDS =      -755.05562732
  atomic energy  EATOM  =      2425.98333211
  Solvation  Ediel_sol  =         0.00000000
  ---------------------------------------------------
  free energy    TOTEN  =      -129.49409323 eV

  energy without entropy =     -129.49409323  energy(sigma->0) =     -129.49409323


--------------------------------------------------------------------------------------------------------




----------------------------------------- Iteration    1(  21)  ---------------------------------------


    POTLOK:  cpu time   20.9218: real time   20.9051
    SETDIJ:  cpu time    0.0290: real time    0.0287
     EDDAV:  cpu time  267.2584: real time  267.0408
       DOS:  cpu time    0.0000: real time    0.0005
    CHARGE:  cpu time   19.7060: real time   19.6898
    MIXING:  cpu time    1.9817: real time    1.9802
    --------------------------------------------
      LOOP:  cpu time  309.8989: real time  309.6499

 eigenvalue-minimisations  :   350
 total energy-change (2. order) :-0.1790610E-03  (-0.7361096E-06)
 number of electron      57.9999958 magnetization 
 augmentation part        2.5859706 magnetization 

 Broyden mixing:
  rms(total) = 0.11816E-03    rms(broyden)= 0.11811E-03
  rms(prec ) = 0.16730E-03
  weight for this iteration     100.00

 eigenvalues of (default mixing * dielectric matrix)
  average eigenvalue GAMMA=   2.2177
  8.5043  5.7928  3.4216  2.6280  2.3270  1.5875  1.5875  1.1881  1.1881  1.2641
  1.0229  1.0229  1.0928  0.9326  0.9617  0.9617

 Free energy of the ion-electron system (eV)
  ---------------------------------------------------
  alpha Z        PSCENC =         0.51957394
  Ewald energy   TEWEN  =      6070.58563740
  -Hartree energ DENC   =     -8074.50200350
  -exchange      EXHF   =         0.00000000
  -V(xc)+E(xc)   XCENC  =       214.19461030
  PAW double counting   =      4802.68845133    -4813.91836334
  entropy T*S    EENTRO =         0.00000000
  eigenvalues    EBANDS =      -755.04551053
  atomic energy  EATOM  =      2425.98333211
  Solvation  Ediel_sol  =         0.00000000
  ---------------------------------------------------
  free energy    TOTEN  =      -129.49427229 eV

  energy without entropy =     -129.49427229  energy(sigma->0) =     -129.49427229


--------------------------------------------------------------------------------------------------------




----------------------------------------- Iteration    1(  22)  ---------------------------------------


    POTLOK:  cpu time   22.2006: real time   22.1832
    SETDIJ:  cpu time    0.0290: real time    0.0288
     EDDAV:  cpu time  223.4250: real time  223.2424
       DOS:  cpu time    0.0000: real time    0.0005
    CHARGE:  cpu time   18.4412: real time   18.4261
    MIXING:  cpu time    1.5968: real time    1.5944
    --------------------------------------------
      LOOP:  cpu time  265.6936: real time  265.4798

 eigenvalue-minimisations  :   280
 total energy-change (2. order) :-0.1411223E-03  (-0.4127376E-06)
 number of electron      57.9999958 magnetization 
 augmentation part        2.5859760 magnetization 

 Broyden mixing:
  rms(total) = 0.10903E-03    rms(broyden)= 0.10900E-03
  rms(prec ) = 0.12638E-03
  weight for this iteration     100.00

 eigenvalues of (default mixing * dielectric matrix)
  average eigenvalue GAMMA=   2.2124
  8.5997  6.1223  3.7041  2.4674  2.2909  2.1575  1.2778  1.2778  1.4690  1.0376
  1.0376  1.1583  1.0945  1.0945  0.9563  0.9563  0.9086

 Free energy of the ion-electron system (eV)
  ---------------------------------------------------
  alpha Z        PSCENC =         0.51957394
  Ewald energy   TEWEN  =      6070.58563740
  -Hartree energ DENC   =     -8074.51859159
  -exchange      EXHF   =         0.00000000
  -V(xc)+E(xc)   XCENC  =       214.19433505
  PAW double counting   =      4802.56729322    -4813.79718463
  entropy T*S    EENTRO =         0.00000000
  eigenvalues    EBANDS =      -755.02880892
  atomic energy  EATOM  =      2425.98333211
  Solvation  Ediel_sol  =         0.00000000
  ---------------------------------------------------
  free energy    TOTEN  =      -129.49441341 eV

  energy without entropy =     -129.49441341  energy(sigma->0) =     -129.49441341


--------------------------------------------------------------------------------------------------------




----------------------------------------- Iteration    1(  23)  ---------------------------------------


    POTLOK:  cpu time   19.4080: real time   19.3930
    SETDIJ:  cpu time    0.0280: real time    0.0285
     EDDAV:  cpu time  258.5657: real time  258.3534
       DOS:  cpu time    0.0010: real time    0.0005
    --------------------------------------------
      LOOP:  cpu time  278.0037: real time  277.7790

 eigenvalue-minimisations  :   360
 total energy-change (2. order) :-0.3659085E-04  (-0.1020224E-06)
 number of electron      57.9999958 magnetization 
 augmentation part        2.5859760 magnetization 

 Free energy of the ion-electron system (eV)
  ---------------------------------------------------
  alpha Z        PSCENC =         0.51957394
  Ewald energy   TEWEN  =      6070.58563740
  -Hartree energ DENC   =     -8074.52504185
  -exchange      EXHF   =         0.00000000
  -V(xc)+E(xc)   XCENC  =       214.19430240
  PAW double counting   =      4802.59289903    -4813.82275909
  entropy T*S    EENTRO =         0.00000000
  eigenvalues    EBANDS =      -755.02239395
  atomic energy  EATOM  =      2425.98333211
  Solvation  Ediel_sol  =         0.00000000
  ---------------------------------------------------
  free energy    TOTEN  =      -129.49445001 eV

  energy without entropy =     -129.49445001  energy(sigma->0) =     -129.49445001


--------------------------------------------------------------------------------------------------------




 average (electrostatic) potential at core
  the test charge radii are     0.5201  0.6991  0.7089  0.7215
  (the norm of the test charge is              1.0000)
       1 -42.2930       2 -42.5427       3 -42.5189       4 -44.7444       5 -42.2270
       6 -41.8925       7 -41.8515       8 -41.9960       9 -43.5246      10 -41.7913
      11 -41.7630      12 -42.0911      13 -59.0540      14 -61.3999      15 -59.8728
      16 -58.6071      17 -60.7480      18 -59.1713      19 -74.6857      20 -73.9611
      21 -79.9221      22 -79.3558
 
 
 
 E-fermi :  -4.5065     XC(G=0):  -0.1534     alpha+bet : -0.0465


 k-point     1 :       0.2500    0.2500    0.2500
  band No.  band energies     occupation 
      1     -26.2029      2.00000
      2     -25.5827      2.00000
      3     -23.3911      2.00000
      4     -22.7165      2.00000
      5     -19.5562      2.00000
      6     -18.2331      2.00000
      7     -17.5511      2.00000
      8     -15.7254      2.00000
      9     -14.9376      2.00000
     10     -14.0295      2.00000
     11     -13.1049      2.00000
     12     -12.2452      2.00000
     13     -12.0180      2.00000
     14     -11.3454      2.00000
     15     -11.1065      2.00000
     16     -10.7159      2.00000
     17     -10.2519      2.00000
     18     -10.1073      2.00000
     19      -9.9461      2.00000
     20      -9.4941      2.00000
     21      -9.3868      2.00000
     22      -9.1599      2.00000
     23      -9.0712      2.00000
     24      -8.7972      2.00000
     25      -8.5393      2.00000
     26      -6.8027      2.00000
     27      -6.1881      2.00000
     28      -5.8522      2.00000
     29      -5.4526      2.00000
     30      -1.0442      0.00000
     31      -0.8851      0.00000
     32      -0.5223      0.00000
     33      -0.3335      0.00000
     34      -0.1851      0.00000
     35      -0.0630      0.00000
     36       0.0164      0.00000
     37       0.0998      0.00000
     38       0.1069      0.00000
     39       0.1094      0.00000
     40       0.1559      0.00000
     41       0.1740      0.00000

 k-point     2 :      -0.2500    0.2500    0.2500
  band No.  band energies     occupation 
      1     -26.2029      2.00000
      2     -25.5826      2.00000
      3     -23.3911      2.00000
      4     -22.7165      2.00000
      5     -19.5562      2.00000
      6     -18.2331      2.00000
      7     -17.5511      2.00000
      8     -15.7254      2.00000
      9     -14.9376      2.00000
     10     -14.0295      2.00000
     11     -13.1049      2.00000
     12     -12.2452      2.00000
     13     -12.0180      2.00000
     14     -11.3454      2.00000
     15     -11.1065      2.00000
     16     -10.7159      2.00000
     17     -10.2519      2.00000
     18     -10.1073      2.00000
     19      -9.9461      2.00000
     20      -9.4940      2.00000
     21      -9.3868      2.00000
     22      -9.1599      2.00000
     23      -9.0712      2.00000
     24      -8.7971      2.00000
     25      -8.5393      2.00000
     26      -6.8027      2.00000
     27      -6.1881      2.00000
     28      -5.8523      2.00000
     29      -5.4526      2.00000
     30      -1.0442      0.00000
     31      -0.8851      0.00000
     32      -0.5223      0.00000
     33      -0.3335      0.00000
     34      -0.1852      0.00000
     35      -0.0638      0.00000
     36       0.0217      0.00000
     37       0.0871      0.00000
     38       0.1021      0.00000
     39       0.1169      0.00000
     40       0.1632      0.00000
     41       0.1737      0.00000

 k-point     3 :       0.2500   -0.2500    0.2500
  band No.  band energies     occupation 
      1     -26.2029      2.00000
      2     -25.5827      2.00000
      3     -23.3911      2.00000
      4     -22.7165      2.00000
      5     -19.5562      2.00000
      6     -18.2330      2.00000
      7     -17.5511      2.00000
      8     -15.7254      2.00000
      9     -14.9376      2.00000
[...]
 augmentation part        2.5822406 magnetization 

 Free energy of the ion-electron system (eV)
  ---------------------------------------------------
  alpha Z        PSCENC =         0.51957394
  Ewald energy   TEWEN  =      6064.05259696
  -Hartree energ DENC   =     -8067.72672040
  -exchange      EXHF   =         0.00000000
  -V(xc)+E(xc)   XCENC  =       214.08991911
  PAW double counting   =      4788.47720061    -4799.69526426
  entropy T*S    EENTRO =         0.00000000
  eigenvalues    EBANDS =      -755.23134235
  atomic energy  EATOM  =      2425.98333211
  Solvation  Ediel_sol  =         0.00000000
  ---------------------------------------------------
  free energy    TOTEN  =      -129.53070427 eV

  energy without entropy =     -129.53070427  energy(sigma->0) =     -129.53070427


--------------------------------------------------------------------------------------------------------




 average (electrostatic) potential at core
  the test charge radii are     0.5201  0.6991  0.7089  0.7215
  (the norm of the test charge is              1.0000)
       1 -42.2935       2 -42.5363       3 -42.5080       4 -44.7238       5 -42.2655
       6 -41.8969       7 -41.8570       8 -41.9934       9 -43.5796      10 -41.7928
      11 -41.7812      12 -42.1031      13 -59.0583      14 -61.3968      15 -59.9169
      16 -58.6292      17 -60.7789      18 -59.1908      19 -74.7071      20 -74.0173
      21 -79.8795      22 -79.3633
 
 
 
 E-fermi :  -4.4759     XC(G=0):  -0.1335     alpha+bet : -0.0465


 k-point     1 :       0.2500    0.2500    0.2500
  band No.  band energies     occupation 
      1     -26.1390      2.00000
      2     -25.5899      2.00000
      3     -23.3963      2.00000
      4     -22.7318      2.00000
      5     -19.5604      2.00000
      6     -18.2167      2.00000
      7     -17.5576      2.00000
      8     -15.7691      2.00000
      9     -14.9213      2.00000
     10     -14.0725      2.00000
     11     -13.1245      2.00000
     12     -12.2571      2.00000
     13     -12.0053      2.00000
     14     -11.3438      2.00000
     15     -11.0931      2.00000
     16     -10.7230      2.00000
     17     -10.2260      2.00000
     18     -10.1119      2.00000
     19      -9.9252      2.00000
     20      -9.5421      2.00000
     21      -9.3917      2.00000
     22      -9.1502      2.00000
     23      -9.0780      2.00000
     24      -8.8153      2.00000
     25      -8.5514      2.00000
     26      -6.7863      2.00000
     27      -6.1691      2.00000
     28      -5.8912      2.00000
     29      -5.4757      2.00000
     30      -1.0571      0.00000
     31      -0.8807      0.00000
     32      -0.5015      0.00000
     33      -0.3293      0.00000
     34      -0.1977      0.00000
     35      -0.0747      0.00000
     36       0.0395      0.00000
     37       0.1227      0.00000
     38       0.1285      0.00000
     39       0.1310      0.00000
     40       0.1742      0.00000
     41       0.1926      0.00000

 k-point     2 :      -0.2500    0.2500    0.2500
  band No.  band energies     occupation 
      1     -26.1390      2.00000
      2     -25.5899      2.00000
      3     -23.3963      2.00000
      4     -22.7318      2.00000
      5     -19.5604      2.00000
      6     -18.2167      2.00000
      7     -17.5576      2.00000
      8     -15.7692      2.00000
      9     -14.9213      2.00000
     10     -14.0725      2.00000
     11     -13.1245      2.00000
     12     -12.2571      2.00000
     13     -12.0053      2.00000
     14     -11.3438      2.00000
     15     -11.0931      2.00000
     16     -10.7230      2.00000
     17     -10.2260      2.00000
     18     -10.1119      2.00000
     19      -9.9252      2.00000
     20      -9.5421      2.00000
     21      -9.3917      2.00000
     22      -9.1502      2.00000
     23      -9.0780      2.00000
     24      -8.8153      2.00000
     25      -8.5514      2.00000
     26      -6.7863      2.00000
     27      -6.1691      2.00000
     28      -5.8912      2.00000
     29      -5.4757      2.00000
     30      -1.0571      0.00000
     31      -0.8807      0.00000
     32      -0.5015      0.00000
     33      -0.3293      0.00000
     34      -0.1978      0.00000
     35      -0.0751      0.00000
     36       0.0442      0.00000
     37       0.1089      0.00000
     38       0.1223      0.00000
     39       0.1407      0.00000
     40       0.1833      0.00000
     41       0.1940      0.00000

 k-point     3 :       0.2500   -0.2500    0.2500
  band No.  band energies     occupation 
      1     -26.1390      2.00000
      2     -25.5899      2.00000
      3     -23.3963      2.00000
      4     -22.7318      2.00000
      5     -19.5604      2.00000
      6     -18.2167      2.00000
      7     -17.5576      2.00000
      8     -15.7691      2.00000
      9     -14.9213      2.00000
     10     -14.0725      2.00000
     11     -13.1245      2.00000
     12     -12.2571      2.00000
     13     -12.0053      2.00000
     14     -11.3438      2.00000
     15     -11.0931      2.00000
     16     -10.7230      2.00000
     17     -10.2260      2.00000
     18     -10.1119      2.00000
     19      -9.9252      2.00000
     20      -9.5421      2.00000
     21      -9.3917      2.00000
     22      -9.1502      2.00000
     23      -9.0780      2.00000
     24      -8.8153      2.00000
     25      -8.5514      2.00000
     26      -6.7864      2.00000
     27      -6.1691      2.00000
     28      -5.8912      2.00000
     29      -5.4757      2.00000
     30      -1.0571      0.00000
     31      -0.8807      0.00000
     32      -0.5015      0.00000
     33      -0.3293      0.00000
     34      -0.1978      0.00000
     35      -0.0747      0.00000
     36       0.0431      0.00000
     37       0.1050      0.00000
     38       0.1315      0.00000
     39       0.1373      0.00000
     40       0.1823      0.00000
     41       0.1932      0.00000

 k-point     4 :      -0.2500   -0.2500    0.2500
  band No.  band energies     occupation 
      1     -26.1390      2.00000
      2     -25.5899      2.00000
      3     -23.3963      2.00000
      4     -22.7318      2.00000
      5     -19.5604      2.00000
      6     -18.2167      2.00000
      7     -17.5576      2.00000
      8     -15.7691      2.00000
      9     -14.9213      2.00000
     10     -14.0725      2.00000
     11     -13.1245      2.00000
     12     -12.2571      2.00000
     13     -12.0053      2.00000
     14     -11.3438      2.00000
     15     -11.0931      2.00000
     16     -10.7230      2.00000
     17     -10.2260      2.00000
     18     -10.1119      2.00000
     19      -9.9252      2.00000
     20      -9.5421      2.00000
     21      -9.3917      2.00000
     22      -9.1502      2.00000
     23      -9.0780      2.00000
     24      -8.8153      2.00000
     25      -8.5514      2.00000
     26      -6.7863      2.00000
     27      -6.1691      2.00000
     28      -5.8912      2.00000
     29      -5.4757      2.00000
     30      -1.0571      0.00000
     31      -0.8807      0.00000
     32      -0.5015      0.00000
     33      -0.3293      0.00000
     34      -0.1977      0.00000
     35      -0.0754      0.00000
     36       0.0475      0.00000
     37       0.1070      0.00000
     38       0.1267      0.00000
     39       0.1326      0.00000
     40       0.1748      0.00000
     41       0.1978      0.00000


--------------------------------------------------------------------------------------------------------


 soft charge-density along one line, spin component           1
         0         1         2         3         4         5         6         7         8         9
 total charge-density along one line
 
 pseudopotential strength for first ion, spin component:           1
 -2.352  -4.055   0.002   0.000  -0.001
 -4.055  -6.904   0.005   0.001  -0.002
  0.002   0.005  -0.332   0.001  -0.002
  0.000   0.001   0.001  -0.336   0.000
 -0.001  -0.002  -0.002   0.000  -0.336
 total augmentation occupancy for first ion, spin component:           1
  3.529  -0.635  -0.404  -0.053   0.172
 -0.635   0.129   0.074   0.010  -0.031
 -0.404   0.074   0.048   0.005  -0.017
 -0.053   0.010   0.005   0.009  -0.003
  0.172  -0.031  -0.017  -0.003   0.015


------------------------ aborting loop because EDIFF is reached ----------------------------------------


    CHARGE:  cpu time   16.8614: real time   16.8478
    FORLOC:  cpu time    5.8071: real time    5.8024
    FORNL :  cpu time   61.5256: real time   61.4751
    STRESS:  cpu time  186.2787: real time  186.1235
    FORCOR:  cpu time   23.7184: real time   23.6998
    FORHAR:  cpu time   10.5094: real time   10.5005
    MIXING:  cpu time    0.7779: real time    0.7765
    OFIELD:  cpu time    0.0000: real time    0.0000

  FORCE on cell =-STRESS in cart. coord.  units (eV):
  Direction    XX          YY          ZZ          XY          YZ          ZX
  --------------------------------------------------------------------------------------
  Alpha Z     0.51957     0.51957     0.51957
  Ewald    2907.71243  2454.46742   701.87151    90.51971   373.76637  -736.60504
  Hartree  3470.72609  2985.72702  1611.27386    79.35240   179.55703  -600.54520
  E(xc)    -230.13076  -229.88734  -231.09404    -0.02017     1.12129    -0.63255
  Local   -6989.14075 -6042.91141 -2922.92764  -170.94854  -518.44690  1326.74120
  n-local  -132.50022  -133.22827  -134.33215     0.32461    -2.28003     1.14367
  augment    14.76867    14.70429    13.89424    -0.07988    -0.92683     0.05661
  Kinetic   954.15906   947.08588   957.15059     0.69857   -32.57099     9.79076
  Fock        0.00000     0.00000     0.00000     0.00000     0.00000     0.00000
  -------------------------------------------------------------------------------------
  Total      -3.88591    -3.52283    -3.64405    -0.15330     0.21994    -0.05055
  in kB      -0.23059    -0.20904    -0.21624    -0.00910     0.01305    -0.00300
  external pressure =       -0.22 kB  Pullay stress =        0.00 kB


 VOLUME and BASIS-vectors are now :
 -----------------------------------------------------------------------------
  energy-cutoff  :      400.00
  volume of cell :    27000.00
      direct lattice vectors                 reciprocal lattice vectors
    30.000000000  0.000000000  0.000000000     0.033333333  0.000000000  0.000000000
     0.000000000 30.000000000  0.000000000     0.000000000  0.033333333  0.000000000
     0.000000000  0.000000000 30.000000000     0.000000000  0.000000000  0.033333333

  length of vectors
    30.000000000 30.000000000 30.000000000     0.033333333  0.033333333  0.033333333


 FORCES acting on ions
    electron-ion (+dipol)            ewald-force                    non-local-force                 convergence-correction
 -----------------------------------------------------------------------------------------------
   0.611E+02 -.609E+02 -.262E+01   -.633E+02 0.660E+02 0.329E+01   0.221E+01 -.516E+01 -.682E+00   -.591E-05 -.277E-06 -.262E-04
   0.500E+02 0.172E+02 0.650E+02   -.511E+02 -.190E+02 -.701E+02   0.109E+01 0.174E+01 0.510E+01   0.178E-05 0.977E-05 -.258E-04
   0.651E+02 0.392E+02 -.403E+02   -.676E+02 -.425E+02 0.438E+02   0.256E+01 0.335E+01 -.349E+01   -.159E-04 -.184E-05 -.188E-04
   0.560E+02 0.743E+02 0.662E+02   -.591E+02 -.792E+02 -.707E+02   0.316E+01 0.490E+01 0.457E+01   -.753E-05 0.245E-04 -.314E-04
   -.197E+02 0.611E+01 -.963E+02   0.201E+02 -.464E+01 0.102E+03   -.414E+00 -.148E+01 -.545E+01   -.956E-05 -.579E-05 -.430E-04
   -.688E+02 0.507E+02 -.269E+02   0.741E+02 -.517E+02 0.284E+02   -.530E+01 0.973E+00 -.150E+01   0.346E-05 0.344E-07 -.199E-04
   -.133E+01 0.620E+02 0.634E+02   0.112E+01 -.635E+02 -.687E+02   0.210E+00 0.149E+01 0.533E+01   -.588E-05 0.172E-04 -.386E-04
   0.291E+02 0.742E+02 -.404E+02   -.324E+02 -.774E+02 0.434E+02   0.329E+01 0.320E+01 -.303E+01   -.553E-05 0.520E-05 -.186E-04
   0.288E+02 -.612E+02 -.566E+02   -.341E+02 0.631E+02 0.611E+02   0.534E+01 -.197E+01 -.457E+01   -.237E-05 0.411E-05 -.553E-04
   -.866E+02 -.138E+02 0.154E+01   0.919E+02 0.122E+02 -.121E+01   -.537E+01 0.163E+01 -.337E+00   0.634E-05 -.586E-05 -.313E-04
   -.597E+01 -.406E+02 0.759E+02   0.486E+01 0.412E+02 -.813E+02   0.109E+01 -.622E+00 0.542E+01   -.712E-05 -.162E-04 -.210E-04
   -.128E+02 -.834E+02 -.223E+02   0.122E+02 0.884E+02 0.249E+02   0.577E+00 -.499E+01 -.259E+01   -.681E-05 -.463E-05 -.308E-04
   0.224E+03 -.885E+01 0.277E+02   -.225E+03 0.978E+01 -.278E+02   0.814E+00 -.930E+00 0.102E+00   -.155E-04 0.592E-04 -.147E-03
   0.181E+03 0.112E+00 0.113E+02   -.186E+03 0.359E+00 -.122E+02   0.493E+01 -.468E+00 0.870E+00   -.990E-04 -.568E-04 -.239E-03
   -.474E+02 0.100E+03 -.967E+02   0.529E+02 -.101E+03 0.984E+02   -.549E+01 0.103E+01 -.173E+01   -.830E-04 0.330E-04 -.172E-03
   -.471E+02 0.233E+03 -.239E+02   0.476E+02 -.234E+03 0.235E+02   -.577E+00 0.101E+01 0.344E+00   -.453E-04 0.522E-04 -.106E-03
   -.390E+02 0.184E+02 -.120E+02   0.361E+02 -.213E+02 0.139E+02   0.298E+01 0.284E+01 -.190E+01   -.639E-04 0.213E-04 -.209E-03
   -.133E+03 -.193E+03 0.621E+02   0.136E+03 0.196E+03 -.647E+02   -.342E+01 -.317E+01 0.262E+01   -.674E-04 0.356E-05 -.158E-03
   0.127E+03 0.151E+03 0.945E+02   -.125E+03 -.150E+03 -.952E+02   -.243E+01 -.219E+00 0.789E+00   -.337E-04 0.437E-04 -.193E-03
   -.582E+02 -.197E+03 -.721E+02   0.591E+02 0.199E+03 0.758E+02   -.905E+00 -.190E+01 -.366E+01   -.105E-03 0.796E-05 -.229E-03
   0.473E+02 -.298E+03 -.283E+03   -.301E+02 0.335E+03 0.314E+03   -.172E+02 -.375E+02 -.312E+02   -.157E-03 -.676E-04 -.380E-03
   -.305E+03 0.147E+03 0.303E+03   0.337E+03 -.166E+03 -.340E+03   -.328E+02 0.198E+02 0.371E+02   -.109E-03 0.557E-04 -.390E-03
 -----------------------------------------------------------------------------------------------
   0.456E+02 0.165E+02 -.205E+01   0.568E-13 -.568E-13 0.000E+00   -.456E+02 -.165E+02 0.205E+01   -.833E-03 0.178E-03 -.258E-02
 
 
 POSITION                                       TOTAL-FORCE (eV/Angst)
 -----------------------------------------------------------------------------------
     11.35604     16.24984     15.32876         0.011567      0.010097     -0.014271
     11.58805     14.88928     14.18285         0.007735     -0.001686     -0.001448
     11.28180     14.56853     15.90593        -0.001156      0.015944      0.000718
     13.58139     13.62178     14.37630         0.004931      0.005095     -0.004154
     15.49227     14.34149     16.44294         0.002225     -0.007360      0.004817
     16.79470     12.40047     15.51191        -0.001307     -0.008274     -0.000487
     15.68625     12.29124     14.14436         0.000066      0.000055     -0.002274
     15.08980     11.95576     15.80746        -0.002593     -0.005040     -0.004851
     15.61175     16.54498     15.59770        -0.006407     -0.003721      0.003323
     18.27626     16.93113     14.41092        -0.007878      0.004719     -0.008741
     16.99724     17.37496     13.26259        -0.017395      0.001836     -0.000416
     17.09848     18.20694     14.84630        -0.009660      0.000623     -0.000456
     11.78575     15.25006     15.20265         0.006222      0.005964     -0.004065
     13.26419     15.29658     15.52894         0.006161      0.003268      0.005928
     15.41415     14.05419     15.38083         0.003127     -0.004220      0.002986
     15.75835     12.58428     15.20182        -0.000817     -0.004201     -0.000234
     16.39865     14.95743     14.58779        -0.009040      0.008070      0.020602
     17.22514     17.24618     14.33276        -0.010834      0.001684     -0.000961
     14.01941     14.29440     15.00047         0.004172     -0.001133      0.002048
     16.35985     16.26146     14.95502         0.000205     -0.006918     -0.000340
     13.75591     16.17040     16.26567         0.002056     -0.006024      0.005660
     17.16449     14.50854     13.72593         0.018621     -0.008777     -0.003383
 -----------------------------------------------------------------------------------
    total drift:                                0.014690      0.002073     -0.001437


--------------------------------------------------------------------------------------------------------



  FREE ENERGIE OF THE ION-ELECTRON SYSTEM (eV)
  ---------------------------------------------------
  free  energy   TOTEN  =      -129.53070427 eV

  energy  without entropy=     -129.53070427  energy(sigma->0) =     -129.53070427
 
 d Force = 0.5774251E-04[ 0.573E-04, 0.581E-04]  d Energy = 0.5803817E-04-0.296E-06
 d Force =-0.5421006E-01[-0.542E-01,-0.543E-01]  d Ewald  =-0.5421006E-01-0.591E-10


--------------------------------------------------------------------------------------------------------


    POTLOK:  cpu time   21.5287: real time   21.5118


--------------------------------------------------------------------------------------------------------


 NEB: the previous image is higher in energy: F
 NEB: the next image is higher in energy    : T
 NEB: only next energy greater

 NEB: Tangent
 ----------------------------------------------
     -0.01001     -0.02953     -0.08472
     -0.01517     -0.05269     -0.05866
     -0.03778     -0.01496     -0.05492
      0.01002      0.05521     -0.16738
     -0.04329     -0.12942     -0.07531
      0.00553     -0.00780     -0.25626
     -0.00327      0.09956     -0.25154
      0.01244     -0.05356     -0.28738
     -0.02349     -0.05927      0.15763
      0.02954      0.05134      0.39566
      0.14139      0.11280      0.30888
     -0.02563      0.00932      0.35745
     -0.02080     -0.03694     -0.06342
     -0.02660     -0.05284     -0.03836
     -0.01436     -0.02255     -0.09854
      0.00105      0.00537     -0.23135
      0.00632      0.05041      0.02771
      0.03793      0.04664      0.31302
     -0.00605      0.00602     -0.10934
     -0.00343      0.00345      0.15792
     -0.04983     -0.11729      0.04386
      0.03565      0.13692      0.01518

 NEB: forces: par spring, perp REAL, dneb     0.004731    0.056282    0.000000
 NEB: distance to prev, next image, angle between     1.330758    1.329812  168.660648
 NEB: projections on to tangent (spring, REAL)    -0.004731   -0.000970

 stress matrix after NEB project (eV)
     -3.88591     -0.15330     -0.05055
     -0.15330     -3.52283      0.21994
     -0.05055      0.21994     -3.64405
  FORCES: max atom, RMS     0.023757    0.012042
  FORCE total and by dimension    0.056480    0.020498
  Stress total and by dimension    6.398329    3.885911
 OPT: skip step - force has converged


--------------------------------------------------------------------------------------------------------


  
 reached required accuracy - stopping structural energy minimisation
     LOOP+:  cpu time 1818.7475: real time 1817.2891
    4ORBIT:  cpu time    0.0000: real time    0.0000

 total amount of memory used by VASP on root node  4333713. kBytes
========================================================================

   base      :      30000. kBytes
   nonlr-proj:       2408. kBytes
   fftplans  :     924480. kBytes
   grid      :    2089440. kBytes
   one-center:         67. kBytes
   wavefun   :    1287318. kBytes
 
  
  
 General timing and accounting informations for this job:
 ========================================================
  
                  Total CPU time used (sec):   226708.047
                            User time (sec):   225259.727
                          System time (sec):     1448.313
                         Elapsed time (sec):   226579.154
  
                   Maximum memory used (kb):     5900432.
                   Average memory used (kb):           0.
  
                          Minor page faults:    321185642
                          Major page faults:            7
                 Voluntary context switches:        13585
