unknown system                          
           1
    30.000000    0.000000    0.000000
     0.000000   30.000000    0.000000
     0.000000    0.000000   30.000000
   H    C    N    O 
  12   6   2   2
Direct configuration=     1
   0.37689822  0.53997720  0.51357366
   0.38456200  0.49658164  0.47312295
   0.37582842  0.48293550  0.53023491
   0.45128457  0.45143489  0.48040200
   0.51575603  0.47984916  0.54626316
   0.56062114  0.41584771  0.51566605
   0.52286273  0.41048904  0.47089258
   0.50423795  0.39933286  0.52675934
   0.51975828  0.55161515  0.51862008
   0.61106783  0.56320294  0.48584143
   0.57202342  0.58007920  0.44450503
   0.57187304  0.60633193  0.49819826
   0.39156658  0.50710535  0.50749738
   0.44115255  0.50936349  0.51616509
   0.51292103  0.46917687  0.51120222
   0.52568791  0.42055794  0.50599183
   0.54529219  0.49934059  0.48413239
   0.57662875  0.57471214  0.48049320
   0.46603338  0.47539999  0.49934260
   0.54534587  0.54229290  0.49791854
   0.45841358  0.53984988  0.53845871
   0.57018306  0.48452167  0.45471602
Direct configuration=     2
   0.37689388  0.53998262  0.51356174
   0.38451056  0.49657692  0.47310538
   0.37585320  0.48294944  0.53022678
   0.45126547  0.45144631  0.48039466
   0.51577303  0.47981585  0.54629066
   0.56061961  0.41579877  0.51569280
   0.52287922  0.41044480  0.47088093
   0.50425123  0.39931227  0.52678557
   0.51975722  0.55163871  0.51866905
   0.61105549  0.56320407  0.48579290
   0.57202623  0.58009233  0.44446418
   0.57186520  0.60634814  0.49816966
   0.39157590  0.50710713  0.50746304
   0.44114978  0.50932355  0.51619194
   0.51293154  0.46918381  0.51119554
   0.52568810  0.42054602  0.50598989
   0.54529891  0.49936698  0.48416424
   0.57660750  0.57471326  0.48046283
   0.46605302  0.47548132  0.49933668
   0.54535061  0.54226877  0.49791502
   0.45840384  0.53989453  0.53852632
   0.57018900  0.48450244  0.45471758
Direct configuration=     3
   0.37689325  0.53998599  0.51354456
   0.38444054  0.49657023  0.47307926
   0.37588591  0.48296932  0.53021414
   0.45125998  0.45149703  0.48041095
   0.51579586  0.47976757  0.54632094
   0.56061367  0.41573296  0.51573128
   0.52290308  0.41038331  0.47087425
   0.50427031  0.39928796  0.52682125
   0.51977448  0.55166074  0.51872095
   0.61103509  0.56320670  0.48572024
   0.57202599  0.58010779  0.44440746
   0.57185311  0.60636546  0.49812430
   0.39158376  0.50710967  0.50742435
   0.44117398  0.50937816  0.51628543
   0.51295310  0.46919952  0.51120706
   0.52568577  0.42052490  0.50598444
   0.54534034  0.49934706  0.48415773
   0.57658353  0.57471572  0.48041496
   0.46607119  0.47552223  0.49928577
   0.54533577  0.54228559  0.49793622
   0.45835117  0.53988548  0.53857616
   0.57016864  0.48449463  0.45475570
Direct configuration=     4
   0.37689584  0.53998508  0.51352133
   0.38435910  0.49656285  0.47304703
   0.37592435  0.48299407  0.53019812
   0.45126136  0.45157844  0.48044333
   0.51582421  0.47970663  0.54635327
   0.56059905  0.41565165  0.51578188
   0.52293372  0.41030510  0.47087948
   0.50429487  0.39926379  0.52686432
   0.51981257  0.55168027  0.51877356
   0.61100609  0.56321098  0.48562000
   0.57201724  0.58012294  0.44433406
   0.57183865  0.60638078  0.49805494
   0.39159150  0.50712138  0.50739170
   0.44119164  0.50945979  0.51637761
   0.51298190  0.46920529  0.51122982
   0.52568399  0.42049385  0.50598352
   0.54537396  0.49931070  0.48416383
   0.57655508  0.57472621  0.48035152
   0.46609980  0.47555496  0.49922003
   0.54531215  0.54233291  0.49796551
   0.45828494  0.53986846  0.53865107
   0.57015652  0.48448188  0.45479146
Direct configuration=     5
   0.37689732  0.53998386  0.51349433
   0.38427886  0.49655813  0.47301842
   0.37596400  0.48302021  0.53018281
   0.45125335  0.45165819  0.48046825
   0.51585575  0.47963986  0.54638921
   0.56057631  0.41556075  0.51584197
   0.52296805  0.41021551  0.47089904
   0.50432100  0.39924233  0.52691164
   0.51985815  0.55170359  0.51883291
   0.61097144  0.56321609  0.48549698
   0.57199576  0.58013479  0.44424802
   0.57182489  0.60639611  0.49796241
   0.39160026  0.50714292  0.50736430
   0.44117811  0.50947408  0.51639270
   0.51300977  0.46918396  0.51124811
   0.52568612  0.42045579  0.50599548
   0.54537061  0.49930782  0.48422496
   0.57651970  0.57474625  0.48027718
   0.46614829  0.47564261  0.49919319
   0.54530379  0.54236345  0.49796775
   0.45824172  0.53989718  0.53879019
   0.57017526  0.48445448  0.45479753
Direct configuration=     6
   0.37689558  0.53998956  0.51346592
   0.38420667  0.49655944  0.47300274
   0.37600188  0.48304590  0.53017150
   0.45123947  0.45173597  0.48048494
   0.51588904  0.47956805  0.54642844
   0.56054855  0.41546377  0.51591244
   0.52300488  0.41011581  0.47093673
   0.50434370  0.39922360  0.52696375
   0.51990794  0.55173401  0.51890040
   0.61093182  0.56322251  0.48535025
   0.57195575  0.58014044  0.44415071
   0.57181179  0.60641733  0.49784706
   0.39160775  0.50716568  0.50733171
   0.44116690  0.50946502  0.51636037
   0.51303610  0.46914089  0.51126695
   0.52569062  0.42040980  0.50602062
   0.54536914  0.49932803  0.48429908
   0.57648020  0.57476951  0.48018598
   0.46620722  0.47577822  0.49920601
   0.54531190  0.54236203  0.49793473
   0.45819910  0.53992895  0.53896309
   0.57019245  0.48443344  0.45481392
Direct configuration=     7
   0.37689107  0.54000822  0.51343490
   0.38413914  0.49656775  0.47300029
   0.37604031  0.48307341  0.53016484
   0.45124117  0.45185006  0.48051663
   0.51592672  0.47948212  0.54647242
   0.56051975  0.41535564  0.51600134
   0.52304660  0.40999697  0.47099777
   0.50435790  0.39920288  0.52702746
   0.51998043  0.55176800  0.51896922
   0.61088520  0.56323252  0.48516487
   0.57188726  0.58013804  0.44403318
   0.57179582  0.60645195  0.49770059
   0.39161292  0.50718295  0.50728274
   0.44120184  0.50955083  0.51636939
   0.51307114  0.46910115  0.51130671
   0.52569049  0.42035142  0.50605723
   0.54541761  0.49932150  0.48432965
   0.57643890  0.57478488  0.48006028
   0.46626058  0.47589191  0.49920766
   0.54531107  0.54236069  0.49789090
   0.45810788  0.53988666  0.53912234
   0.57017461  0.48443833  0.45488693
Direct configuration=     8
   0.37688276  0.54003919  0.51339785
   0.38408156  0.49657965  0.47299851
   0.37608236  0.48310601  0.53016310
   0.45126731  0.45201603  0.48056782
   0.51597115  0.47937911  0.54652829
   0.56049656  0.41523809  0.51611153
   0.52309066  0.40985604  0.47108128
   0.50435116  0.39917282  0.52710570
   0.52009849  0.55179653  0.51902361
   0.61083784  0.56324805  0.48493528
   0.57177674  0.58012461  0.44388800
   0.57177572  0.60650039  0.49751682
   0.39162335  0.50720602  0.50723334
   0.44124337  0.50969977  0.51641044
   0.51311837  0.46908557  0.51136620
   0.52568265  0.42028704  0.50610845
   0.54546594  0.49928199  0.48436892
   0.57639100  0.57478626  0.47989793
   0.46631137  0.47594468  0.49917875
   0.54528076  0.54239795  0.49785975
   0.45799163  0.53981146  0.53929685
   0.57017764  0.48444057  0.45495891
Direct configuration=     9
   0.37686819  0.54007258  0.51334953
   0.38404034  0.49658831  0.47297910
   0.37613348  0.48314933  0.53016342
   0.45127774  0.45216209  0.48057934
   0.51602140  0.47926593  0.54661147
   0.56047722  0.41511539  0.51623562
   0.52313104  0.40969915  0.47117463
   0.50431679  0.39913108  0.52719245
   0.52023505  0.55183296  0.51908769
   0.61079760  0.56326687  0.48467133
   0.57161947  0.58009880  0.44371377
   0.57175526  0.60654795  0.49729335
   0.39164591  0.50725992  0.50720881
   0.44121293  0.50969241  0.51636490
   0.51316073  0.46906629  0.51140980
   0.52567855  0.42022913  0.50618480
   0.54545459  0.49927254  0.48449185
   0.57632122  0.57479488  0.47972647
   0.46639301  0.47606635  0.49920903
   0.54526392  0.54243026  0.49780300
   0.45793566  0.53984568  0.53957809
   0.57025822  0.48440988  0.45496885
Direct configuration=    10
   0.37686790  0.54007396  0.51334739
   0.38404420  0.49658791  0.47297746
   0.37613531  0.48315258  0.53016320
   0.45127879  0.45215990  0.48057222
   0.51602176  0.47926413  0.54661526
   0.56047728  0.41511594  0.51623674
   0.52312976  0.40969826  0.47117607
   0.50431203  0.39913032  0.52719179
   0.52023286  0.55183690  0.51909434
   0.61079735  0.56326802  0.48466634
   0.57161052  0.58009594  0.44371078
   0.57175466  0.60654706  0.49728769
   0.39164457  0.50726060  0.50720823
   0.44122581  0.50970787  0.51638932
   0.51316088  0.46906556  0.51141275
   0.52567802  0.42022896  0.50618724
   0.54547264  0.49926837  0.48447391
   0.57631954  0.57479658  0.47972418
   0.46639064  0.47606864  0.49921116
   0.54526803  0.54242468  0.49779845
   0.45792664  0.53982884  0.53956606
   0.57024915  0.48441673  0.45498671
Direct configuration=    11
   0.37686742  0.54007719  0.51334476
   0.38405272  0.49658841  0.47297509
   0.37613919  0.48315896  0.53016350
   0.45128149  0.45215696  0.48055988
   0.51602319  0.47926290  0.54662377
   0.56047709  0.41511701  0.51624407
   0.52312767  0.40969458  0.47118350
   0.50430188  0.39912996  0.52719519
   0.52023125  0.55184446  0.51910337
   0.61079653  0.56327004  0.48464953
   0.57159017  0.58008860  0.44369954
   0.57175375  0.60654565  0.49727065
   0.39164342  0.50726309  0.50720863
   0.44124388  0.50972753  0.51642943
   0.51316150  0.46906473  0.51141932
   0.52567664  0.42022834  0.50619628
   0.54549910  0.49926268  0.48444836
   0.57631570  0.57479865  0.47971365
   0.46638692  0.47607259  0.49921690
   0.54527464  0.54241566  0.49778856
   0.45791537  0.53980657  0.53955155
   0.57023881  0.48442319  0.45501176
Direct configuration=    12
   0.37686671  0.54008258  0.51334342
   0.38406637  0.49659111  0.47297329
   0.37614486  0.48316776  0.53016525
   0.45128641  0.45215566  0.48054617
   0.51602641  0.47926465  0.54663709
   0.56047635  0.41511859  0.51626207
   0.52312535  0.40968670  0.47120104
   0.50428656  0.39913118  0.52720702
   0.52023429  0.55185402  0.51910847
   0.61079483  0.56327268  0.48461526
   0.57155747  0.58007566  0.44367568
   0.57175281  0.60654442  0.49723795
   0.39164470  0.50726849  0.50721175
   0.44125448  0.50973380  0.51646873
   0.51316301  0.46906456  0.51142941
   0.52567402  0.42022711  0.50621524
   0.54551815  0.49925966  0.48443228
   0.57630974  0.57479900  0.47968946
   0.46638354  0.47607628  0.49922718
   0.54528066  0.54240740  0.49777463
   0.45791226  0.53979689  0.53954870
   0.57023932  0.48441954  0.45502718
Direct configuration=    13
   0.37686568  0.54008980  0.51334277
   0.38408481  0.49659555  0.47297236
   0.37615131  0.48317820  0.53016846
   0.45129396  0.45215826  0.48053288
   0.51603125  0.47926848  0.54665365
   0.56047494  0.41512035  0.51628840
   0.52312278  0.40967574  0.47122683
   0.50426734  0.39913365  0.52722517
   0.52024422  0.55186323  0.51910800
   0.61079219  0.56327622  0.48456691
   0.57151484  0.58005841  0.44364211
   0.57175150  0.60654415  0.49719338
   0.39164930  0.50727658  0.50721739
   0.44125108  0.50971917  0.51649660
   0.51316550  0.46906556  0.51144163
   0.52567017  0.42022515  0.50624138
   0.54552208  0.49926061  0.48443447
   0.57630214  0.57479666  0.47965354
   0.46638149  0.47607737  0.49924044
   0.54528367  0.54240376  0.49776085
   0.45792150  0.53980721  0.53956416
   0.57025654  0.48440363  0.45502587
Direct configuration=    14
   0.37686456  0.54009863  0.51334214
   0.38410802  0.49660140  0.47297270
   0.37615755  0.48318983  0.53017308
   0.45130473  0.45216615  0.48052082
   0.51603739  0.47927351  0.54667213
   0.56047255  0.41512200  0.51632130
   0.52311994  0.40966261  0.47125954
   0.50424493  0.39913717  0.52724795
   0.52026147  0.55187103  0.51910213
   0.61078841  0.56328084  0.48450660
   0.57146354  0.58003752  0.44360083
   0.57174948  0.60654523  0.49713935
   0.39165677  0.50728691  0.50722495
   0.44123665  0.50969051  0.51651443
   0.51316892  0.46906806  0.51145576
   0.52566513  0.42022228  0.50627233
   0.54551457  0.49926158  0.48445080
   0.57629298  0.57479120  0.47960775
   0.46638095  0.47607371  0.49925559
   0.54528307  0.54240669  0.49774928
   0.45794016  0.53983191  0.53959484
   0.57028650  0.48437892  0.45501295
Direct configuration=    15
   0.37686395  0.54010916  0.51334062
   0.38413680  0.49660843  0.47297501
   0.37616248  0.48320272  0.53017907
   0.45131958  0.45218012  0.48050943
   0.51604442  0.47927873  0.54669152
   0.56046840  0.41512322  0.51635978
   0.52311664  0.40964799  0.47129854
   0.50421938  0.39914177  0.52727413
   0.52028475  0.55187783  0.51909310
   0.61078310  0.56328678  0.48443445
   0.57140301  0.58001287  0.44355255
   0.57174630  0.60654784  0.49707640
   0.39166580  0.50729841  0.50723333
   0.44122313  0.50966723  0.51653361
   0.51317314  0.46907195  0.51147270
   0.52565891  0.42021835  0.50630663
   0.54550920  0.49925480  0.48446665
   0.57628132  0.57478290  0.47955327
   0.46638152  0.47606414  0.49927292
   0.54528057  0.54241535  0.49773944
   0.45795889  0.53985331  0.53962955
   0.57031696  0.48435378  0.45500456
Direct configuration=    16
   0.37686446  0.54012194  0.51333690
   0.38417357  0.49661658  0.47297970
   0.37616547  0.48321800  0.53018649
   0.45133909  0.45219947  0.48049544
   0.51605229  0.47928334  0.54671225
   0.56046140  0.41512364  0.51640459
   0.52311240  0.40963174  0.47134445
   0.50418918  0.39914764  0.52730351
   0.52031148  0.55188586  0.51908542
   0.61077563  0.56329450  0.48434694
   0.57132905  0.57998296  0.44349538
   0.57174147  0.60655172  0.49700132
   0.39167496  0.50731076  0.50724204
   0.44122418  0.50966761  0.51656790
   0.51317809  0.46907575  0.51149400
   0.52565146  0.42021327  0.50634502
   0.54552035  0.49923637  0.48446844
   0.57626516  0.57477298  0.47948941
   0.46638276  0.47605143  0.49929613
   0.54528080  0.54242349  0.49772677
   0.45796827  0.53985298  0.53965746
   0.57033670  0.48433560  0.45501767
Direct configuration=    17
   0.37686657  0.54013663  0.51332871
   0.38421926  0.49662468  0.47298650
   0.37616519  0.48323610  0.53019469
   0.45136207  0.45222244  0.48047521
   0.51606078  0.47928565  0.54673319
   0.56045053  0.41512208  0.51645270
   0.52310670  0.40961513  0.47139336
   0.50415495  0.39915436  0.52733262
   0.52033783  0.55189626  0.51908486
   0.61076557  0.56330437  0.48424611
   0.57124173  0.57994830  0.44343163
   0.57173453  0.60655623  0.49691593
   0.39168326  0.50732382  0.50725134
   0.44124580  0.50969438  0.51661602
   0.51318336  0.46907613  0.51151785
   0.52564317  0.42020757  0.50638622
   0.54554995  0.49921317  0.48445807
   0.57624290  0.57476477  0.47942123
   0.46638548  0.47604309  0.49933011
   0.54528932  0.54242059  0.49770701
   0.45796535  0.53982455  0.53967685
   0.57034390  0.48432732  0.45505701
Direct configuration=    18
   0.37687035  0.54015314  0.51331124
   0.38427662  0.49663036  0.47299416
   0.37615972  0.48325833  0.53020276
   0.45138829  0.45225152  0.48044499
   0.51607066  0.47928236  0.54675321
   0.56043464  0.41511591  0.51649917
   0.52309838  0.40960043  0.47143819
   0.50411729  0.39916085  0.52735507
   0.52036541  0.55190677  0.51909553
   0.61075156  0.56331828  0.48413444
   0.57114004  0.57990988  0.44336578
   0.57172372  0.60656157  0.49682384
   0.39169394  0.50733912  0.50726195
   0.44127012  0.50971258  0.51664760
   0.51318923  0.46906832  0.51154019
   0.52563338  0.42020183  0.50642729
   0.54557394  0.49920524  0.48447019
   0.57621280  0.57476189  0.47935403
   0.46639239  0.47604733  0.49937973
   0.54530743  0.54239916  0.49768292
   0.45796593  0.53979444  0.53971404
   0.57036235  0.48431824  0.45510088
Direct configuration=    19
   0.37687055  0.54015339  0.51330955
   0.38427796  0.49662969  0.47299394
   0.37615901  0.48325898  0.53020255
   0.45138918  0.45225363  0.48044421
   0.51607093  0.47928112  0.54675297
   0.56043415  0.41511503  0.51649810
   0.52309797  0.40960107  0.47143659
   0.50411703  0.39916055  0.52735335
   0.52036679  0.55190578  0.51909640
   0.61075082  0.56331911  0.48413400
   0.57113865  0.57990978  0.44336669
   0.57172281  0.60656195  0.49682433
   0.39169485  0.50733931  0.50726188
   0.44126728  0.50970789  0.51664307
   0.51318953  0.46906773  0.51154003
   0.52563296  0.42020177  0.50642607
   0.54557099  0.49920676  0.48447548
   0.57621229  0.57476209  0.47935436
   0.46639283  0.47604723  0.49937983
   0.54530678  0.54239962  0.49768545
   0.45796850  0.53979809  0.53971933
   0.57036630  0.48431701  0.45509900
Direct configuration=    20
   0.37687102  0.54015393  0.51330620
   0.38428065  0.49662835  0.47299353
   0.37615758  0.48326031  0.53020215
   0.45139096  0.45225778  0.48044260
   0.51607145  0.47927868  0.54675255
   0.56043315  0.41511326  0.51649607
   0.52309716  0.40960231  0.47143351
   0.50411646  0.39915999  0.52735002
   0.52036939  0.55190390  0.51909829
   0.61074934  0.56332075  0.48413290
   0.57113575  0.57990949  0.44336833
   0.57172099  0.60656271  0.49682514
   0.39169659  0.50733966  0.50726168
   0.44126247  0.50969989  0.51663518
   0.51319011  0.46906661  0.51153983
   0.52563215  0.42020160  0.50642370
   0.54556601  0.49920928  0.48448501
   0.57621120  0.57476246  0.47935491
   0.46639369  0.47604705  0.49938007
   0.54530568  0.54240043  0.49769027
   0.45797299  0.53980415  0.53972900
   0.57037336  0.48431499  0.45509626
Direct configuration=    21
   0.37687186  0.54015478  0.51330110
   0.38428482  0.49662634  0.47299297
   0.37615540  0.48326240  0.53020154
   0.45139370  0.45226394  0.48043990
   0.51607223  0.47927502  0.54675205
   0.56043153  0.41511052  0.51649325
   0.52309594  0.40960412  0.47142902
   0.50411548  0.39915918  0.52734520
   0.52037289  0.55190132  0.51910157
   0.61074707  0.56332322  0.48413072
   0.57113100  0.57990889  0.44337045
   0.57171818  0.60656385  0.49682595
   0.39169900  0.50734011  0.50726122
   0.44125740  0.50969127  0.51662612
   0.51319096  0.46906499  0.51153982
   0.52563095  0.42020127  0.50642020
   0.54556078  0.49921191  0.48449687
   0.57620931  0.57476302  0.47935557
   0.46639498  0.47604680  0.49938053
   0.54530453  0.54240143  0.49769710
   0.45797812  0.53981019  0.53974141
   0.57038205  0.48431301  0.45509465
Direct configuration=    22
   0.37687321  0.54015598  0.51329439
   0.38429043  0.49662375  0.47299232
   0.37615255  0.48326530  0.53020075
   0.45139735  0.45227177  0.48043593
   0.51607323  0.47927031  0.54675167
   0.56042927  0.41510682  0.51648999
   0.52309435  0.40960638  0.47142349
   0.50411397  0.39915820  0.52733927
   0.52037673  0.55189845  0.51910660
   0.61074404  0.56332640  0.48412694
   0.57112413  0.57990780  0.44337254
   0.57171440  0.60656532  0.49682625
   0.39170176  0.50734058  0.50726033
   0.44125445  0.50968574  0.51661916
   0.51319200  0.46906301  0.51154027
   0.52562944  0.42020066  0.50641578
   0.54555774  0.49921337  0.48450818
   0.57620636  0.57476376  0.47935618
   0.46639665  0.47604659  0.49938132
   0.54530392  0.54240231  0.49770517
   0.45798207  0.53981291  0.53975393
   0.57039014  0.48431219  0.45509673
Direct configuration=    23
   0.37687507  0.54015749  0.51328661
   0.38429712  0.49662081  0.47299168
   0.37614926  0.48326887  0.53019984
   0.45140161  0.45228053  0.48043078
   0.51607441  0.47926498  0.54675163
   0.56042646  0.41510241  0.51648681
   0.52309252  0.40960882  0.47141759
   0.50411194  0.39915716  0.52733294
   0.52038033  0.55189573  0.51911326
   0.61074048  0.56333006  0.48412133
   0.57111532  0.57990614  0.44337403
   0.57170993  0.60656700  0.49682559
   0.39170457  0.50734104  0.50725901
   0.44125486  0.50968524  0.51661630
   0.51319313  0.46906087  0.51154129
   0.52562776  0.42019975  0.50641098
   0.54555822  0.49921308  0.48451695
   0.57620238  0.57476462  0.47935644
   0.46639863  0.47604661  0.49938260
   0.54530426  0.54240276  0.49771346
   0.45798377  0.53981064  0.53976459
   0.57039614  0.48431298  0.45510349
Direct configuration=    24
   0.37687742  0.54015928  0.51327810
   0.38430474  0.49661770  0.47299109
   0.37614574  0.48327305  0.53019888
   0.45140628  0.45228978  0.48042450
   0.51607577  0.47925940  0.54675217
   0.56042319  0.41509741  0.51648420
   0.52309056  0.40961124  0.47141185
   0.50410934  0.39915616  0.52732680
   0.52038343  0.55189341  0.51912133
   0.61073652  0.56333401  0.48411351
   0.57110459  0.57990382  0.44337440
   0.57170493  0.60656885  0.49682348
   0.39170734  0.50734160  0.50725737
   0.44125880  0.50968983  0.51661805
   0.51319430  0.46905869  0.51154292
   0.52562596  0.42019851  0.50640629
   0.54556228  0.49921109  0.48452277
   0.57619738  0.57476555  0.47935600
   0.46640094  0.47604715  0.49938454
   0.54530576  0.54240252  0.49772127
   0.45798314  0.53980339  0.53977293
   0.57039977  0.48431518  0.45511476
Direct configuration=    25
   0.37688063  0.54016164  0.51326805
   0.38431426  0.49661418  0.47299052
   0.37614173  0.48327843  0.53019779
   0.45141182  0.45230041  0.48041626
   0.51607755  0.47925323  0.54675374
   0.56041902  0.41509117  0.51648258
   0.52308829  0.40961363  0.47140623
   0.50410568  0.39915520  0.52732081
   0.52038632  0.55189146  0.51913162
   0.61073171  0.56333865  0.48410150
   0.57109013  0.57990027  0.44337279
   0.57169885  0.60657106  0.49681872
   0.39171045  0.50734252  0.50725536
   0.44126659  0.50969946  0.51662479
   0.51319565  0.46905625  0.51154546
   0.52562387  0.42019670  0.50640183
   0.54557010  0.49920747  0.48452671
   0.57619055  0.57476661  0.47935405
   0.46640396  0.47604872  0.49938779
   0.54530884  0.54240123  0.49772889
   0.45798043  0.53979084  0.53978035
   0.57040176  0.48431844  0.45513139
Direct configuration=    26
   0.37688493  0.54016488  0.51325629
   0.38432637  0.49661034  0.47298998
   0.37613731  0.48328546  0.53019665
   0.45141844  0.45231287  0.48040561
   0.51608005  0.47924677  0.54675711
   0.56041373  0.41508331  0.51648315
   0.52308570  0.40961565  0.47140159
   0.50410045  0.39915442  0.52731590
   0.52038936  0.55189005  0.51914407
   0.61072584  0.56334415  0.48408279
   0.57107025  0.57989483  0.44336755
   0.57169146  0.60657378  0.49680938
   0.39171434  0.50734424  0.50725326
   0.44127692  0.50971137  0.51663546
   0.51319733  0.46905353  0.51154919
   0.52562135  0.42019409  0.50639857
   0.54558024  0.49920312  0.48453111
   0.57618130  0.57476774  0.47934906
   0.46640812  0.47605204  0.49939308
   0.54531365  0.54239851  0.49773600
   0.45797716  0.53977523  0.53978942
   0.57040391  0.48432119  0.45515200
Direct configuration=    27
   0.37689044  0.54016932  0.51324285
   0.38434162  0.49660635  0.47298948
   0.37613274  0.48329451  0.53019552
   0.45142643  0.45232791  0.48039268
   0.51608360  0.47924043  0.54676301
   0.56040721  0.41507351  0.51648731
   0.52308283  0.40961682  0.47139903
   0.50409318  0.39915398  0.52731321
   0.52039359  0.55188906  0.51915777
   0.61071869  0.56335063  0.48405487
   0.57104345  0.57988685  0.44335700
   0.57168260  0.60657718  0.49679350
   0.39171971  0.50734729  0.50725159
   0.44128620  0.50971938  0.51664645
   0.51319960  0.46905059  0.51155439
   0.52561821  0.42019059  0.50639776
   0.54558921  0.49919973  0.48454040
   0.57616938  0.57476871  0.47933910
   0.46641367  0.47605740  0.49940077
   0.54531946  0.54239461  0.49774284
   0.45797657  0.53976211  0.53980495
   0.57040980  0.48432063  0.45517273
Direct configuration=    28
   0.37689728  0.54017536  0.51322786
   0.38436048  0.49660241  0.47298902
   0.37612828  0.48330593  0.53019452
   0.45143630  0.45234658  0.48037796
   0.51608849  0.47923461  0.54677203
   0.56039947  0.41506152  0.51649638
   0.52307978  0.40961666  0.47139970
   0.50408342  0.39915405  0.52731387
   0.52040034  0.55188821  0.51917141
   0.61071003  0.56335821  0.48401546
   0.57100836  0.57987573  0.44333969
   0.57167212  0.60658140  0.49676930
   0.39172727  0.50735201  0.50725079
   0.44129116  0.50971864  0.51665502
   0.51320284  0.46904755  0.51156166
   0.52561421  0.42018615  0.50640056
   0.54559436  0.49919803  0.48455775
   0.57615483  0.57476921  0.47932208
   0.46642052  0.47606413  0.49941052
   0.54532493  0.54239048  0.49775021
   0.45798142  0.53975633  0.53983104
   0.57042231  0.48431438  0.45519037
Direct configuration=    29
   0.37690581  0.54018363  0.51321123
   0.38438372  0.49659871  0.47298867
   0.37612415  0.48332036  0.53019372
   0.45144907  0.45237055  0.48036189
   0.51609497  0.47922956  0.54678495
   0.56039034  0.41504684  0.51651205
   0.52307657  0.40961466  0.47140510
   0.50407038  0.39915477  0.52731921
   0.52041085  0.55188735  0.51918404
   0.61069933  0.56336721  0.48396114
   0.57096260  0.57986050  0.44331365
   0.57165963  0.60658669  0.49673420
   0.39173767  0.50735844  0.50725097
   0.44129174  0.50970974  0.51666313
   0.51320763  0.46904484  0.51157246
   0.52560899  0.42018071  0.50640820
   0.54559666  0.49919624  0.48458235
   0.57613746  0.57476866  0.47929503
   0.46642838  0.47607076  0.49942141
   0.54532881  0.54238755  0.49775917
   0.45799197  0.53975806  0.53986882
   0.57044144  0.48430174  0.45520580
Direct configuration=    30
   0.37691685  0.54019495  0.51319253
   0.38441240  0.49659536  0.47298859
   0.37612051  0.48333873  0.53019320
   0.45146589  0.45240123  0.48034411
   0.51610314  0.47922520  0.54680265
   0.56037945  0.41502873  0.51653598
   0.52307321  0.40961035  0.47141687
   0.50405296  0.39915623  0.52733045
   0.52042527  0.55188692  0.51919599
   0.61068584  0.56337798  0.48388779
   0.57090284  0.57983983  0.44327669
   0.57164451  0.60659312  0.49668504
   0.39175076  0.50736670  0.50725161
   0.44129415  0.50970338  0.51668050
   0.51321474  0.46904283  0.51158913
   0.52560222  0.42017413  0.50642179
   0.54560338  0.49918928  0.48460699
   0.57611641  0.57476669  0.47925526
   0.46643682  0.47607580  0.49943263
   0.54533123  0.54238672  0.49776968
   0.45800348  0.53975821  0.53991299
   0.57046210  0.48428518  0.45522673
Direct configuration=    31
   0.37693118  0.54020970  0.51317091
   0.38444733  0.49659216  0.47298884
   0.37611724  0.48336170  0.53019294
   0.45148667  0.45243784  0.48032266
   0.51611273  0.47922093  0.54682564
   0.56036640  0.41500648  0.51656823
   0.52306958  0.40960390  0.47143549
   0.50403045  0.39915827  0.52734725
   0.52044154  0.55188798  0.51920978
   0.61066914  0.56339075  0.48379375
   0.57082671  0.57981296  0.44322818
   0.57162639  0.60660038  0.49662026
   0.39176561  0.50737676  0.50725205
   0.44130684  0.50971182  0.51671685
   0.51322507  0.46904051  0.51161295
   0.52559393  0.42016641  0.50644164
   0.54562161  0.49917448  0.48462470
   0.57608968  0.57476400  0.47920303
   0.46644663  0.47608118  0.49944578
   0.54533546  0.54238590  0.49777883
   0.45800944  0.53974477  0.53995575
   0.57047850  0.48426863  0.45526169
Direct configuration=    32
   0.37694972  0.54022854  0.51314402
   0.38449081  0.49658844  0.47298908
   0.37611409  0.48339064  0.53019296
   0.45151066  0.45247958  0.48029349
   0.51612376  0.47921532  0.54685531
   0.56035041  0.41497841  0.51660793
   0.52306524  0.40959607  0.47146067
   0.50400182  0.39916037  0.52736772
   0.52045828  0.55189122  0.51922884
   0.61064830  0.56340648  0.48367672
   0.57072990  0.57977903  0.44316780
   0.57160445  0.60660844  0.49653797
   0.39178286  0.50739004  0.50725239
   0.44132834  0.50972805  0.51676699
   0.51323795  0.46903559  0.51164245
   0.52558399  0.42015720  0.50646868
   0.54564763  0.49915778  0.48464466
   0.57605407  0.57476149  0.47913908
   0.46646135  0.47609399  0.49946633
   0.54534632  0.54237990  0.49778275
   0.45801204  0.53972064  0.54000352
   0.57049615  0.48425028  0.45530783
Direct configuration=    33
   0.37697234  0.54025185  0.51310866
   0.38454459  0.49658292  0.47298855
   0.37611025  0.48342628  0.53019317
   0.45153879  0.45252996  0.48025616
   0.51613620  0.47920537  0.54689164
   0.56033113  0.41494302  0.51665071
   0.52305935  0.40958902  0.47148926
   0.50396689  0.39916124  0.52738663
   0.52047941  0.55189380  0.51925249
   0.61062193  0.56342690  0.48354007
   0.57061108  0.57973902  0.44309963
   0.57157737  0.60661791  0.49644175
   0.39180491  0.50740872  0.50725345
   0.44134103  0.50972159  0.51680387
   0.51325270  0.46902660  0.51167479
   0.52557269  0.42014573  0.50650041
   0.54566664  0.49914856  0.48468841
   0.57601000  0.57475966  0.47906652
   0.46648326  0.47611577  0.49949511
   0.54536064  0.54236887  0.49778666
   0.45802527  0.53971123  0.54007961
   0.57053161  0.48422345  0.45534960
Direct configuration=    34
   0.37700054  0.54028205  0.51305900
   0.38461127  0.49657350  0.47298685
   0.37610409  0.48347112  0.53019295
   0.45157896  0.45260179  0.48021376
   0.51614920  0.47918439  0.54693353
   0.56030837  0.41489738  0.51668953
   0.52305063  0.40958653  0.47151586
   0.50392430  0.39915825  0.52739549
   0.52051163  0.55189061  0.51928009
   0.61058665  0.56345530  0.48338760
   0.57046599  0.57969381  0.44303050
   0.57154119  0.60663091  0.49633819
   0.39183382  0.50743052  0.50725155
   0.44135182  0.50971378  0.51683836
   0.51327038  0.46901832  0.51171320
   0.52555928  0.42012919  0.50652967
   0.54569486  0.49913243  0.48474325
   0.57595978  0.57475581  0.47898789
   0.46650869  0.47613012  0.49951911
   0.54536817  0.54236364  0.49780753
   0.45804026  0.53970071  0.54017901
   0.57057820  0.48419727  0.45540421
Direct configuration=    35
   0.37703548  0.54031855  0.51299254
   0.38468909  0.49655865  0.47298355
   0.37609524  0.48352586  0.53019128
   0.45162865  0.45268732  0.48015908
   0.51616090  0.47914900  0.54697968
   0.56028375  0.41484081  0.51671748
   0.52303838  0.40959121  0.47153225
   0.50387467  0.39914853  0.52738805
   0.52054418  0.55188417  0.51932315
   0.61054499  0.56349110  0.48323046