  22  22   0   0
  0.1227273E+04  0.3000000E-08  0.3000000E-08  0.3000000E-08  0.0000000E+00
  1.000000000000000E-004
  CAR 
 unknown system                          
      2.19887695    -28.20262825  301     -4.48905834      1.00000000
    -28.203  0.0000E+00  0.0000E+00
    -28.101  0.0000E+00  0.0000E+00
    -28.000  0.0000E+00  0.0000E+00
    -27.899  0.0000E+00  0.0000E+00
    -27.797  0.0000E+00  0.0000E+00
    -27.696  0.0000E+00  0.0000E+00
    -27.595  0.0000E+00  0.0000E+00
    -27.493  0.0000E+00  0.0000E+00
    -27.392  0.0000E+00  0.0000E+00
    -27.291  0.4711E-15  0.4774E-16
    -27.189  0.9911E-13  0.1009E-13
    -27.088  0.1257E-10  0.1284E-11
    -26.987  0.9636E-09  0.9894E-10
    -26.885  0.4467E-07  0.4626E-08
    -26.784  0.1255E-05  0.1318E-06
    -26.683  0.2139E-04  0.2299E-05
    -26.581  0.2216E-03  0.2476E-04
    -26.480  0.1398E-02  0.1665E-03
    -26.379  0.5381E-02  0.7118E-03
    -26.277  0.1265E-01  0.1993E-02
    -26.176  0.1816E-01  0.3834E-02
    -26.075  0.1596E-01  0.5451E-02
    -25.973  0.8693E-02  0.6332E-02
    -25.872  0.3738E-02  0.6711E-02
    -25.771  0.4602E-02  0.7177E-02
    -25.669  0.1079E-01  0.8271E-02
    -25.568  0.1739E-01  0.1003E-01
    -25.466  0.1724E-01  0.1178E-01
    -25.365  0.1045E-01  0.1284E-01
    -25.264  0.3871E-02  0.1323E-01
    -25.162  0.8754E-03  0.1332E-01
    -25.061  0.1207E-03  0.1333E-01
    -24.960  0.1013E-04  0.1333E-01
    -24.858  0.5163E-06  0.1333E-01
    -24.757  0.1597E-07  0.1333E-01
    -24.656  0.2990E-09  0.1333E-01
    -24.554  0.3386E-11  0.1333E-01
    -24.453  0.9220E-13  0.1333E-01
    -24.352  0.9078E-11  0.1333E-01
    -24.250  0.7210E-09  0.1333E-01
    -24.149  0.3463E-07  0.1333E-01
    -24.048  0.1008E-05  0.1333E-01
    -23.946  0.1779E-04  0.1334E-01
    -23.845  0.1910E-03  0.1335E-01
    -23.744  0.1248E-02  0.1348E-01
    -23.642  0.4972E-02  0.1398E-01
    -23.541  0.1210E-01  0.1521E-01
    -23.440  0.1799E-01  0.1703E-01
    -23.338  0.1636E-01  0.1869E-01
    -23.237  0.9095E-02  0.1961E-01
    -23.136  0.3123E-02  0.1993E-01
    -23.034  0.9665E-03  0.2003E-01
    -22.933  0.1956E-02  0.2023E-01
    -22.832  0.6576E-02  0.2089E-01
    -22.730  0.1406E-01  0.2232E-01
    -22.629  0.1840E-01  0.2418E-01
    -22.528  0.1472E-01  0.2567E-01
    -22.426  0.7200E-02  0.2640E-01
    -22.325  0.2151E-02  0.2662E-01
    -22.224  0.3921E-03  0.2666E-01
    -22.122  0.4353E-04  0.2667E-01
    -22.021  0.2940E-05  0.2667E-01
    -21.920  0.1205E-06  0.2667E-01
    -21.818  0.2996E-08  0.2667E-01
    -21.717  0.4506E-10  0.2667E-01
    -21.616  0.4095E-12  0.2667E-01
    -21.514  0.2242E-14  0.2667E-01
    -21.413  0.7304E-17  0.2667E-01
    -21.312  0.0000E+00  0.2667E-01
    -21.210  0.0000E+00  0.2667E-01
    -21.109  0.0000E+00  0.2667E-01
    -21.008  0.0000E+00  0.2667E-01
    -20.906  0.0000E+00  0.2667E-01
    -20.805  0.0000E+00  0.2667E-01
    -20.704  0.1607E-15  0.2667E-01
    -20.602  0.3689E-13  0.2667E-01
    -20.501  0.5157E-11  0.2667E-01
    -20.400  0.4354E-09  0.2667E-01
    -20.298  0.2223E-07  0.2667E-01
    -20.197  0.6874E-06  0.2667E-01
    -20.096  0.1289E-04  0.2667E-01
    -19.994  0.1470E-03  0.2668E-01
    -19.893  0.1020E-02  0.2679E-01
    -19.792  0.4316E-02  0.2722E-01
    -19.690  0.1115E-01  0.2835E-01
    -19.589  0.1760E-01  0.3014E-01
    -19.488  0.1699E-01  0.3186E-01
    -19.386  0.1002E-01  0.3287E-01
    -19.285  0.3615E-02  0.3324E-01
    -19.184  0.7957E-03  0.3332E-01
    -19.082  0.1068E-03  0.3333E-01
    -18.981  0.8722E-05  0.3333E-01
    -18.879  0.6140E-06  0.3333E-01
    -18.778  0.4183E-05  0.3333E-01
    -18.677  0.5817E-04  0.3334E-01
    -18.575  0.4936E-03  0.3339E-01
    -18.474  0.2552E-02  0.3365E-01
    -18.373  0.8052E-02  0.3446E-01
    -18.271  0.1552E-01  0.3604E-01
    -18.170  0.1829E-01  0.3789E-01
    -18.069  0.1318E-01  0.3923E-01
    -17.967  0.5855E-02  0.3982E-01
    -17.866  0.2017E-02  0.4002E-01
    -17.765  0.2664E-02  0.4029E-01
    -17.663  0.7779E-02  0.4108E-01
    -17.562  0.1525E-01  0.4263E-01
    -17.461  0.1834E-01  0.4449E-01
    -17.359  0.1349E-01  0.4585E-01
    -17.258  0.6061E-02  0.4647E-01
    -17.157  0.1664E-02  0.4664E-01
    -17.055  0.2786E-03  0.4666E-01
    -16.954  0.2841E-04  0.4667E-01
    -16.853  0.1761E-05  0.4667E-01
    -16.751  0.6628E-07  0.4667E-01
    -16.650  0.1552E-08  0.4667E-01
    -16.549  0.2731E-08  0.4667E-01
    -16.447  0.1104E-06  0.4667E-01
    -16.346  0.2728E-05  0.4667E-01
    -16.245  0.4090E-04  0.4667E-01
    -16.143  0.3731E-03  0.4671E-01
    -16.042  0.2073E-02  0.4692E-01
    -15.941  0.7025E-02  0.4763E-01
    -15.839  0.1455E-01  0.4910E-01
    -15.738  0.1841E-01  0.5097E-01
    -15.637  0.1425E-01  0.5241E-01
    -15.535  0.6740E-02  0.5310E-01
    -15.434  0.1965E-02  0.5330E-01
    -15.333  0.5357E-03  0.5335E-01
    -15.231  0.1292E-02  0.5348E-01
    -15.130  0.4996E-02  0.5399E-01
    -15.029  0.1213E-01  0.5522E-01
    -14.927  0.1800E-01  0.5704E-01
    -14.826  0.1634E-01  0.5870E-01
    -14.725  0.9065E-02  0.5962E-01
    -14.623  0.3074E-02  0.5993E-01
    -14.522  0.6537E-03  0.5999E-01
    -14.421  0.2719E-03  0.6002E-01
    -14.319  0.1258E-02  0.6015E-01
    -14.218  0.4983E-02  0.6065E-01
    -14.117  0.1211E-01  0.6188E-01
    -14.015  0.1800E-01  0.6370E-01
    -13.914  0.1635E-01  0.6536E-01
    -13.813  0.9079E-02  0.6628E-01
    -13.711  0.3081E-02  0.6659E-01
    -13.610  0.6498E-03  0.6666E-01
    -13.509  0.2168E-03  0.6668E-01
    -13.407  0.9682E-03  0.6678E-01
    -13.306  0.4141E-02  0.6720E-01
    -13.205  0.1088E-01  0.6830E-01
    -13.103  0.1747E-01  0.7007E-01
    -13.002  0.1715E-01  0.7181E-01
    -12.901  0.1030E-01  0.7285E-01
    -12.799  0.3857E-02  0.7324E-01
    -12.698  0.1493E-02  0.7340E-01
    -12.597  0.3233E-02  0.7372E-01
    -12.495  0.9178E-02  0.7465E-01
    -12.394  0.1664E-01  0.7634E-01
    -12.293  0.1947E-01  0.7831E-01
    -12.191  0.1769E-01  0.8010E-01
    -12.090  0.1791E-01  0.8192E-01
    -11.988  0.1948E-01  0.8389E-01
    -11.887  0.1587E-01  0.8550E-01
    -11.786  0.8286E-02  0.8634E-01
    -11.684  0.2901E-02  0.8664E-01
    -11.583  0.2110E-02  0.8685E-01
    -11.482  0.6327E-02  0.8749E-01
    -11.380  0.1585E-01  0.8910E-01
    -11.279  0.2679E-01  0.9181E-01
    -11.178  0.3155E-01  0.9501E-01
    -11.076  0.2649E-01  0.9769E-01
    -10.975  0.1636E-01  0.9935E-01
    -10.874  0.1037E-01  0.1004E+00
    -10.772  0.1282E-01  0.1017E+00
    -10.671  0.1801E-01  0.1035E+00
    -10.570  0.1760E-01  0.1053E+00
    -10.468  0.1339E-01  0.1067E+00
    -10.367  0.1487E-01  0.1082E+00
    -10.266  0.2490E-01  0.1107E+00
    -10.164  0.3631E-01  0.1144E+00
    -10.063  0.4118E-01  0.1185E+00
     -9.962  0.3699E-01  0.1223E+00
     -9.860  0.2603E-01  0.1249E+00
     -9.759  0.1560E-01  0.1265E+00
     -9.658  0.1422E-01  0.1280E+00
     -9.556  0.2289E-01  0.1303E+00
     -9.455  0.3380E-01  0.1337E+00
     -9.354  0.3970E-01  0.1377E+00
     -9.252  0.4066E-01  0.1418E+00
     -9.151  0.3974E-01  0.1459E+00
     -9.050  0.3765E-01  0.1497E+00
     -8.948  0.3428E-01  0.1532E+00
     -8.847  0.3018E-01  0.1562E+00
     -8.746  0.2552E-01  0.1588E+00
     -8.644  0.2237E-01  0.1611E+00
     -8.543  0.2157E-01  0.1633E+00
     -8.442  0.1818E-01  0.1651E+00
     -8.340  0.1057E-01  0.1662E+00
     -8.239  0.3876E-02  0.1666E+00
     -8.138  0.8738E-03  0.1667E+00
     -8.036  0.1203E-03  0.1667E+00
     -7.935  0.1009E-04  0.1667E+00
     -7.834  0.5138E-06  0.1667E+00
     -7.732  0.1589E-07  0.1667E+00
     -7.631  0.1155E-08  0.1667E+00
     -7.530  0.4034E-07  0.1667E+00
     -7.428  0.1149E-05  0.1667E+00
     -7.327  0.1987E-04  0.1667E+00
     -7.226  0.2088E-03  0.1667E+00
     -7.124  0.1336E-02  0.1668E+00
     -7.023  0.5214E-02  0.1674E+00
     -6.922  0.1243E-01  0.1686E+00
     -6.820  0.1810E-01  0.1704E+00
     -6.719  0.1613E-01  0.1721E+00
     -6.618  0.8915E-02  0.1730E+00
     -6.516  0.3900E-02  0.1734E+00
     -6.415  0.4791E-02  0.1739E+00
     -6.314  0.1106E-01  0.1750E+00
     -6.212  0.1772E-01  0.1768E+00
     -6.111  0.1839E-01  0.1786E+00
     -6.010  0.1530E-01  0.1802E+00
     -5.908  0.1606E-01  0.1818E+00
     -5.807  0.1946E-01  0.1838E+00
     -5.706  0.1926E-01  0.1857E+00
     -5.604  0.1770E-01  0.1875E+00
     -5.503  0.1910E-01  0.1895E+00
     -5.401  0.1872E-01  0.1914E+00
     -5.300  0.1253E-01  0.1926E+00
     -5.199  0.5237E-02  0.1932E+00
     -5.097  0.1343E-02  0.1933E+00
     -4.996  0.2101E-03  0.1933E+00
     -4.895  0.2002E-04  0.1933E+00
     -4.793  0.1160E-05  0.1933E+00
     -4.692  0.4076E-07  0.1933E+00
     -4.591  0.8680E-09  0.1933E+00
     -4.489  0.1118E-10  0.1933E+00
     -4.388  0.8700E-13  0.1933E+00
     -4.287  0.4090E-15  0.1933E+00
     -4.185  0.0000E+00  0.1933E+00
     -4.084  0.0000E+00  0.1933E+00
     -3.983  0.0000E+00  0.1933E+00
     -3.881  0.0000E+00  0.1933E+00
     -3.780  0.0000E+00  0.1933E+00
     -3.679  0.0000E+00  0.1933E+00
     -3.577  0.0000E+00  0.1933E+00
     -3.476  0.0000E+00  0.1933E+00
     -3.375  0.0000E+00  0.1933E+00
     -3.273  0.0000E+00  0.1933E+00
     -3.172  0.0000E+00  0.1933E+00
     -3.071  0.0000E+00  0.1933E+00
     -2.969  0.0000E+00  0.1933E+00
     -2.868  0.0000E+00  0.1933E+00
     -2.767  0.0000E+00  0.1933E+00
     -2.665  0.0000E+00  0.1933E+00
     -2.564  0.0000E+00  0.1933E+00
     -2.463  0.0000E+00  0.1933E+00
     -2.361  0.0000E+00  0.1933E+00
     -2.260  0.1351E-15  0.1933E+00
     -2.159  0.3143E-13  0.1933E+00
     -2.057  0.4462E-11  0.1933E+00
     -1.956  0.3826E-09  0.1933E+00
     -1.855  0.1984E-07  0.1933E+00
     -1.753  0.6231E-06  0.1933E+00
     -1.652  0.1187E-04  0.1933E+00
     -1.551  0.1376E-03  0.1933E+00
     -1.449  0.9735E-03  0.1934E+00
     -1.348  0.4230E-02  0.1939E+00
     -1.247  0.1149E-01  0.1950E+00
     -1.145  0.2036E-01  0.1971E+00
     -1.044  0.2583E-01  0.1997E+00
     -0.943  0.2634E-01  0.2024E+00
     -0.841  0.2209E-01  0.2046E+00
     -0.740  0.1473E-01  0.2061E+00
     -0.639  0.1096E-01  0.2072E+00
     -0.537  0.1593E-01  0.2088E+00
     -0.436  0.2707E-01  0.2116E+00
     -0.335  0.3994E-01  0.2156E+00
     -0.233  0.5296E-01  0.2210E+00
     -0.132  0.6502E-01  0.2276E+00
     -0.031  0.8005E-01  0.2357E+00
      0.071  0.1016E+00  0.2460E+00
      0.172  0.1120E+00  0.2574E+00
      0.273  0.8957E-01  0.2664E+00
      0.375  0.4766E-01  0.2713E+00
      0.476  0.1632E-01  0.2729E+00
      0.577  0.3540E-02  0.2733E+00
      0.679  0.4821E-03  0.2733E+00
      0.780  0.4090E-04  0.2733E+00
      0.881  0.2149E-05  0.2733E+00
      0.983  0.6955E-07  0.2733E+00
      1.084  0.1381E-08  0.2733E+00
      1.185  0.1674E-10  0.2733E+00
      1.287  0.1236E-12  0.2733E+00
      1.388  0.5533E-15  0.2733E+00
      1.490  0.0000E+00  0.2733E+00
      1.591  0.0000E+00  0.2733E+00
      1.692  0.0000E+00  0.2733E+00
      1.794  0.0000E+00  0.2733E+00
      1.895  0.0000E+00  0.2733E+00
      1.996  0.0000E+00  0.2733E+00
      2.098  0.0000E+00  0.2733E+00
      2.199  0.0000E+00  0.2733E+00
