   22   22  300    1
  0.1227273E+04  0.3000000E-08  0.3000000E-08  0.3000000E-08  0.0000000E+00
  1.000000000000000E-004
  CAR 
 unknown system                          
     58      4     41
 
  0.2500000E+00  0.2500000E+00  0.2500000E+00  0.2500000E+00
    1      -26.202622   1.000000
    2      -25.569589   1.000000
    3      -23.459329   1.000000
    4      -22.674977   1.000000
    5      -19.596167   1.000000
    6      -18.237665   1.000000
    7      -17.524101   1.000000
    8      -15.790822   1.000000
    9      -14.947280   1.000000
   10      -14.035049   1.000000
   11      -13.107013   1.000000
   12      -12.374932   1.000000
   13      -12.019641   1.000000
   14      -11.311394   1.000000
   15      -11.150495   1.000000
   16      -10.680917   1.000000
   17      -10.249129   1.000000
   18      -10.110266   1.000000
   19       -9.965647   1.000000
   20       -9.528943   1.000000
   21       -9.384440   1.000000
   22       -9.214889   1.000000
   23       -9.053171   1.000000
   24       -8.844757   1.000000
   25       -8.544890   1.000000
   26       -6.844129   1.000000
   27       -6.217151   1.000000
   28       -5.828586   1.000000
   29       -5.478643   1.000000
   30       -1.149461   0.000000
   31       -0.917623   0.000000
   32       -0.460542   0.000000
   33       -0.266700   0.000000
   34       -0.196415   0.000000
   35       -0.096378   0.000000
   36        0.037371   0.000000
   37        0.123576   0.000000
   38        0.126253   0.000000
   39        0.132398   0.000000
   40        0.172570   0.000000
   41        0.192785   0.000000
 
 -0.2500000E+00  0.2500000E+00  0.2500000E+00  0.2500000E+00
    1      -26.202626   1.000000
    2      -25.569587   1.000000
    3      -23.459329   1.000000
    4      -22.674974   1.000000
    5      -19.596167   1.000000
    6      -18.237664   1.000000
    7      -17.524101   1.000000
    8      -15.790819   1.000000
    9      -14.947284   1.000000
   10      -14.035053   1.000000
   11      -13.107017   1.000000
   12      -12.374933   1.000000
   13      -12.019640   1.000000
   14      -11.311395   1.000000
   15      -11.150494   1.000000
   16      -10.680907   1.000000
   17      -10.249126   1.000000
   18      -10.110255   1.000000
   19       -9.965655   1.000000
   20       -9.528944   1.000000
   21       -9.384430   1.000000
   22       -9.214892   1.000000
   23       -9.053170   1.000000
   24       -8.844764   1.000000
   25       -8.544895   1.000000
   26       -6.844117   1.000000
   27       -6.217160   1.000000
   28       -5.828578   1.000000
   29       -5.478665   1.000000
   30       -1.149459   0.000000
   31       -0.917631   0.000000
   32       -0.460539   0.000000
   33       -0.266689   0.000000
   34       -0.196456   0.000000
   35       -0.096572   0.000000
   36        0.042183   0.000000
   37        0.106459   0.000000
   38        0.121123   0.000000
   39        0.142257   0.000000
   40        0.184210   0.000000
   41        0.189184   0.000000
 
  0.2500000E+00 -0.2500000E+00  0.2500000E+00  0.2500000E+00
    1      -26.202626   1.000000
    2      -25.569588   1.000000
    3      -23.459329   1.000000
    4      -22.674974   1.000000
    5      -19.596164   1.000000
    6      -18.237665   1.000000
    7      -17.524100   1.000000
    8      -15.790819   1.000000
    9      -14.947286   1.000000
   10      -14.035043   1.000000
   11      -13.107016   1.000000
   12      -12.374927   1.000000
   13      -12.019637   1.000000
   14      -11.311390   1.000000
   15      -11.150495   1.000000
   16      -10.680915   1.000000
   17      -10.249138   1.000000
   18      -10.110265   1.000000
   19       -9.965645   1.000000
   20       -9.528943   1.000000
   21       -9.384455   1.000000
   22       -9.214899   1.000000
   23       -9.053173   1.000000
   24       -8.844752   1.000000
   25       -8.544892   1.000000
   26       -6.844109   1.000000
   27       -6.217152   1.000000
   28       -5.828576   1.000000
   29       -5.478657   1.000000
   30       -1.149468   0.000000
   31       -0.917626   0.000000
   32       -0.460542   0.000000
   33       -0.266687   0.000000
   34       -0.196488   0.000000
   35       -0.096382   0.000000
   36        0.042072   0.000000
   37        0.101715   0.000000
   38        0.127934   0.000000
   39        0.138975   0.000000
   40        0.184319   0.000000
   41        0.194758   0.000000
 
 -0.2500000E+00 -0.2500000E+00  0.2500000E+00  0.2500000E+00
    1      -26.202628   1.000000
    2      -25.569586   1.000000
    3      -23.459329   1.000000
    4      -22.674974   1.000000
    5      -19.596164   1.000000
    6      -18.237665   1.000000
    7      -17.524103   1.000000
    8      -15.790818   1.000000
    9      -14.947283   1.000000
   10      -14.035042   1.000000
   11      -13.107012   1.000000
   12      -12.374933   1.000000
   13      -12.019631   1.000000
   14      -11.311390   1.000000
   15      -11.150492   1.000000
   16      -10.680914   1.000000
   17      -10.249127   1.000000
   18      -10.110261   1.000000
   19       -9.965649   1.000000
   20       -9.528940   1.000000
   21       -9.384439   1.000000
   22       -9.214894   1.000000
   23       -9.053171   1.000000
   24       -8.844765   1.000000
   25       -8.544896   1.000000
   26       -6.844111   1.000000
   27       -6.217159   1.000000
   28       -5.828574   1.000000
   29       -5.478676   1.000000
   30       -1.149459   0.000000
   31       -0.917625   0.000000
   32       -0.460543   0.000000
   33       -0.266700   0.000000
   34       -0.196423   0.000000
   35       -0.096691   0.000000
   36        0.043602   0.000000
   37        0.103687   0.000000
   38        0.129040   0.000000
   39        0.135315   0.000000
   40        0.175859   0.000000
   41        0.198877   0.000000
