 vasp.5.4.1 24Jun15 (build Jan 13 2020 12:58:22) complex                        
  
 executed on           IFC91_ompi date 2020.02.03  09:59:13
 running on   15 total cores
 each image running on    1 cores
 distrk:  each k-point on    1 cores,    1 groups
 distr:  one band on NCORES_PER_BAND=   1 cores,    1 groups


--------------------------------------------------------------------------------------------------------


 INCAR:
 POTCAR:    PAW_PBE H 15Jun2001                   
 POTCAR:    PAW_PBE C 08Apr2002                   
 POTCAR:    PAW_PBE N 08Apr2002                   
 POTCAR:    PAW_PBE O 08Apr2002                   
 POTCAR:    PAW_PBE H 15Jun2001                   
   VRHFIN =H: ultrasoft test                                                    
   LEXCH  = PE                                                                  
   EATOM  =    12.4884 eV,    0.9179 Ry                                         
                                                                                
   TITEL  = PAW_PBE H 15Jun2001                                                 
   LULTRA =        F    use ultrasoft PP ?                                      
   IUNSCR =        0    unscreen: 0-lin 1-nonlin 2-no                           
   RPACOR =    0.000    partial core radius                                     
   POMASS =    1.000; ZVAL   =    1.000    mass and valenz                      
   RCORE  =    1.100    outmost cutoff radius                                   
   RWIGS  =    0.700; RWIGS  =    0.370    wigner-seitz radius (au A)           
   ENMAX  =  250.000; ENMIN  =  200.000 eV                                      
   RCLOC  =    0.701    cutoff for local pot                                    
   LCOR   =        T    correct aug charges                                     
   LPAW   =        T    paw PP                                                  
   EAUG   =  400.000                                                            
   RMAX   =    1.123    core radius for proj-oper                               
   RAUG   =    1.200    factor for augmentation sphere                          
   RDEP   =    1.112    radius for radial grids                                 
   RDEPT  =    0.926    core radius for aug-charge                              
                                                                                
   Atomic configuration                                                         
    2 entries                                                                   
     n  l   j            E        occ.                                          
     1  0  0.50        -6.4927   1.0000                                         
     2  1  0.50        -3.4015   0.0000                                         
   Description                                                                  
     l       E           TYP  RCUT    TYP  RCUT                                 
     0     -6.4927494     23  1.100                                             
     0      6.8029130     23  1.100                                             
     1     -4.0817478     23  1.100                                             
  local pseudopotential read in
  atomic valenz-charges read in
  non local Contribution for L=           0  read in
    real space projection operators read in
  non local Contribution for L=           0  read in
    real space projection operators read in
  non local Contribution for L=           1  read in
    real space projection operators read in
    PAW grid and wavefunctions read in
 
   number of l-projection  operators is LMAX  =           3
   number of lm-projection operators is LMMAX =           5
 
 POTCAR:    PAW_PBE C 08Apr2002                   
   VRHFIN =C: s2p2                                                              
   LEXCH  = PE                                                                  
   EATOM  =   147.1560 eV,   10.8157 Ry                                         
                                                                                
   TITEL  = PAW_PBE C 08Apr2002                                                 
   LULTRA =        F    use ultrasoft PP ?                                      
   IUNSCR =        1    unscreen: 0-lin 1-nonlin 2-no                           
   RPACOR =    1.200    partial core radius                                     
   POMASS =   12.011; ZVAL   =    4.000    mass and valenz                      
   RCORE  =    1.500    outmost cutoff radius                                   
   RWIGS  =    1.630; RWIGS  =    0.863    wigner-seitz radius (au A)           
   ENMAX  =  400.000; ENMIN  =  300.000 eV                                      
   ICORE  =        2    local potential                                         
   LCOR   =        T    correct aug charges                                     
   LPAW   =        T    paw PP                                                  
   EAUG   =  644.873                                                            
   DEXC   =    0.000                                                            
   RMAX   =    1.529    core radius for proj-oper                               
   RAUG   =    1.300    factor for augmentation sphere                          
   RDEP   =    1.501    radius for radial grids                                 
   RDEPT  =    1.300    core radius for aug-charge                              
                                                                                
   Atomic configuration                                                         
    4 entries                                                                   
     n  l   j            E        occ.                                          
     1  0  0.50      -273.3789   2.0000                                         
     2  0  0.50       -13.7508   2.0000                                         
     2  1  0.50        -5.2854   2.0000                                         
     3  2  1.50        -5.4423   0.0000                                         
   Description                                                                  
     l       E           TYP  RCUT    TYP  RCUT                                 
     0    -13.7508458     23  1.200                                             
     0     -8.2022199     23  1.200                                             
     1     -5.2854383     23  1.500                                             
     1     34.0145650     23  1.500                                             
     2     -5.4423304      7  1.500                                             
  local pseudopotential read in
  partial core-charges read in
  partial kinetic energy density read in
  atomic valenz-charges read in
  non local Contribution for L=           0  read in
    real space projection operators read in
  non local Contribution for L=           0  read in
    real space projection operators read in
  non local Contribution for L=           1  read in
    real space projection operators read in
  non local Contribution for L=           1  read in
    real space projection operators read in
    PAW grid and wavefunctions read in
 
   number of l-projection  operators is LMAX  =           4
   number of lm-projection operators is LMMAX =           8
 
 POTCAR:    PAW_PBE N 08Apr2002                   
   VRHFIN =N: s2p3                                                              
   LEXCH  = PE                                                                  
   EATOM  =   264.5486 eV,   19.4438 Ry                                         
                                                                                
   TITEL  = PAW_PBE N 08Apr2002                                                 
   LULTRA =        F    use ultrasoft PP ?                                      
   IUNSCR =        1    unscreen: 0-lin 1-nonlin 2-no                           
   RPACOR =    1.200    partial core radius                                     
   POMASS =   14.001; ZVAL   =    5.000    mass and valenz                      
   RCORE  =    1.500    outmost cutoff radius                                   
   RWIGS  =    1.400; RWIGS  =    0.741    wigner-seitz radius (au A)           
   ENMAX  =  400.000; ENMIN  =  300.000 eV                                      
   ICORE  =        2    local potential                                         
   LCOR   =        T    correct aug charges                                     
   LPAW   =        T    paw PP                                                  
   EAUG   =  627.112                                                            
   DEXC   =    0.000                                                            
   RMAX   =    1.529    core radius for proj-oper                               
   RAUG   =    1.300    factor for augmentation sphere                          
   RDEP   =    1.514    radius for radial grids                                 
   RDEPT  =    1.338    core radius for aug-charge                              
                                                                                
   Atomic configuration                                                         
    4 entries                                                                   
     n  l   j            E        occ.                                          
     1  0  0.50      -384.7179   2.0000                                         
     2  0  0.50       -18.5828   2.0000                                         
     2  1  0.50        -7.0898   3.0000                                         
     3  2  1.50        -6.8029   0.0000                                         
   Description                                                                  
     l       E           TYP  RCUT    TYP  RCUT                                 
     0    -18.5828119     23  1.200                                             
     0    -13.5018863     23  1.200                                             
     1     -7.0897853     23  1.500                                             
     1      9.5240782     23  1.500                                             
     2     -6.8029130      7  1.500                                             
  local pseudopotential read in
  partial core-charges read in
  partial kinetic energy density read in
  atomic valenz-charges read in
  non local Contribution for L=           0  read in
    real space projection operators read in
  non local Contribution for L=           0  read in
    real space projection operators read in
  non local Contribution for L=           1  read in
    real space projection operators read in
  non local Contribution for L=           1  read in
    real space projection operators read in
    PAW grid and wavefunctions read in
 
   number of l-projection  operators is LMAX  =           4
   number of lm-projection operators is LMMAX =           8
 
 POTCAR:    PAW_PBE O 08Apr2002                   
   VRHFIN =O: s2p4                                                              
   LEXCH  = PE                                                                  
   EATOM  =   432.3788 eV,   31.7789 Ry                                         
                                                                                
   TITEL  = PAW_PBE O 08Apr2002                                                 
   LULTRA =        F    use ultrasoft PP ?                                      
   IUNSCR =        1    unscreen: 0-lin 1-nonlin 2-no                           
   RPACOR =    1.200    partial core radius                                     
   POMASS =   16.000; ZVAL   =    6.000    mass and valenz                      
   RCORE  =    1.520    outmost cutoff radius                                   
   RWIGS  =    1.550; RWIGS  =    0.820    wigner-seitz radius (au A)           
   ENMAX  =  400.000; ENMIN  =  300.000 eV                                      
   ICORE  =        2    local potential                                         
   LCOR   =        T    correct aug charges                                     
   LPAW   =        T    paw PP                                                  
   EAUG   =  605.392                                                            
   DEXC   =    0.000                                                            
   RMAX   =    1.553    core radius for proj-oper                               
   RAUG   =    1.300    factor for augmentation sphere                          
   RDEP   =    1.550    radius for radial grids                                 
   RDEPT  =    1.329    core radius for aug-charge                              
                                                                                
   Atomic configuration                                                         
    4 entries                                                                   
     n  l   j            E        occ.                                          
     1  0  0.50      -514.6923   2.0000                                         
     2  0  0.50       -23.9615   2.0000                                         
     2  1  0.50        -9.0305   4.0000                                         
     3  2  1.50        -9.5241   0.0000                                         
   Description                                                                  
     l       E           TYP  RCUT    TYP  RCUT                                 
     0    -23.9615318     23  1.200                                             
     0     -9.5240782     23  1.200                                             
     1     -9.0304911     23  1.520                                             
     1      8.1634956     23  1.520                                             
     2     -9.5240782      7  1.500                                             
  local pseudopotential read in
  partial core-charges read in
  partial kinetic energy density read in
  kinetic energy density of atom read in
  atomic valenz-charges read in
  non local Contribution for L=           0  read in
    real space projection operators read in
  non local Contribution for L=           0  read in
    real space projection operators read in
  non local Contribution for L=           1  read in
    real space projection operators read in
  non local Contribution for L=           1  read in
    real space projection operators read in
    PAW grid and wavefunctions read in
 
   number of l-projection  operators is LMAX  =           4
   number of lm-projection operators is LMMAX =           8
 
 Optimization of the real space projectors (new method)

 maximal supplied QI-value         = 34.20
 optimisation between [QCUT,QGAM] = [  9.92, 20.18] = [ 27.55,114.04] Ry 
 Optimized for a Real-space Cutoff    1.26 Angstroem

   l    n(q)    QCUT    max X(q) W(low)/X(q) W(high)/X(q)  e(spline) 
   0      8     9.919    19.460    0.50E-03    0.23E-03    0.29E-06
   0      8     9.919    12.209    0.48E-03    0.23E-03    0.28E-06
   1      7     9.919     4.655    0.17E-03    0.75E-03    0.30E-06
 Optimization of the real space projectors (new method)

 maximal supplied QI-value         = 25.13
 optimisation between [QCUT,QGAM] = [ 10.05, 20.36] = [ 28.30,116.06] Ry 
 Optimized for a Real-space Cutoff    1.30 Angstroem

   l    n(q)    QCUT    max X(q) W(low)/X(q) W(high)/X(q)  e(spline) 
   0      8    10.053   115.676    0.49E-03    0.72E-03    0.18E-06
   0      8    10.053    87.132    0.49E-03    0.71E-03    0.18E-06
   1      7    10.053     4.429    0.32E-03    0.31E-03    0.18E-06
   1      7    10.053     2.733    0.23E-03    0.19E-03    0.20E-06
 Optimization of the real space projectors (new method)

 maximal supplied QI-value         = 25.13
 optimisation between [QCUT,QGAM] = [ 10.05, 20.36] = [ 28.30,116.06] Ry 
 Optimized for a Real-space Cutoff    1.65 Angstroem

   l    n(q)    QCUT    max X(q) W(low)/X(q) W(high)/X(q)  e(spline) 
   0     10    10.053    79.467    0.76E-04    0.72E-04    0.56E-06
   0     10    10.053    66.151    0.76E-04    0.72E-04    0.55E-06
   1     10    10.053     8.350    0.25E-03    0.92E-03    0.41E-05
   1     10    10.053     5.531    0.27E-03    0.10E-02    0.45E-05
 Optimization of the real space projectors (new method)

 maximal supplied QI-value         = 24.76
 optimisation between [QCUT,QGAM] = [ 10.15, 20.30] = [ 28.85,115.39] Ry 
 Optimized for a Real-space Cutoff    1.38 Angstroem

   l    n(q)    QCUT    max X(q) W(low)/X(q) W(high)/X(q)  e(spline) 
   0      8    10.150    20.381    0.22E-03    0.32E-03    0.29E-06
   0      8    10.150    15.268    0.23E-03    0.35E-03    0.30E-06
   1      8    10.150     5.964    0.46E-03    0.53E-03    0.21E-06
   1      8    10.150     5.382    0.38E-03    0.45E-03    0.19E-06
  PAW_PBE H 15Jun2001                   :
 energy of atom  1       EATOM=  -12.4884
 kinetic energy error for atom=    0.0098 (will be added to EATOM!!)
  PAW_PBE C 08Apr2002                   :
 energy of atom  2       EATOM= -147.1560
 kinetic energy error for atom=    0.0288 (will be added to EATOM!!)
  PAW_PBE N 08Apr2002                   :
 energy of atom  3       EATOM= -264.5486
 kinetic energy error for atom=    0.0736 (will be added to EATOM!!)
  PAW_PBE O 08Apr2002                   :
 energy of atom  4       EATOM= -432.3788
 kinetic energy error for atom=    0.1156 (will be added to EATOM!!)
 
 
 POSCAR: H12 C6 N2 O2                            
  positions in direct lattice
  velocities in cartesian coordinates
 exchange correlation table for  LEXCH =        8
   RHO(1)=    0.500       N(1)  =     2000
   RHO(2)=  100.500       N(2)  =     4000

 VTST: version 3.2, (02/03/18)

 CHAIN: initializing optimizer
 
 OPT: Using FIRE optimizer
 OPT: FIRE, Init
 OPT: FIRE, MAXMOVE       0.20000
 OPT: FIRE, TIMESTEP      0.10000
 OPT: FIRE, FTIMEMAX      1.00000
 OPT: FIRE, FTIMEINC      1.10000
 OPT: FIRE, FTIMEDEC      0.50000
 OPT: FIRE, FALPHADEC     0.99000
 OPT: FIRE, FALPHA        0.10000
 OPT: FIRE, FNMIN         5
 
 CHAIN: Read ICHAIN            0
 CHAIN: Running the NEB
 NEB:          SPRING     -5.000000
 NEB:          LCLIMB      T
 NEB:     LTANGENTOLD      F
 NEB:           LDNEB      F
 NEB:        LDNEBORG      F
 NEB:        LNEBCELL      F
 NEB:          EFIRST      0.000000
 NEB:           ELAST      0.000000
 
 POSCAR: H12 C6 N2 O2                            
  positions in direct lattice
  No initial velocities read in
 
 POSCAR: H12 C6 N2 O2                            
  positions in direct lattice
  No initial velocities read in
 


--------------------------------------------------------------------------------------------------------


 ion  position               nearest neighbor table
   1  0.383  0.553  0.510-  13 1.10
   2  0.386  0.505  0.474-  13 1.09
   3  0.380  0.498  0.533-  13 1.10
   4  0.450  0.456  0.489-  19 1.02
   5  0.513  0.477  0.556-  15 1.11
   6  0.555  0.411  0.521-  16 1.10
   7  0.513  0.408  0.480-  16 1.10
   8  0.498  0.399  0.536-  16 1.10
   9  0.519  0.552  0.509-  20 1.03
  10  0.608  0.550  0.462-  18 1.09
  11  0.560  0.565  0.429-  18 1.11
  12  0.576  0.599  0.476-  18 1.10
  13  0.396  0.519  0.507-   2 1.09   1 1.10   3 1.10  14 1.52
  14  0.445  0.519  0.515-  21 1.25  19 1.36  13 1.52
  15  0.512  0.468  0.520-   5 1.11  19 1.48  16 1.53  17 1.56
  16  0.520  0.418  0.514-   8 1.10   6 1.10   7 1.10  15 1.53
  17  0.551  0.493  0.496-  22 1.24  20 1.35  15 1.56
  18  0.574  0.564  0.464-  10 1.09  12 1.10  11 1.11  20 1.45
  19  0.468  0.481  0.503-   4 1.02  14 1.36  15 1.48
  20  0.547  0.538  0.493-   9 1.03  17 1.35  18 1.45
  21  0.464  0.551  0.532-  14 1.25
  22  0.583  0.472  0.480-  17 1.24
 
  LATTYP: Found a simple cubic cell.
 ALAT       =    30.0000000000
  
  Lattice vectors:
  
 A1 = (  30.0000000000,   0.0000000000,   0.0000000000)
 A2 = (   0.0000000000,  30.0000000000,   0.0000000000)
 A3 = (   0.0000000000,   0.0000000000,  30.0000000000)


Analysis of symmetry for initial positions (statically):
=====================================================================
 Subroutine PRICEL returns:
 Original cell was already a primitive cell.
 

 Routine SETGRP: Setting up the symmetry group for a 
 simple cubic supercell.


 Subroutine GETGRP returns: Found  1 space group operations
 (whereof  1 operations were pure point group operations)
 out of a pool of 48 trial point group operations.


The static configuration has the point symmetry C_1 .


Analysis of symmetry for dynamics (positions and initial velocities):
=====================================================================
 Subroutine PRICEL returns:
 Original cell was already a primitive cell.
 

 Routine SETGRP: Setting up the symmetry group for a 
 simple cubic supercell.


 Subroutine GETGRP returns: Found  1 space group operations
 (whereof  1 operations were pure point group operations)
 out of a pool of 48 trial point group operations.


The dynamic configuration has the point symmetry C_1 .
 
 
 KPOINTS: Mo2C                                    

Automatic generation of k-mesh.
Space group operators:
 irot       det(A)        alpha          n_x          n_y          n_z        tau_x        tau_y        tau_z
    1     1.000000     0.000000     1.000000     0.000000     0.000000     0.000000     0.000000     0.000000
 
 Subroutine IBZKPT returns following result:
 ===========================================
 
 Found      4 irreducible k-points:
 
 Following reciprocal coordinates:
            Coordinates               Weight
  0.250000  0.250000  0.250000      2.000000
 -0.250000  0.250000  0.250000      2.000000
  0.250000 -0.250000  0.250000      2.000000
 -0.250000 -0.250000  0.250000      2.000000
 
 Following cartesian coordinates:
            Coordinates               Weight
  0.008333  0.008333  0.008333      2.000000
 -0.008333  0.008333  0.008333      2.000000
  0.008333 -0.008333  0.008333      2.000000
 -0.008333 -0.008333  0.008333      2.000000
 


--------------------------------------------------------------------------------------------------------




 Dimension of arrays:
   k-points           NKPTS =      4   k-points in BZ     NKDIM =      4   number of bands    NBANDS=     41
   number of dos      NEDOS =    301   number of ions     NIONS =     22
   non local maximal  LDIM  =      4   non local SUM 2l+1 LMDIM =      8
   total plane-waves  NPLWV = ******
   max r-space proj   IRMAX =   2395   max aug-charges    IRDMAX=   1821
   dimension x,y,z NGX =   150 NGY =  150 NGZ =  150
   dimension x,y,z NGXF=   300 NGYF=  300 NGZF=  300
   support grid    NGXF=   300 NGYF=  300 NGZF=  300
   ions per type =              12   6   2   2
 NGX,Y,Z   is equivalent  to a cutoff of   8.31,  8.31,  8.31 a.u.
 NGXF,Y,Z  is equivalent  to a cutoff of  16.62, 16.62, 16.62 a.u.


 I would recommend the setting:
   dimension x,y,z NGX =   147 NGY =  147 NGZ =  147
 SYSTEM =  unknown system                          
 POSCAR =  H12 C6 N2 O2                            

 Startparameter for this run:
   NWRITE =      2    write-flag & timer
   PREC   = normal    normal or accurate (medium, high low for compatibility)
   ISTART =      0    job   : 0-new  1-cont  2-samecut
   ICHARG =      2    charge: 1-file 2-atom 10-const
   ISPIN  =      1    spin polarized calculation?
   LNONCOLLINEAR =      F non collinear calculations
   LSORBIT =      F    spin-orbit coupling
   INIWAV =      1    electr: 0-lowe 1-rand  2-diag
   LASPH  =      F    aspherical Exc in radial PAW
   METAGGA=      F    non-selfconsistent MetaGGA calc.

 Electronic Relaxation 1
   ENCUT  =  400.0 eV  29.40 Ry    5.42 a.u.  48.92 48.92 48.92*2*pi/ulx,y,z
   ENINI  =  400.0     initial cutoff
   ENAUG  =  644.9 eV  augmentation charge cutoff
   NELM   =    500;   NELMIN=  6; NELMDL= -5     # of ELM steps 
   EDIFF  = 0.1E-03   stopping-criterion for ELM
   LREAL  =      T    real-space projection
   NLSPLINE    = F    spline interpolate recip. space projectors
   LCOMPAT=      F    compatible to vasp.4.4
   GGA_COMPAT  = T    GGA compatible to vasp.4.4-vasp.4.6
   LMAXPAW     = -100 max onsite density
   LMAXMIX     =    2 max onsite mixed and CHGCAR
   VOSKOWN=      0    Vosko Wilk Nusair interpolation
   ROPT   =   -0.00050  -0.00050  -0.00050  -0.00050
 Ionic relaxation
   EDIFFG = -.1E+00   stopping-criterion for IOM
   NSW    =    300    number of steps for IOM
   NBLOCK =      1;   KBLOCK =    300    inner block; outer block 
   IBRION =      3    ionic relax: 0-MD 1-quasi-New 2-CG
   NFREE  =      0    steps in history (QN), initial steepest desc. (CG)
   ISIF   =      2    stress and relaxation
   IWAVPR =     11    prediction:  0-non 1-charg 2-wave 3-comb
   ISYM   =      2    0-nonsym 1-usesym 2-fastsym
   LCORR  =      T    Harris-Foulkes like correction to forces

   POTIM  = 0.0000    time-step for ionic-motion
   TEIN   =    0.0    initial temperature
   TEBEG  =    0.0;   TEEND  =   0.0 temperature during run
   SMASS  =   2.00    Nose mass-parameter (am)
   estimated Nose-frequenzy (Omega)   =  0.24E+10 period in steps =  0.00 mass=   0.137E-25a.u.
   SCALEE = 1.0000    scale energy and forces
   NPACO  =    256;   APACO  = 16.0  distance and # of slots for P.C.
   PSTRESS=    0.0 pullay stress

  Mass of Ions in am
   POMASS =   1.00 12.01 14.00 16.00
  Ionic Valenz
   ZVAL   =   1.00  4.00  5.00  6.00
  Atomic Wigner-Seitz radii
   RWIGS  =  -1.00 -1.00 -1.00 -1.00
  virtual crystal weights 
   VCA    =   1.00  1.00  1.00  1.00
   NELECT =      58.0000    total number of electrons
   NUPDOWN=      -1.0000    fix difference up-down

 DOS related values:
   EMIN   =  10.00;   EMAX   =-10.00  energy-range for DOS
   EFERMI =   0.00
   ISMEAR =     0;   SIGMA  =   0.20  broadening in eV -4-tet -1-fermi 0-gaus

 Electronic relaxation 2 (details)
   IALGO  =     38    algorithm
   LDIAG  =      T    sub-space diagonalisation (order eigenvalues)
   LSUBROT=      F    optimize rotation matrix (better conditioning)
   TURBO    =      0    0=normal 1=particle mesh
   IRESTART =      0    0=no restart 2=restart with 2 vectors
   NREBOOT  =      0    no. of reboots
   NMIN     =      0    reboot dimension
   EREF     =   0.00    reference energy to select bands
   IMIX   =      4    mixing-type and parameters
     AMIX     =   0.40;   BMIX     =  1.00
     AMIX_MAG =   1.60;   BMIX_MAG =  1.00
     AMIN     =   0.10
     WC   =   100.;   INIMIX=   1;  MIXPRE=   1;  MAXMIX= -45

 Intra band minimization:
   WEIMIN = 0.0010     energy-eigenvalue tresh-hold
   EBREAK =  0.61E-06  absolut break condition
   DEPER  =   0.30     relativ break condition  

   TIME   =   0.40     timestep for ELM

  volume/ion in A,a.u.               =    1227.27      8282.05
  Fermi-wavevector in a.u.,A,eV,Ry     =   0.211234  0.399174  0.607087  0.044620
  Thomas-Fermi vector in A             =   0.980021
 
 Write flags
   LWAVE  =      F    write WAVECAR
   LCHARG =      F    write CHGCAR
   LVTOT  =      F    write LOCPOT, total local potential
   LVHAR  =      F    write LOCPOT, Hartree potential only
   LELF   =      F    write electronic localiz. function (ELF)
   LORBIT =      0    0 simple, 1 ext, 2 COOP (PROOUT)


 Dipole corrections
   LMONO  =      F    monopole corrections only (constant potential shift)
   LDIPOL =      F    correct potential (dipole corrections)
   IDIPOL =      0    1-x, 2-y, 3-z, 4-all directions 
   EPSILON=  1.0000000 bulk dielectric constant

 Exchange correlation treatment:
   GGA     =    PE    GGA type
   LEXCH   =     8    internal setting for exchange type
   VOSKOWN=      0    Vosko Wilk Nusair interpolation
   LHFCALC =     F    Hartree Fock is set to
   LHFONE  =     F    Hartree Fock one center treatment
   AEXX    =    0.0000 exact exchange contribution

 Linear response parameters
   LEPSILON=     F    determine dielectric tensor
   LRPA    =     F    only Hartree local field effects (RPA)
   LNABLA  =     F    use nabla operator in PAW spheres
   LVEL    =     F    velocity operator in full k-point grid
   LINTERFAST=   F  fast interpolation
   KINTER  =     0    interpolate to denser k-point grid
   CSHIFT  =0.1000    complex shift for real part using Kramers Kronig
   OMEGAMAX=  -1.0    maximum frequency
   DEG_THRESHOLD= 0.2000000E-02 threshold for treating states as degnerate
   RTIME   =    0.100 relaxation time in fs

 Orbital magnetization related:
   ORBITALMAG=     F  switch on orbital magnetization
   LCHIMAG   =     F  perturbation theory with respect to B field
   DQ        =  0.001000  dq finite difference perturbation B field



--------------------------------------------------------------------------------------------------------


 quickmin algorithm: (dynamic with friction)
 charge density and potential will be updated during run
 non-spin polarized calculation
 Variant of blocked Davidson
 Davidson routine will perform the subspace rotation
 perform sub-space diagonalisation
    after iterative eigenvector-optimisation
 modified Broyden-mixing scheme, WC =      100.0
 initial mixing is a Kerker type mixing with AMIX =  0.4000 and BMIX =      1.0000
 Hartree-type preconditioning will be used
 using additional bands           12
 real space projection scheme for non local part
 use partial core corrections
 calculate Harris-corrections to forces 
   (improved forces if not selfconsistent)
 use gradient corrections 
 use of overlap-Matrix (Vanderbilt PP)
 Gauss-broadening in eV      SIGMA  =   0.20


--------------------------------------------------------------------------------------------------------


  energy-cutoff  :      400.00
  volume of cell :    27000.00
      direct lattice vectors                 reciprocal lattice vectors
    30.000000000  0.000000000  0.000000000     0.033333333  0.000000000  0.000000000
     0.000000000 30.000000000  0.000000000     0.000000000  0.033333333  0.000000000
     0.000000000  0.000000000 30.000000000     0.000000000  0.000000000  0.033333333

  length of vectors
    30.000000000 30.000000000 30.000000000     0.033333333  0.033333333  0.033333333


 
 k-points in units of 2pi/SCALE and weight: Mo2C                                    
   0.00833333  0.00833333  0.00833333       0.250
  -0.00833333  0.00833333  0.00833333       0.250
   0.00833333 -0.00833333  0.00833333       0.250
  -0.00833333 -0.00833333  0.00833333       0.250
 
 k-points in reciprocal lattice and weights: Mo2C                                    
   0.25000000  0.25000000  0.25000000       0.250
  -0.25000000  0.25000000  0.25000000       0.250
   0.25000000 -0.25000000  0.25000000       0.250
  -0.25000000 -0.25000000  0.25000000       0.250
 
 position of ions in fractional coordinates (direct lattice) 
   0.38296509  0.55291554  0.50973226
   0.38582257  0.50489593  0.47427728
   0.38012934  0.49832477  0.53292657
   0.44974115  0.45593784  0.48895030
   0.51272959  0.47731458  0.55572013
   0.55468987  0.41069833  0.52120608
   0.51320009  0.40826442  0.47968530
   0.49815207  0.39861228  0.53641818
   0.51921244  0.55191392  0.50914876
   0.60765124  0.55037413  0.46236126
   0.56033860  0.56505060  0.42938522
   0.57609268  0.59891070  0.47592122
   0.39553489  0.51868243  0.50662011
   0.44549331  0.51879291  0.51453032
   0.51226613  0.46844819  0.51994056
   0.51958676  0.41832714  0.51431157
   0.55104347  0.49344572  0.49604045
   0.57416462  0.56445177  0.46365752
   0.46778045  0.48098575  0.50306714
   0.54664537  0.53822568  0.49343368
   0.46418994  0.55129646  0.53242060
   0.58275677  0.47238494  0.48033687
 
 position of ions in cartesian coordinates  (Angst):
  11.48895257 16.58746615 15.29196785
  11.57467702 15.14687776 14.22831841
  11.40388011 14.94974309 15.98779719
  13.49223458 13.67813523 14.66850887
  15.38188763 14.31943738 16.67160391
  16.64069616 12.32094989 15.63618238
  15.39600260 12.24793275 14.39055908
  14.94456207 11.95836828 16.09254527
  15.57637315 16.55741764 15.27446268
  18.22953717 16.51122382 13.87083769
  16.81015811 16.95151794 12.88155648
  17.28278032 17.96732096 14.27763666
  11.86604666 15.56047304 15.19860331
  13.36479937 15.56378730 15.43590965
  15.36798388 14.05344566 15.59821676
  15.58760279 12.54981433 15.42934709
  16.53130412 14.80337157 14.88121362
  17.22493855 16.93355317 13.90972570
  14.03341342 14.42957251 15.09201420
  16.39936100 16.14677037 14.80301054
  13.92569830 16.53889390 15.97261796
  17.48270300 14.17154819 14.41010605
 


--------------------------------------------------------------------------------------------------------


 k-point  1 :   0.2500 0.2500 0.2500  plane waves:  490454
 k-point  2 :  -0.2500 0.2500 0.2500  plane waves:  490454
 k-point  3 :   0.2500-0.2500 0.2500  plane waves:  490454
 k-point  4 :  -0.2500-0.2500 0.2500  plane waves:  490454

 maximum and minimum number of plane-waves per node :    490454   490454

 maximum number of plane-waves:    490454
 maximum index in each direction: 
   IXMAX=   49   IYMAX=   49   IZMAX=   48
   IXMIN=  -49   IYMIN=  -49   IZMIN=  -49

 WARNING: aliasing errors must be expected set NGX to 198 to avoid them
 WARNING: aliasing errors must be expected set NGY to 198 to avoid them
 WARNING: aliasing errors must be expected set NGZ to 196 to avoid them
 aliasing errors are usually negligible using standard VASP settings
 and one can safely disregard these warnings

 serial   3D FFT for wavefunctions
 parallel 3D FFT for charge:
    minimum data exchange during FFTs selected (reduces bandwidth)


 total amount of memory used by VASP on root node  4333706. kBytes
========================================================================

   base      :      30000. kBytes
   nonlr-proj:       2401. kBytes
   fftplans  :     924480. kBytes
   grid      :    2089440. kBytes
   one-center:         67. kBytes
   wavefun   :    1287318. kBytes
 
     INWAV:  cpu time    0.0010: real time    0.0002
 Broyden mixing: mesh for mixing (old mesh)
   NGX = 97   NGY = 97   NGZ = 97
  (NGX  =300   NGY  =300   NGZ  =300)
  gives a total of 912673 points

 initial charge density was supplied:
 charge density of overlapping atoms calculated
 number of electron      58.0000000 magnetization 
 keeping initial charge density in first step


--------------------------------------------------------------------------------------------------------


 Maximum index for non-local projection operator         2275
 Maximum index for augmentation-charges         1567 (set IRDMAX)


--------------------------------------------------------------------------------------------------------


 First call to EWALD:  gamma=   0.059
 Maximum number of real-space cells 3x 3x 3
 Maximum number of reciprocal cells 3x 3x 3

 FEWALD executed in parallel
    FEWALD:  cpu time    0.0050: real time    0.0047


----------------------------------------- Iteration    1(   1)  ---------------------------------------


    POTLOK:  cpu time   19.9850: real time   19.9688
    SETDIJ:  cpu time    0.0290: real time    0.0282
     EDDAV:  cpu time  252.7716: real time  252.5618
       DOS:  cpu time    0.0010: real time    0.0009
    --------------------------------------------
      LOOP:  cpu time  272.7885: real time  272.5642

 eigenvalue-minimisations  :   392
 total energy-change (2. order) : 0.6098964E+03  (-0.7965323E+03)
 number of electron      58.0000000 magnetization 
 augmentation part       58.0000000 magnetization 

 Free energy of the ion-electron system (eV)
  ---------------------------------------------------
  alpha Z        PSCENC =         0.51957394
  Ewald energy   TEWEN  =      6094.00564238
  -Hartree energ DENC   =     -7836.36074314
  -exchange      EXHF   =         0.00000000
  -V(xc)+E(xc)   XCENC  =       202.11755189
  PAW double counting   =      1779.70502452    -1789.20730229
  entropy T*S    EENTRO =        -0.80303401
  eigenvalues    EBANDS =      -266.06365769
  atomic energy  EATOM  =      2425.98333211
  Solvation  Ediel_sol  =         0.00000000
  ---------------------------------------------------
  free energy    TOTEN  =       609.89638770 eV

  energy without entropy =      610.69942172  energy(sigma->0) =      610.29790471


--------------------------------------------------------------------------------------------------------




----------------------------------------- Iteration    1(   2)  ---------------------------------------


     EDDAV:  cpu time  346.8733: real time  346.5865
       DOS:  cpu time    0.0010: real time    0.0008
    --------------------------------------------
      LOOP:  cpu time  346.8763: real time  346.5907

 eigenvalue-minimisations  :   579
 total energy-change (2. order) :-0.3366284E+03  (-0.3259276E+03)
 number of electron      58.0000000 magnetization 
 augmentation part       58.0000000 magnetization 

 Free energy of the ion-electron system (eV)
  ---------------------------------------------------
  alpha Z        PSCENC =         0.51957394
  Ewald energy   TEWEN  =      6094.00564238
  -Hartree energ DENC   =     -7836.36074314
  -exchange      EXHF   =         0.00000000
  -V(xc)+E(xc)   XCENC  =       202.11755189
  PAW double counting   =      1779.70502452    -1789.20730229
  entropy T*S    EENTRO =        -0.48844349
  eigenvalues    EBANDS =      -603.00664467
  atomic energy  EATOM  =      2425.98333211
  Solvation  Ediel_sol  =         0.00000000
  ---------------------------------------------------
  free energy    TOTEN  =       273.26799125 eV

  energy without entropy =      273.75643474  energy(sigma->0) =      273.51221299


--------------------------------------------------------------------------------------------------------




----------------------------------------- Iteration    1(   3)  ---------------------------------------


     EDDAV:  cpu time  308.2731: real time  308.0185
       DOS:  cpu time    0.0000: real time    0.0006
    --------------------------------------------
      LOOP:  cpu time  308.2741: real time  308.0218

 eigenvalue-minimisations  :   504
 total energy-change (2. order) :-0.3181975E+03  (-0.3081888E+03)
 number of electron      58.0000000 magnetization 
 augmentation part       58.0000000 magnetization 

 Free energy of the ion-electron system (eV)
  ---------------------------------------------------
  alpha Z        PSCENC =         0.51957394
  Ewald energy   TEWEN  =      6094.00564238
  -Hartree energ DENC   =     -7836.36074314
  -exchange      EXHF   =         0.00000000
  -V(xc)+E(xc)   XCENC  =       202.11755189
  PAW double counting   =      1779.70502452    -1789.20730229
  entropy T*S    EENTRO =        -0.00008161
  eigenvalues    EBANDS =      -921.69246756
  atomic energy  EATOM  =      2425.98333211
  Solvation  Ediel_sol  =         0.00000000
  ---------------------------------------------------
  free energy    TOTEN  =       -44.92946977 eV

  energy without entropy =      -44.92938816  energy(sigma->0) =      -44.92942896


--------------------------------------------------------------------------------------------------------




----------------------------------------- Iteration    1(   4)  ---------------------------------------


     EDDAV:  cpu time  254.5723: real time  254.3614
       DOS:  cpu time    0.0000: real time    0.0005
    --------------------------------------------
      LOOP:  cpu time  254.5743: real time  254.3651

 eigenvalue-minimisations  :   398
 total energy-change (2. order) :-0.9176990E+02  (-0.9159560E+02)
 number of electron      58.0000000 magnetization 
 augmentation part       58.0000000 magnetization 

 Free energy of the ion-electron system (eV)
  ---------------------------------------------------
  alpha Z        PSCENC =         0.51957394
  Ewald energy   TEWEN  =      6094.00564238
  -Hartree energ DENC   =     -7836.36074314
  -exchange      EXHF   =         0.00000000
  -V(xc)+E(xc)   XCENC  =       202.11755189
  PAW double counting   =      1779.70502452    -1789.20730229
  entropy T*S    EENTRO =         0.00000000
  eigenvalues    EBANDS =     -1013.46244739
  atomic energy  EATOM  =      2425.98333211
  Solvation  Ediel_sol  =         0.00000000
  ---------------------------------------------------
  free energy    TOTEN  =      -136.69936799 eV

  energy without entropy =     -136.69936799  energy(sigma->0) =     -136.69936799


--------------------------------------------------------------------------------------------------------




----------------------------------------- Iteration    1(   5)  ---------------------------------------


     EDDAV:  cpu time  280.1344: real time  279.9028
       DOS:  cpu time    0.0000: real time    0.0005
    CHARGE:  cpu time   16.6495: real time   16.6360
    MIXING:  cpu time    0.5999: real time    0.5988
    --------------------------------------------
      LOOP:  cpu time  297.3848: real time  297.1415

 eigenvalue-minimisations  :   448
 total energy-change (2. order) :-0.5112163E+01  (-0.5096168E+01)
 number of electron      58.0000022 magnetization 
 augmentation part        2.9700510 magnetization 

 Broyden mixing:
  rms(total) = 0.19537E+01    rms(broyden)= 0.19517E+01
  rms(prec ) = 0.20290E+01
  weight for this iteration     100.00

 Free energy of the ion-electron system (eV)
  ---------------------------------------------------
  alpha Z        PSCENC =         0.51957394
  Ewald energy   TEWEN  =      6094.00564238
  -Hartree energ DENC   =     -7836.36074314
  -exchange      EXHF   =         0.00000000
  -V(xc)+E(xc)   XCENC  =       202.11755189
  PAW double counting   =      1779.70502452    -1789.20730229
  entropy T*S    EENTRO =         0.00000000
  eigenvalues    EBANDS =     -1018.57461064
  atomic energy  EATOM  =      2425.98333211
  Solvation  Ediel_sol  =         0.00000000
  ---------------------------------------------------
  free energy    TOTEN  =      -141.81153123 eV

  energy without entropy =     -141.81153123  energy(sigma->0) =     -141.81153123


--------------------------------------------------------------------------------------------------------




----------------------------------------- Iteration    1(   6)  ---------------------------------------


    POTLOK:  cpu time   18.3042: real time   18.2896
    SETDIJ:  cpu time    0.0280: real time    0.0282
     EDDAV:  cpu time  267.7503: real time  267.5267
       DOS:  cpu time    0.0000: real time    0.0005
    CHARGE:  cpu time   16.5785: real time   16.5648
    MIXING:  cpu time    0.6219: real time    0.6221
    --------------------------------------------
      LOOP:  cpu time  303.2849: real time  303.0349

 eigenvalue-minimisations  :   421
 total energy-change (2. order) : 0.1009615E+02  (-0.2388049E+01)
 number of electron      58.0000016 magnetization 
 augmentation part        2.6305325 magnetization 

 Broyden mixing:
  rms(total) = 0.99810E+00    rms(broyden)= 0.99766E+00
  rms(prec ) = 0.10263E+01
  weight for this iteration     100.00

 eigenvalues of (default mixing * dielectric matrix)
  average eigenvalue GAMMA=   1.2763
  1.2763

 Free energy of the ion-electron system (eV)
  ---------------------------------------------------
  alpha Z        PSCENC =         0.51957394
  Ewald energy   TEWEN  =      6094.00564238
  -Hartree energ DENC   =     -7951.26350246
  -exchange      EXHF   =         0.00000000
  -V(xc)+E(xc)   XCENC  =       208.17521944
  PAW double counting   =      2775.04867025    -2785.90785713
  entropy T*S    EENTRO =         0.00000000
  eigenvalues    EBANDS =      -898.27646290
  atomic energy  EATOM  =      2425.98333211
  Solvation  Ediel_sol  =         0.00000000
  ---------------------------------------------------
  free energy    TOTEN  =      -131.71538436 eV

  energy without entropy =     -131.71538436  energy(sigma->0) =     -131.71538436


--------------------------------------------------------------------------------------------------------




----------------------------------------- Iteration    1(   7)  ---------------------------------------


    POTLOK:  cpu time   18.2812: real time   18.2659
    SETDIJ:  cpu time    0.0280: real time    0.0284
     EDDAV:  cpu time  269.8260: real time  269.6007
       DOS:  cpu time    0.0000: real time    0.0005
    CHARGE:  cpu time   16.5125: real time   16.4986
    MIXING:  cpu time    0.6669: real time    0.6664
    --------------------------------------------
      LOOP:  cpu time  305.3156: real time  305.0641

 eigenvalue-minimisations  :   424
 total energy-change (2. order) : 0.1756735E+01  (-0.4546008E+00)
 number of electron      58.0000016 magnetization 
 augmentation part        2.6192930 magnetization 

 Broyden mixing:
  rms(total) = 0.51433E+00    rms(broyden)= 0.51421E+00
  rms(prec ) = 0.52700E+00
  weight for this iteration     100.00

 eigenvalues of (default mixing * dielectric matrix)
  average eigenvalue GAMMA=   1.5657
  1.1000  2.0315

 Free energy of the ion-electron system (eV)
  ---------------------------------------------------
  alpha Z        PSCENC =         0.51957394
  Ewald energy   TEWEN  =      6094.00564238
  -Hartree energ DENC   =     -8013.25519104
  -exchange      EXHF   =         0.00000000
  -V(xc)+E(xc)   XCENC  =       211.19431279
  PAW double counting   =      3743.75953378    -3754.88980673
  entropy T*S    EENTRO =         0.00000000
  eigenvalues    EBANDS =      -837.27604689
  atomic energy  EATOM  =      2425.98333211
  Solvation  Ediel_sol  =         0.00000000
  ---------------------------------------------------
  free energy    TOTEN  =      -129.95864966 eV

  energy without entropy =     -129.95864966  energy(sigma->0) =     -129.95864966


--------------------------------------------------------------------------------------------------------




----------------------------------------- Iteration    1(   8)  ---------------------------------------


    POTLOK:  cpu time   18.4902: real time   18.4742
    SETDIJ:  cpu time    0.0280: real time    0.0283
     EDDAV:  cpu time  273.5124: real time  273.2846
       DOS:  cpu time    0.0000: real time    0.0005
    CHARGE:  cpu time   16.6225: real time   16.6086
    MIXING:  cpu time    0.6989: real time    0.6986
    --------------------------------------------
      LOOP:  cpu time  309.3530: real time  309.0977

 eigenvalue-minimisations  :   432
 total energy-change (2. order) : 0.4916090E+00  (-0.8693620E-01)
 number of electron      58.0000016 magnetization 
 augmentation part        2.5904114 magnetization 

 Broyden mixing:
  rms(total) = 0.15365E+00    rms(broyden)= 0.15359E+00
  rms(prec ) = 0.16125E+00
  weight for this iteration     100.00

 eigenvalues of (default mixing * dielectric matrix)
  average eigenvalue GAMMA=   1.5424
  2.3856  0.9418  1.2997

 Free energy of the ion-electron system (eV)
  ---------------------------------------------------
  alpha Z        PSCENC =         0.51957394
  Ewald energy   TEWEN  =      6094.00564238
  -Hartree energ DENC   =     -8054.18632297
  -exchange      EXHF   =         0.00000000
  -V(xc)+E(xc)   XCENC  =       213.32298671
  PAW double counting   =      4566.51935074    -4577.83552648
  entropy T*S    EENTRO =         0.00000000
  eigenvalues    EBANDS =      -797.79607711
  atomic energy  EATOM  =      2425.98333211
  Solvation  Ediel_sol  =         0.00000000
  ---------------------------------------------------
  free energy    TOTEN  =      -129.46704068 eV

  energy without entropy =     -129.46704068  energy(sigma->0) =     -129.46704068


--------------------------------------------------------------------------------------------------------




----------------------------------------- Iteration    1(   9)  ---------------------------------------


    POTLOK:  cpu time   18.3312: real time   18.3160
    SETDIJ:  cpu time    0.0280: real time    0.0282
     EDDAV:  cpu time  290.1429: real time  289.9012
       DOS:  cpu time    0.0000: real time    0.0005
    CHARGE:  cpu time   16.5395: real time   16.5266
    MIXING:  cpu time    0.7209: real time    0.7207
    --------------------------------------------
      LOOP:  cpu time  325.7655: real time  325.4964

 eigenvalue-minimisations  :   464
 total energy-change (2. order) : 0.6880654E-01  (-0.9842147E-02)
 number of electron      58.0000016 magnetization 
 augmentation part        2.5828286 magnetization 

 Broyden mixing:
  rms(total) = 0.56367E-01    rms(broyden)= 0.56340E-01
  rms(prec ) = 0.64874E-01
  weight for this iteration     100.00

 eigenvalues of (default mixing * dielectric matrix)
  average eigenvalue GAMMA=   1.5182
  2.1929  1.0503  1.0503  1.7793

 Free energy of the ion-electron system (eV)
  ---------------------------------------------------
  alpha Z        PSCENC =         0.51957394
  Ewald energy   TEWEN  =      6094.00564238
  -Hartree energ DENC   =     -8067.80152593
  -exchange      EXHF   =         0.00000000
  -V(xc)+E(xc)   XCENC  =       213.87487567
  PAW double counting   =      4800.81747134    -4812.10274547
  entropy T*S    EENTRO =         0.00000000
  eigenvalues    EBANDS =      -784.69485818
  atomic energy  EATOM  =      2425.98333211
  Solvation  Ediel_sol  =         0.00000000
  ---------------------------------------------------
  free energy    TOTEN  =      -129.39823414 eV

  energy without entropy =     -129.39823414  energy(sigma->0) =     -129.39823414


--------------------------------------------------------------------------------------------------------




----------------------------------------- Iteration    1(  10)  ---------------------------------------


    POTLOK:  cpu time   18.3062: real time   18.2916
    SETDIJ:  cpu time    0.0280: real time    0.0285
     EDDAV:  cpu time  276.3520: real time  276.1221
       DOS:  cpu time    0.0000: real time    0.0005
    CHARGE:  cpu time   16.5485: real time   16.5344
    MIXING:  cpu time    0.7929: real time    0.7940
    --------------------------------------------
      LOOP:  cpu time  312.0306: real time  312.4873

 eigenvalue-minimisations  :   437
 total energy-change (2. order) : 0.1155721E-01  (-0.2387063E-02)
 number of electron      58.0000016 magnetization 
 augmentation part        2.5888389 magnetization 

 Broyden mixing:
  rms(total) = 0.25865E-01    rms(broyden)= 0.25844E-01
  rms(prec ) = 0.35703E-01
  weight for this iteration     100.00

 eigenvalues of (default mixing * dielectric matrix)
  average eigenvalue GAMMA=   1.4937
  2.1809  2.1809  0.9696  0.9696  1.1673

 Free energy of the ion-electron system (eV)
  ---------------------------------------------------
  alpha Z        PSCENC =         0.51957394
  Ewald energy   TEWEN  =      6094.00564238
  -Hartree energ DENC   =     -8072.91847822
  -exchange      EXHF   =         0.00000000
  -V(xc)+E(xc)   XCENC  =       213.89142854
  PAW double counting   =      4793.78846422    -4805.02455594
  entropy T*S    EENTRO =         0.00000000
  eigenvalues    EBANDS =      -779.63208396
  atomic energy  EATOM  =      2425.98333211
  Solvation  Ediel_sol  =         0.00000000
  ---------------------------------------------------
  free energy    TOTEN  =      -129.38667692 eV

  energy without entropy =     -129.38667692  energy(sigma->0) =     -129.38667692


--------------------------------------------------------------------------------------------------------




----------------------------------------- Iteration    1(  11)  ---------------------------------------


    POTLOK:  cpu time   18.5282: real time   18.5133
    SETDIJ:  cpu time    0.0280: real time    0.0284
     EDDAV:  cpu time  285.9875: real time  285.7486
       DOS:  cpu time    0.0000: real time    0.0005
    CHARGE:  cpu time   16.5035: real time   16.4898
    MIXING:  cpu time    0.8279: real time    0.8275
    --------------------------------------------
      LOOP:  cpu time  321.8771: real time  321.6117

 eigenvalue-minimisations  :   456
 total energy-change (2. order) : 0.5728220E-02  (-0.7713237E-03)
 number of electron      58.0000015 magnetization 
 augmentation part        2.5846255 magnetization 

 Broyden mixing:
  rms(total) = 0.15893E-01    rms(broyden)= 0.15887E-01
  rms(prec ) = 0.24516E-01
  weight for this iteration     100.00

 eigenvalues of (default mixing * dielectric matrix)
  average eigenvalue GAMMA=   1.5519
  2.4813  2.4813  0.9448  0.9448  1.2296  1.2296

 Free energy of the ion-electron system (eV)
  ---------------------------------------------------
  alpha Z        PSCENC =         0.51957394
  Ewald energy   TEWEN  =      6094.00564238
  -Hartree energ DENC   =     -8078.92985832
  -exchange      EXHF   =         0.00000000
  -V(xc)+E(xc)   XCENC  =       214.00032456
  PAW double counting   =      4797.50903023    -4808.74304565
  entropy T*S    EENTRO =         0.00000000
  eigenvalues    EBANDS =      -773.72594796
  atomic energy  EATOM  =      2425.98333211
  Solvation  Ediel_sol  =         0.00000000
  ---------------------------------------------------
  free energy    TOTEN  =      -129.38094870 eV

  energy without entropy =     -129.38094870  energy(sigma->0) =     -129.38094870


--------------------------------------------------------------------------------------------------------




----------------------------------------- Iteration    1(  12)  ---------------------------------------


    POTLOK:  cpu time   18.4332: real time   18.4180
    SETDIJ:  cpu time    0.0280: real time    0.0284
     EDDAV:  cpu time  277.7718: real time  277.5407
       DOS:  cpu time    0.0010: real time    0.0005
    CHARGE:  cpu time   16.4945: real time   16.4817
    MIXING:  cpu time    0.8579: real time    0.8568
    --------------------------------------------
      LOOP:  cpu time  313.5883: real time  313.3341

 eigenvalue-minimisations  :   438
 total energy-change (2. order) :-0.6031777E-03  (-0.5542527E-03)
 number of electron      58.0000016 magnetization 
 augmentation part        2.5840570 magnetization 

 Broyden mixing:
  rms(total) = 0.96768E-02    rms(broyden)= 0.96731E-02
  rms(prec ) = 0.15738E-01
  weight for this iteration     100.00

 eigenvalues of (default mixing * dielectric matrix)
  average eigenvalue GAMMA=   1.6163
  2.8130  2.7124  1.3766  1.2371  1.2371  0.9691  0.9691

 Free energy of the ion-electron system (eV)
  ---------------------------------------------------
  alpha Z        PSCENC =         0.51957394
  Ewald energy   TEWEN  =      6094.00564238
  -Hartree energ DENC   =     -8085.53035329
  -exchange      EXHF   =         0.00000000
  -V(xc)+E(xc)   XCENC  =       214.08499086
  PAW double counting   =      4792.73437357    -4803.95822244
  entropy T*S    EENTRO =         0.00000000
  eigenvalues    EBANDS =      -767.22088902
  atomic energy  EATOM  =      2425.98333211
  Solvation  Ediel_sol  =         0.00000000
  ---------------------------------------------------
  free energy    TOTEN  =      -129.38155188 eV

  energy without entropy =     -129.38155188  energy(sigma->0) =     -129.38155188


--------------------------------------------------------------------------------------------------------




----------------------------------------- Iteration    1(  13)  ---------------------------------------


    POTLOK:  cpu time   18.4882: real time   18.4738
    SETDIJ:  cpu time    0.0290: real time    0.0282
     EDDAV:  cpu time  273.9284: real time  273.7008
       DOS:  cpu time    0.0000: real time    0.0005
    CHARGE:  cpu time   16.4835: real time   16.4696
    MIXING:  cpu time    0.9019: real time    0.9011
    --------------------------------------------
      LOOP:  cpu time  309.8319: real time  309.5770

 eigenvalue-minimisations  :   432
 total energy-change (2. order) :-0.6428600E-02  (-0.4241531E-03)
 number of electron      58.0000015 magnetization 
 augmentation part        2.5829100 magnetization 

 Broyden mixing:
  rms(total) = 0.56291E-02    rms(broyden)= 0.56239E-02
  rms(prec ) = 0.91975E-02
  weight for this iteration     100.00

 eigenvalues of (default mixing * dielectric matrix)
  average eigenvalue GAMMA=   1.7352
  4.1815  2.4950  1.6928  1.4707  1.0326  1.0326  0.9883  0.9883

 Free energy of the ion-electron system (eV)
  ---------------------------------------------------
  alpha Z        PSCENC =         0.51957394
  Ewald energy   TEWEN  =      6094.00564238
  -Hartree energ DENC   =     -8091.30901966
  -exchange      EXHF   =         0.00000000
  -V(xc)+E(xc)   XCENC  =       214.15150583
  PAW double counting   =      4786.35632849    -4797.57898204
  entropy T*S    EENTRO =         0.00000000
  eigenvalues    EBANDS =      -761.51636154
  atomic energy  EATOM  =      2425.98333211
  Solvation  Ediel_sol  =         0.00000000
  ---------------------------------------------------
  free energy    TOTEN  =      -129.38798048 eV

  energy without entropy =     -129.38798048  energy(sigma->0) =     -129.38798048


--------------------------------------------------------------------------------------------------------




----------------------------------------- Iteration    1(  14)  ---------------------------------------


    POTLOK:  cpu time   18.5812: real time   18.5670
    SETDIJ:  cpu time    0.0290: real time    0.0284
     EDDAV:  cpu time  273.3304: real time  273.1036
       DOS:  cpu time    0.0010: real time    0.0005
    CHARGE:  cpu time   16.5815: real time   16.5685
    MIXING:  cpu time    0.9878: real time    0.9874
    --------------------------------------------
      LOOP:  cpu time  309.5129: real time  309.2587

 eigenvalue-minimisations  :   430
 total energy-change (2. order) :-0.6931800E-02  (-0.1853802E-03)
 number of electron      58.0000015 magnetization 
 augmentation part        2.5821712 magnetization 

 Broyden mixing:
  rms(total) = 0.36169E-02    rms(broyden)= 0.36134E-02
  rms(prec ) = 0.55539E-02
  weight for this iteration     100.00

 eigenvalues of (default mixing * dielectric matrix)
  average eigenvalue GAMMA=   1.8316
  5.0833  2.4491  2.1669  1.2743  1.2743  1.2651  1.0369  0.9672  0.9672

 Free energy of the ion-electron system (eV)
  ---------------------------------------------------
  alpha Z        PSCENC =         0.51957394
  Ewald energy   TEWEN  =      6094.00564238
  -Hartree energ DENC   =     -8094.81475285
  -exchange      EXHF   =         0.00000000
  -V(xc)+E(xc)   XCENC  =       214.17547420
  PAW double counting   =      4781.32363860    -4792.54404995
  entropy T*S    EENTRO =         0.00000000
  eigenvalues    EBANDS =      -758.04377071
  atomic energy  EATOM  =      2425.98333211
  Solvation  Ediel_sol  =         0.00000000
  ---------------------------------------------------
  free energy    TOTEN  =      -129.39491228 eV

  energy without entropy =     -129.39491228  energy(sigma->0) =     -129.39491228


--------------------------------------------------------------------------------------------------------




----------------------------------------- Iteration    1(  15)  ---------------------------------------


    POTLOK:  cpu time   18.5012: real time   18.4862
    SETDIJ:  cpu time    0.0280: real time    0.0283
     EDDAV:  cpu time  264.0879: real time  263.8678
       DOS:  cpu time    0.0000: real time    0.0005
    CHARGE:  cpu time   16.5305: real time   16.5166
    MIXING:  cpu time    1.0058: real time    1.0049
    --------------------------------------------
      LOOP:  cpu time  300.1554: real time  299.9077

 eigenvalue-minimisations  :   412
 total energy-change (2. order) :-0.7275213E-02  (-0.7064265E-04)
 number of electron      58.0000015 magnetization 
 augmentation part        2.5820701 magnetization 

 Broyden mixing:
  rms(total) = 0.23355E-02    rms(broyden)= 0.23343E-02
  rms(prec ) = 0.34555E-02
  weight for this iteration     100.00

 eigenvalues of (default mixing * dielectric matrix)
  average eigenvalue GAMMA=   1.9204
  5.6269  2.8036  2.3920  1.7789  1.4585  1.0817  1.0817  0.9705  1.0050  1.0050

 Free energy of the ion-electron system (eV)
  ---------------------------------------------------
  alpha Z        PSCENC =         0.51957394
  Ewald energy   TEWEN  =      6094.00564238
  -Hartree energ DENC   =     -8096.37275637
  -exchange      EXHF   =         0.00000000
  -V(xc)+E(xc)   XCENC  =       214.17424318
  PAW double counting   =      4780.53978286    -4791.75880690
  entropy T*S    EENTRO =         0.00000000
  eigenvalues    EBANDS =      -756.49319869
  atomic energy  EATOM  =      2425.98333211
  Solvation  Ediel_sol  =         0.00000000
  ---------------------------------------------------
  free energy    TOTEN  =      -129.40218749 eV

  energy without entropy =     -129.40218749  energy(sigma->0) =     -129.40218749


--------------------------------------------------------------------------------------------------------




----------------------------------------- Iteration    1(  16)  ---------------------------------------


    POTLOK:  cpu time   18.5712: real time   18.5566
    SETDIJ:  cpu time    0.0280: real time    0.0283
     EDDAV:  cpu time  236.4371: real time  236.2421
       DOS:  cpu time    0.0000: real time    0.0005
    CHARGE:  cpu time   16.5165: real time   16.5032
    MIXING:  cpu time    1.1258: real time    1.1232
    --------------------------------------------
      LOOP:  cpu time  272.6805: real time  272.5971

 eigenvalue-minimisations  :   358
 total energy-change (2. order) :-0.5887405E-02  (-0.4618351E-04)
 number of electron      58.0000015 magnetization 
 augmentation part        2.5820626 magnetization 

 Broyden mixing:
  rms(total) = 0.12885E-02    rms(broyden)= 0.12881E-02
  rms(prec ) = 0.19362E-02
  weight for this iteration     100.00

 eigenvalues of (default mixing * dielectric matrix)
  average eigenvalue GAMMA=   1.9882
  6.4819  3.2315  2.3031  1.9828  1.3914  1.3914  0.9897  1.0495  1.0495  0.9997
  0.9997

 Free energy of the ion-electron system (eV)
  ---------------------------------------------------
  alpha Z        PSCENC =         0.51957394
  Ewald energy   TEWEN  =      6094.00564238
  -Hartree energ DENC   =     -8097.03842684
  -exchange      EXHF   =         0.00000000
  -V(xc)+E(xc)   XCENC  =       214.16576505
  PAW double counting   =      4780.84460176    -4792.06328608
  entropy T*S    EENTRO =         0.00000000
  eigenvalues    EBANDS =      -755.82527722
  atomic energy  EATOM  =      2425.98333211
  Solvation  Ediel_sol  =         0.00000000
  ---------------------------------------------------
  free energy    TOTEN  =      -129.40807490 eV

  energy without entropy =     -129.40807490  energy(sigma->0) =     -129.40807490


--------------------------------------------------------------------------------------------------------




----------------------------------------- Iteration    1(  17)  ---------------------------------------


    POTLOK:  cpu time   18.4312: real time   18.4165
    SETDIJ:  cpu time    0.0280: real time    0.0283
     EDDAV:  cpu time  242.8091: real time  242.6087
       DOS:  cpu time    0.0010: real time    0.0005
    CHARGE:  cpu time   16.5735: real time   16.5599
    MIXING:  cpu time    1.1528: real time    1.1520
    --------------------------------------------
      LOOP:  cpu time  278.9966: real time  278.7691

 eigenvalue-minimisations  :   368
 total energy-change (2. order) :-0.2645893E-02  (-0.1321888E-04)
 number of electron      58.0000015 magnetization 
 augmentation part        2.5820258 magnetization 

 Broyden mixing:
  rms(total) = 0.83005E-03    rms(broyden)= 0.82973E-03
  rms(prec ) = 0.12163E-02
  weight for this iteration     100.00

 eigenvalues of (default mixing * dielectric matrix)
  average eigenvalue GAMMA=   2.0406
  7.0448  3.6628  2.2954  2.2954  1.5379  1.5379  1.0680  1.0680  1.0002  1.0002
  0.9882  0.9882

 Free energy of the ion-electron system (eV)
  ---------------------------------------------------
  alpha Z        PSCENC =         0.51957394
  Ewald energy   TEWEN  =      6094.00564238
  -Hartree energ DENC   =     -8097.35717966
  -exchange      EXHF   =         0.00000000
  -V(xc)+E(xc)   XCENC  =       214.16093555
  PAW double counting   =      4780.62813311    -4791.84657570
  entropy T*S    EENTRO =         0.00000000
  eigenvalues    EBANDS =      -755.50458252
  atomic energy  EATOM  =      2425.98333211
  Solvation  Ediel_sol  =         0.00000000
  ---------------------------------------------------
  free energy    TOTEN  =      -129.41072079 eV

  energy without entropy =     -129.41072079  energy(sigma->0) =     -129.41072079


--------------------------------------------------------------------------------------------------------




----------------------------------------- Iteration    1(  18)  ---------------------------------------


    POTLOK:  cpu time   18.5212: real time   18.5055
    SETDIJ:  cpu time    0.0280: real time    0.0283
     EDDAV:  cpu time  236.7640: real time  236.5678
       DOS:  cpu time    0.0000: real time    0.0005
    CHARGE:  cpu time   16.5075: real time   16.4940
    MIXING:  cpu time    1.1818: real time    1.1814
    --------------------------------------------
      LOOP:  cpu time  273.0045: real time  272.7804

 eigenvalue-minimisations  :   356
 total energy-change (2. order) :-0.1654045E-02  (-0.1106904E-04)
 number of electron      58.0000015 magnetization 
 augmentation part        2.5819854 magnetization 

 Broyden mixing:
  rms(total) = 0.51460E-03    rms(broyden)= 0.51441E-03
  rms(prec ) = 0.73529E-03
  weight for this iteration     100.00

 eigenvalues of (default mixing * dielectric matrix)
  average eigenvalue GAMMA=   2.0978
  7.6041  4.2268  2.4275  2.3515  1.7596  1.4380  1.4380  1.0704  1.0704  0.9732
  0.9732  0.9690  0.9690

 Free energy of the ion-electron system (eV)
  ---------------------------------------------------
  alpha Z        PSCENC =         0.51957394
  Ewald energy   TEWEN  =      6094.00564238
  -Hartree energ DENC   =     -8097.50745926
  -exchange      EXHF   =         0.00000000
  -V(xc)+E(xc)   XCENC  =       214.15844372
  PAW double counting   =      4781.02618184    -4792.24462396
  entropy T*S    EENTRO =         0.00000000
  eigenvalues    EBANDS =      -755.35346561
  atomic energy  EATOM  =      2425.98333211
  Solvation  Ediel_sol  =         0.00000000
  ---------------------------------------------------
  free energy    TOTEN  =      -129.41237484 eV

  energy without entropy =     -129.41237484  energy(sigma->0) =     -129.41237484


--------------------------------------------------------------------------------------------------------




----------------------------------------- Iteration    1(  19)  ---------------------------------------


    POTLOK:  cpu time   18.4622: real time   18.4472
    SETDIJ:  cpu time    0.0280: real time    0.0282
     EDDAV:  cpu time  237.6119: real time  237.4136
       DOS:  cpu time    0.0000: real time    0.0005
    CHARGE:  cpu time   16.4755: real time   16.4617
    MIXING:  cpu time    1.2498: real time    1.2489
    --------------------------------------------
      LOOP:  cpu time  273.8284: real time  273.6034

 eigenvalue-minimisations  :   358
 total energy-change (2. order) :-0.8472540E-03  (-0.4480595E-05)
 number of electron      58.0000015 magnetization 
 augmentation part        2.5819686 magnetization 

 Broyden mixing:
  rms(total) = 0.30690E-03    rms(broyden)= 0.30678E-03
  rms(prec ) = 0.43763E-03
  weight for this iteration     100.00

 eigenvalues of (default mixing * dielectric matrix)
  average eigenvalue GAMMA=   2.1520
  8.1114  4.7989  2.6261  2.6261  1.6174  1.6174  1.6040  0.9621  1.0623  1.0623
  1.0350  1.0350  0.9848  0.9848

 Free energy of the ion-electron system (eV)
  ---------------------------------------------------
  alpha Z        PSCENC =         0.51957394
  Ewald energy   TEWEN  =      6094.00564238
  -Hartree energ DENC   =     -8097.58902233
  -exchange      EXHF   =         0.00000000
  -V(xc)+E(xc)   XCENC  =       214.15778677
  PAW double counting   =      4781.18228049    -4792.40084921
  entropy T*S    EENTRO =         0.00000000
  eigenvalues    EBANDS =      -755.27196624
  atomic energy  EATOM  =      2425.98333211
  Solvation  Ediel_sol  =         0.00000000
  ---------------------------------------------------
  free energy    TOTEN  =      -129.41322209 eV

  energy without entropy =     -129.41322209  energy(sigma->0) =     -129.41322209


--------------------------------------------------------------------------------------------------------




----------------------------------------- Iteration    1(  20)  ---------------------------------------


    POTLOK:  cpu time   18.4202: real time   18.4053
    SETDIJ:  cpu time    0.0290: real time    0.0283
     EDDAV:  cpu time  225.3397: real time  225.1535
       DOS:  cpu time    0.0000: real time    0.0005
    CHARGE:  cpu time   16.4865: real time   16.4724
    MIXING:  cpu time    1.4058: real time    1.4057
    --------------------------------------------
      LOOP:  cpu time  261.6832: real time  261.4687

 eigenvalue-minimisations  :   334
 total energy-change (2. order) :-0.4218029E-03  (-0.1787864E-05)
 number of electron      58.0000015 magnetization 
 augmentation part        2.5819669 magnetization 

 Broyden mixing:
  rms(total) = 0.19215E-03    rms(broyden)= 0.19209E-03
  rms(prec ) = 0.26633E-03
  weight for this iteration     100.00

 eigenvalues of (default mixing * dielectric matrix)
  average eigenvalue GAMMA=   2.1615
  8.3213  5.1944  2.8371  2.5099  2.0542  1.6540  1.3538  1.3538  1.0443  1.0443
  0.9774  1.0597  1.0597  0.9789  0.9789

 Free energy of the ion-electron system (eV)
  ---------------------------------------------------
  alpha Z        PSCENC =         0.51957394
  Ewald energy   TEWEN  =      6094.00564238
  -Hartree energ DENC   =     -8097.61163584
  -exchange      EXHF   =         0.00000000
  -V(xc)+E(xc)   XCENC  =       214.15669471
  PAW double counting   =      4780.91234457    -4792.13085116
  entropy T*S    EENTRO =         0.00000000
  eigenvalues    EBANDS =      -755.24874462
  atomic energy  EATOM  =      2425.98333211
  Solvation  Ediel_sol  =         0.00000000
  ---------------------------------------------------
  free energy    TOTEN  =      -129.41364389 eV

  energy without entropy =     -129.41364389  energy(sigma->0) =     -129.41364389


--------------------------------------------------------------------------------------------------------




----------------------------------------- Iteration    1(  21)  ---------------------------------------


    POTLOK:  cpu time   18.4072: real time   18.3923
    SETDIJ:  cpu time    0.0290: real time    0.0283
     EDDAV:  cpu time  234.3344: real time  234.1398
       DOS:  cpu time    0.0000: real time    0.0005
    CHARGE:  cpu time   16.4625: real time   16.4490
    MIXING:  cpu time    1.4338: real time    1.4320
    --------------------------------------------
      LOOP:  cpu time  270.6679: real time  270.4449

 eigenvalue-minimisations  :   350
 total energy-change (2. order) :-0.1996046E-03  (-0.7255388E-06)
 number of electron      58.0000015 magnetization 
 augmentation part        2.5819536 magnetization 

 Broyden mixing:
  rms(total) = 0.11114E-03    rms(broyden)= 0.11109E-03
  rms(prec ) = 0.15928E-03
  weight for this iteration     100.00

 eigenvalues of (default mixing * dielectric matrix)
  average eigenvalue GAMMA=   2.2317
  8.5074  5.8109  3.4618  2.6353  2.3322  1.6366  1.6366  1.4646  1.1170  1.1170
  1.0460  1.0460  1.0143  0.9420  0.9699  0.9699

 Free energy of the ion-electron system (eV)
  ---------------------------------------------------
  alpha Z        PSCENC =         0.51957394
  Ewald energy   TEWEN  =      6094.00564238
  -Hartree energ DENC   =     -8097.62231969
  -exchange      EXHF   =         0.00000000
  -V(xc)+E(xc)   XCENC  =       214.15651454
  PAW double counting   =      4780.97175717    -4792.19029433
  entropy T*S    EENTRO =         0.00000000
  eigenvalues    EBANDS =      -755.23804962
  atomic energy  EATOM  =      2425.98333211
  Solvation  Ediel_sol  =         0.00000000
  ---------------------------------------------------
  free energy    TOTEN  =      -129.41384350 eV

  energy without entropy =     -129.41384350  energy(sigma->0) =     -129.41384350


--------------------------------------------------------------------------------------------------------




----------------------------------------- Iteration    1(  22)  ---------------------------------------


    POTLOK:  cpu time   18.4682: real time   18.4544
    SETDIJ:  cpu time    0.0280: real time    0.0285
     EDDAV:  cpu time  195.6433: real time  195.4791
       DOS:  cpu time    0.0000: real time    0.0005
    CHARGE:  cpu time   16.5355: real time   16.5216
    MIXING:  cpu time    1.4768: real time    1.4766
    --------------------------------------------
      LOOP:  cpu time  232.1537: real time  231.9633

 eigenvalue-minimisations  :   277
 total energy-change (2. order) :-0.1347589E-03  (-0.3588534E-06)
 number of electron      58.0000015 magnetization 
 augmentation part        2.5819598 magnetization 

 Broyden mixing:
  rms(total) = 0.82403E-04    rms(broyden)= 0.82366E-04
  rms(prec ) = 0.10187E-03
  weight for this iteration     100.00

 eigenvalues of (default mixing * dielectric matrix)
  average eigenvalue GAMMA=   2.2255
  8.5796  6.1709  3.6928  2.4713  2.4713  2.0162  1.5001  1.3318  1.3318  1.0504
  1.0504  1.1337  1.1337  0.9698  0.9698  1.0284  0.9322

 Free energy of the ion-electron system (eV)
  ---------------------------------------------------
  alpha Z        PSCENC =         0.51957394
  Ewald energy   TEWEN  =      6094.00564238
  -Hartree energ DENC   =     -8097.63784065
  -exchange      EXHF   =         0.00000000
  -V(xc)+E(xc)   XCENC  =       214.15628969
  PAW double counting   =      4780.89056292    -4792.10909082
  entropy T*S    EENTRO =         0.00000000
  eigenvalues    EBANDS =      -755.22244783
  atomic energy  EATOM  =      2425.98333211
  Solvation  Ediel_sol  =         0.00000000
  ---------------------------------------------------
  free energy    TOTEN  =      -129.41397826 eV

  energy without entropy =     -129.41397826  energy(sigma->0) =     -129.41397826


--------------------------------------------------------------------------------------------------------




----------------------------------------- Iteration    1(  23)  ---------------------------------------


    POTLOK:  cpu time   18.4622: real time   18.4470
    SETDIJ:  cpu time    0.0280: real time    0.0283
     EDDAV:  cpu time  240.9464: real time  240.7458
       DOS:  cpu time    0.0000: real time    0.0005
    --------------------------------------------
      LOOP:  cpu time  259.4386: real time  259.2247

 eigenvalue-minimisations  :   368
 total energy-change (2. order) :-0.3789841E-04  (-0.9092847E-07)
 number of electron      58.0000015 magnetization 
 augmentation part        2.5819598 magnetization 

 Free energy of the ion-electron system (eV)
  ---------------------------------------------------
  alpha Z        PSCENC =         0.51957394
  Ewald energy   TEWEN  =      6094.00564238
  -Hartree energ DENC   =     -8097.64562999
  -exchange      EXHF   =         0.00000000
  -V(xc)+E(xc)   XCENC  =       214.15627918
  PAW double counting   =      4780.92277777    -4792.14128958
  entropy T*S    EENTRO =         0.00000000
  eigenvalues    EBANDS =      -755.21470198
  atomic energy  EATOM  =      2425.98333211
  Solvation  Ediel_sol  =         0.00000000
  ---------------------------------------------------
  free energy    TOTEN  =      -129.41401616 eV

  energy without entropy =     -129.41401616  energy(sigma->0) =     -129.41401616


--------------------------------------------------------------------------------------------------------




 average (electrostatic) potential at core
  the test charge radii are     0.5201  0.6991  0.7089  0.7215
  (the norm of the test charge is              1.0000)
       1 -42.3137       2 -42.6539       3 -42.5983       4 -44.7612       5 -42.3285
       6 -41.7333       7 -41.9477       8 -41.9898       9 -43.2286      10 -41.7474
      11 -41.7121      12 -41.9214      13 -59.1200      14 -61.5161      15 -59.9986
      16 -58.6034      17 -60.7350      18 -59.0775      19 -74.7819      20 -73.8209
      21 -80.0394      22 -79.2910
 
 
 
 E-fermi :  -4.5182     XC(G=0):  -0.1519     alpha+bet : -0.0465


 k-point     1 :       0.2500    0.2500    0.2500
  band No.  band energies     occupation 
      1     -26.2625      2.00000
      2     -25.5636      2.00000
      3     -23.4667      2.00000
      4     -22.6167      2.00000
      5     -19.5602      2.00000
      6     -18.2627      2.00000
      7     -17.4617      2.00000
      8     -15.7673      2.00000
      9     -14.9441      2.00000
     10     -13.9287      2.00000
     11     -13.0435      2.00000
     12     -12.4492      2.00000
     13     -12.0525      2.00000
     14     -11.3024      2.00000
     15     -11.1685      2.00000
     16     -10.6418      2.00000
     17     -10.2522      2.00000
     18     -10.0824      2.00000
     19     -10.0170      2.00000
     20      -9.5312      2.00000
     21      -9.3735      2.00000
     22      -9.1120      2.00000
     23      -9.0057      2.00000
     24      -8.8662      2.00000
     25      -8.5157      2.00000
     26      -6.8736      2.00000
     27      -6.2858      2.00000
     28      -5.7587      2.00000
     29      -5.4412      2.00000
     30      -1.1969      0.00000
     31      -0.9658      0.00000
     32      -0.4710      0.00000
     33      -0.2245      0.00000
     34      -0.1949      0.00000
     35      -0.1273      0.00000
     36       0.0137      0.00000
     37       0.0989      0.00000
     38       0.1040      0.00000
     39       0.1107      0.00000
     40       0.1563      0.00000
     41       0.1773      0.00000

 k-point     2 :      -0.2500    0.2500    0.2500
  band No.  band energies     occupation 
      1     -26.2625      2.00000
      2     -25.5636      2.00000
      3     -23.4668      2.00000
      4     -22.6167      2.00000
      5     -19.5602      2.00000
      6     -18.2627      2.00000
      7     -17.4617      2.00000
      8     -15.7673      2.00000
      9     -14.9441      2.00000
     10     -13.9287      2.00000
     11     -13.0435      2.00000
     12     -12.4492      2.00000
     13     -12.0525      2.00000
     14     -11.3024      2.00000
     15     -11.1685      2.00000
     16     -10.6418      2.00000
     17     -10.2522      2.00000
     18     -10.0824      2.00000
     19     -10.0170      2.00000
     20      -9.5311      2.00000
     21      -9.3735      2.00000
     22      -9.1120      2.00000
     23      -9.0057      2.00000
     24      -8.8662      2.00000
     25      -8.5157      2.00000
     26      -6.8736      2.00000
     27      -6.2858      2.00000
     28      -5.7587      2.00000
     29      -5.4412      2.00000
     30      -1.1969      0.00000
     31      -0.9658      0.00000
     32      -0.4710      0.00000
     33      -0.2245      0.00000
     34      -0.1950      0.00000
     35      -0.1275      0.00000
     36       0.0180      0.00000
     37       0.0846      0.00000
     38       0.0986      0.00000
     39       0.1199      0.00000
     40       0.1635      0.00000
     41       0.1682      0.00000

 k-point     3 :       0.2500   -0.2500    0.2500
  band No.  band energies     occupation 
      1     -26.2625      2.00000
      2     -25.5636      2.00000
      3     -23.4667      2.00000
      4     -22.6167      2.00000
      5     -19.5602      2.00000
      6     -18.2627      2.00000
      7     -17.4617      2.00000
      8     -15.7673      2.00000
      9     -14.9441      2.00000
[...]
 augmentation part        2.5818636 magnetization 

 Free energy of the ion-electron system (eV)
  ---------------------------------------------------
  alpha Z        PSCENC =         0.51957394
  Ewald energy   TEWEN  =      6074.40203834
  -Hartree energ DENC   =     -8077.41214977
  -exchange      EXHF   =         0.00000000
  -V(xc)+E(xc)   XCENC  =       214.11603930
  PAW double counting   =      4783.42076483    -4794.63705686
  entropy T*S    EENTRO =         0.00000000
  eigenvalues    EBANDS =      -755.89326565
  atomic energy  EATOM  =      2425.98333211
  Solvation  Ediel_sol  =         0.00000000
  ---------------------------------------------------
  free energy    TOTEN  =      -129.50072376 eV

  energy without entropy =     -129.50072376  energy(sigma->0) =     -129.50072376


--------------------------------------------------------------------------------------------------------




 average (electrostatic) potential at core
  the test charge radii are     0.5201  0.6991  0.7089  0.7215
  (the norm of the test charge is              1.0000)
       1 -42.3298       2 -42.5859       3 -42.5561       4 -44.7514       5 -42.3348
       6 -41.8148       7 -41.9456       8 -42.0143       9 -43.4461      10 -41.7336
      11 -41.7814      12 -42.0091      13 -59.1015      14 -61.4591      15 -59.9912
      16 -58.6445      17 -60.7847      18 -59.1306      19 -74.7509      20 -73.9466
      21 -79.9509      22 -79.3279
 
 
 
 E-fermi :  -4.4891     XC(G=0):  -0.1329     alpha+bet : -0.0465


 k-point     1 :       0.2500    0.2500    0.2500
  band No.  band energies     occupation 
      1     -26.2026      2.00000
      2     -25.5696      2.00000
      3     -23.4593      2.00000
      4     -22.6750      2.00000
      5     -19.5962      2.00000
      6     -18.2377      2.00000
      7     -17.5241      2.00000
      8     -15.7908      2.00000
      9     -14.9473      2.00000
     10     -14.0350      2.00000
     11     -13.1070      2.00000
     12     -12.3749      2.00000
     13     -12.0196      2.00000
     14     -11.3114      2.00000
     15     -11.1505      2.00000
     16     -10.6809      2.00000
     17     -10.2491      2.00000
     18     -10.1103      2.00000
     19      -9.9656      2.00000
     20      -9.5289      2.00000
     21      -9.3844      2.00000
     22      -9.2149      2.00000
     23      -9.0532      2.00000
     24      -8.8448      2.00000
     25      -8.5449      2.00000
     26      -6.8441      2.00000
     27      -6.2172      2.00000
     28      -5.8286      2.00000
     29      -5.4786      2.00000
     30      -1.1495      0.00000
     31      -0.9176      0.00000
     32      -0.4605      0.00000
     33      -0.2667      0.00000
     34      -0.1964      0.00000
     35      -0.0964      0.00000
     36       0.0374      0.00000
     37       0.1236      0.00000
     38       0.1263      0.00000
     39       0.1324      0.00000
     40       0.1726      0.00000
     41       0.1928      0.00000

 k-point     2 :      -0.2500    0.2500    0.2500
  band No.  band energies     occupation 
      1     -26.2026      2.00000
      2     -25.5696      2.00000
      3     -23.4593      2.00000
      4     -22.6750      2.00000
      5     -19.5962      2.00000
      6     -18.2377      2.00000
      7     -17.5241      2.00000
      8     -15.7908      2.00000
      9     -14.9473      2.00000
     10     -14.0351      2.00000
     11     -13.1070      2.00000
     12     -12.3749      2.00000
     13     -12.0196      2.00000
     14     -11.3114      2.00000
     15     -11.1505      2.00000
     16     -10.6809      2.00000
     17     -10.2491      2.00000
     18     -10.1103      2.00000
     19      -9.9657      2.00000
     20      -9.5289      2.00000
     21      -9.3844      2.00000
     22      -9.2149      2.00000
     23      -9.0532      2.00000
     24      -8.8448      2.00000
     25      -8.5449      2.00000
     26      -6.8441      2.00000
     27      -6.2172      2.00000
     28      -5.8286      2.00000
     29      -5.4787      2.00000
     30      -1.1495      0.00000
     31      -0.9176      0.00000
     32      -0.4605      0.00000
     33      -0.2667      0.00000
     34      -0.1965      0.00000
     35      -0.0966      0.00000
     36       0.0422      0.00000
     37       0.1065      0.00000
     38       0.1211      0.00000
     39       0.1423      0.00000
     40       0.1842      0.00000
     41       0.1892      0.00000

 k-point     3 :       0.2500   -0.2500    0.2500
  band No.  band energies     occupation 
      1     -26.2026      2.00000
      2     -25.5696      2.00000
      3     -23.4593      2.00000
      4     -22.6750      2.00000
      5     -19.5962      2.00000
      6     -18.2377      2.00000
      7     -17.5241      2.00000
      8     -15.7908      2.00000
      9     -14.9473      2.00000
     10     -14.0350      2.00000
     11     -13.1070      2.00000
     12     -12.3749      2.00000
     13     -12.0196      2.00000
     14     -11.3114      2.00000
     15     -11.1505      2.00000
     16     -10.6809      2.00000
     17     -10.2491      2.00000
     18     -10.1103      2.00000
     19      -9.9656      2.00000
     20      -9.5289      2.00000
     21      -9.3845      2.00000
     22      -9.2149      2.00000
     23      -9.0532      2.00000
     24      -8.8448      2.00000
     25      -8.5449      2.00000
     26      -6.8441      2.00000
     27      -6.2172      2.00000
     28      -5.8286      2.00000
     29      -5.4787      2.00000
     30      -1.1495      0.00000
     31      -0.9176      0.00000
     32      -0.4605      0.00000
     33      -0.2667      0.00000
     34      -0.1965      0.00000
     35      -0.0964      0.00000
     36       0.0421      0.00000
     37       0.1017      0.00000
     38       0.1279      0.00000
     39       0.1390      0.00000
     40       0.1843      0.00000
     41       0.1948      0.00000

 k-point     4 :      -0.2500   -0.2500    0.2500
  band No.  band energies     occupation 
      1     -26.2026      2.00000
      2     -25.5696      2.00000
      3     -23.4593      2.00000
      4     -22.6750      2.00000
      5     -19.5962      2.00000
      6     -18.2377      2.00000
      7     -17.5241      2.00000
      8     -15.7908      2.00000
      9     -14.9473      2.00000
     10     -14.0350      2.00000
     11     -13.1070      2.00000
     12     -12.3749      2.00000
     13     -12.0196      2.00000
     14     -11.3114      2.00000
     15     -11.1505      2.00000
     16     -10.6809      2.00000
     17     -10.2491      2.00000
     18     -10.1103      2.00000
     19      -9.9656      2.00000
     20      -9.5289      2.00000
     21      -9.3844      2.00000
     22      -9.2149      2.00000
     23      -9.0532      2.00000
     24      -8.8448      2.00000
     25      -8.5449      2.00000
     26      -6.8441      2.00000
     27      -6.2172      2.00000
     28      -5.8286      2.00000
     29      -5.4787      2.00000
     30      -1.1495      0.00000
     31      -0.9176      0.00000
     32      -0.4605      0.00000
     33      -0.2667      0.00000
     34      -0.1964      0.00000
     35      -0.0967      0.00000
     36       0.0436      0.00000
     37       0.1037      0.00000
     38       0.1290      0.00000
     39       0.1353      0.00000
     40       0.1759      0.00000
     41       0.1989      0.00000


--------------------------------------------------------------------------------------------------------


 soft charge-density along one line, spin component           1
         0         1         2         3         4         5         6         7         8         9
 total charge-density along one line
 
 pseudopotential strength for first ion, spin component:           1
 -2.352  -4.056   0.002   0.000  -0.001
 -4.056  -6.906   0.005   0.000  -0.002
  0.002   0.005  -0.332   0.000  -0.002
  0.000   0.000   0.000  -0.336   0.000
 -0.001  -0.002  -0.002   0.000  -0.336
 total augmentation occupancy for first ion, spin component:           1
  3.530  -0.636  -0.417  -0.009   0.149
 -0.636   0.129   0.077   0.002  -0.027
 -0.417   0.077   0.050   0.001  -0.015
 -0.009   0.002   0.001   0.009  -0.001
  0.149  -0.027  -0.015  -0.001   0.013


------------------------ aborting loop because EDIFF is reached ----------------------------------------


    CHARGE:  cpu time   16.3985: real time   16.3850
    FORLOC:  cpu time    5.8201: real time    5.8157
    FORNL :  cpu time   60.1798: real time   60.1301
    STRESS:  cpu time  183.7141: real time  183.5600
    FORCOR:  cpu time   24.0283: real time   24.0090
    FORHAR:  cpu time   10.6194: real time   10.6107
    MIXING:  cpu time    0.7759: real time    0.7741
    OFIELD:  cpu time    0.0000: real time    0.0000

  FORCE on cell =-STRESS in cart. coord.  units (eV):
  Direction    XX          YY          ZZ          XY          YZ          ZX
  --------------------------------------------------------------------------------------
  Alpha Z     0.51957     0.51957     0.51957
  Ewald    3075.93790  2590.53593   407.92697  -151.65893    32.00199  -652.35194
  Hartree  3577.76041  3063.68246  1435.96944  -105.82282   -55.05868  -543.22270
  E(xc)    -229.79645  -229.56910  -231.76248    -0.28278     0.63865    -0.47897
  Local   -7256.76976 -6246.74542 -2471.62881   250.36767    47.83912  1189.68425
  n-local  -133.50542  -133.73471  -132.65528     0.66556    -1.95442     0.71375
  augment    14.55929    14.42103    14.40310     0.01763    -0.84618    -0.02047
  Kinetic   947.54510   937.37212   973.45621     6.63397   -22.43337     5.62655
  Fock        0.00000     0.00000     0.00000     0.00000     0.00000     0.00000
  -------------------------------------------------------------------------------------
  Total      -3.74934    -3.51813    -3.77128    -0.07971     0.18711    -0.04953
  in kB      -0.22249    -0.20877    -0.22379    -0.00473     0.01110    -0.00294
  external pressure =       -0.22 kB  Pullay stress =        0.00 kB


 VOLUME and BASIS-vectors are now :
 -----------------------------------------------------------------------------
  energy-cutoff  :      400.00
  volume of cell :    27000.00
      direct lattice vectors                 reciprocal lattice vectors
    30.000000000  0.000000000  0.000000000     0.033333333  0.000000000  0.000000000
     0.000000000 30.000000000  0.000000000     0.000000000  0.033333333  0.000000000
     0.000000000  0.000000000 30.000000000     0.000000000  0.000000000  0.033333333

  length of vectors
    30.000000000 30.000000000 30.000000000     0.033333333  0.033333333  0.033333333


 FORCES acting on ions
    electron-ion (+dipol)            ewald-force                    non-local-force                 convergence-correction
 -----------------------------------------------------------------------------------------------
   0.577E+02 -.643E+02 0.436E+01   -.596E+02 0.696E+02 -.425E+01   0.191E+01 -.533E+01 -.122E+00   -.688E-05 0.523E-05 -.738E-05
   0.502E+02 0.205E+02 0.642E+02   -.513E+02 -.227E+02 -.691E+02   0.112E+01 0.216E+01 0.492E+01   -.252E-05 -.568E-05 -.141E-04
   0.678E+02 0.308E+02 -.430E+02   -.706E+02 -.337E+02 0.467E+02   0.278E+01 0.284E+01 -.376E+01   -.786E-05 -.108E-04 -.208E-05
   0.627E+02 0.779E+02 0.544E+02   -.663E+02 -.831E+02 -.581E+02   0.363E+01 0.526E+01 0.374E+01   0.149E-04 -.232E-04 -.165E-04
   -.159E+02 0.163E+01 -.983E+02   0.163E+02 -.118E+00 0.104E+03   -.452E+00 -.149E+01 -.539E+01   0.353E-04 -.187E-04 -.152E-04
   -.620E+02 0.591E+02 -.261E+02   0.674E+02 -.605E+02 0.274E+02   -.533E+01 0.147E+01 -.123E+01   0.350E-04 -.121E-05 -.565E-05
   0.747E+01 0.623E+02 0.627E+02   -.808E+01 -.638E+02 -.679E+02   0.617E+00 0.154E+01 0.522E+01   0.252E-04 -.661E-05 -.119E-04
   0.355E+02 0.695E+02 -.440E+02   -.390E+02 -.723E+02 0.472E+02   0.348E+01 0.282E+01 -.319E+01   0.267E-04 -.987E-05 -.579E-05
   0.300E+02 -.703E+02 -.308E+02   -.356E+02 0.732E+02 0.343E+02   0.560E+01 -.285E+01 -.354E+01   0.397E-04 -.263E-04 -.221E-04
   -.859E+02 -.737E+01 0.139E+02   0.911E+02 0.500E+01 -.138E+02   -.520E+01 0.238E+01 -.659E-01   0.139E-05 -.311E-04 0.108E-04
   -.160E+01 -.323E+02 0.802E+02   0.131E+00 0.328E+02 -.855E+02   0.147E+01 -.474E+00 0.528E+01   0.206E-05 -.287E-04 0.134E-04
   -.230E+02 -.834E+02 -.138E+02   0.232E+02 0.885E+02 0.160E+02   -.247E+00 -.515E+01 -.225E+01   0.237E-05 -.411E-04 -.201E-05
   0.223E+03 -.197E+02 0.318E+02   -.224E+03 0.207E+02 -.320E+02   0.771E+00 -.102E+01 0.188E+00   -.428E-06 -.122E-04 -.453E-04
   0.180E+03 -.882E+01 0.970E+01   -.185E+03 0.942E+01 -.106E+02   0.491E+01 -.598E+00 0.941E+00   0.981E-04 0.426E-04 -.349E-05
   -.339E+02 0.925E+02 -.112E+03   0.392E+02 -.940E+02 0.114E+03   -.528E+01 0.151E+01 -.167E+01   0.178E-03 -.269E-04 -.319E-04
   -.184E+02 0.235E+03 -.314E+02   0.193E+02 -.236E+03 0.314E+02   -.908E+00 0.113E+01 -.210E-01   0.130E-03 -.300E-04 -.732E-05
   -.335E+02 0.182E+02 -.188E+02   0.304E+02 -.205E+02 0.207E+02   0.314E+01 0.225E+01 -.193E+01   0.113E-04 0.245E-04 0.335E-04
   -.135E+03 -.175E+03 0.101E+03   0.139E+03 0.178E+03 -.104E+03   -.383E+01 -.257E+01 0.280E+01   -.270E-04 -.143E-03 0.799E-04
   0.132E+03 0.147E+03 0.723E+02   -.129E+03 -.146E+03 -.738E+02   -.313E+01 -.449E+00 0.155E+01   0.174E-03 -.233E-04 -.314E-04
   -.420E+02 -.201E+03 0.152E+01   0.407E+02 0.204E+03 -.297E+00   0.132E+01 -.300E+01 -.123E+01   0.732E-04 -.590E-04 0.787E-05
   0.286E+02 -.338E+03 -.240E+03   -.955E+01 0.379E+03 0.266E+03   -.191E+02 -.407E+02 -.259E+02   0.153E-03 0.987E-05 -.134E-04
   -.371E+03 0.200E+03 0.167E+03   0.412E+03 -.227E+03 -.188E+03   -.410E+02 0.267E+02 0.209E+02   0.181E-04 -.511E-04 0.654E-04
 -----------------------------------------------------------------------------------------------
   0.537E+02 0.135E+02 0.473E+01   0.000E+00 -.142E-12 0.568E-13   -.537E+02 -.135E+02 -.471E+01   0.974E-03 -.466E-03 -.246E-04
 
 
 POSITION                                       TOTAL-FORCE (eV/Angst)
 -----------------------------------------------------------------------------------
     11.48854     16.55148     15.18155         0.012204      0.004155     -0.012970
     11.65460     15.07302     14.18025         0.006426     -0.006108      0.000746
     11.30997     14.94112     15.92080        -0.012309      0.012562     -0.001704
     13.51965     13.68194     14.62690         0.001783      0.002445     -0.014803
     15.46686     14.34673     16.63303         0.011857      0.021470     -0.019249
     16.59021     12.26244     15.67957         0.000474      0.004418      0.023061
     15.41174     12.25151     14.36969         0.013641     -0.019794      0.014583
     14.85797     11.99938     16.05721        -0.002800      0.013259      0.018755
     15.54645     16.56059     15.23314        -0.003177     -0.007108      0.001663
     18.27017     16.54334     14.01163         0.001783      0.000905      0.013163
     16.96319     17.08765     12.93388         0.006871      0.009074      0.009779
     17.30143     17.99230     14.43781        -0.002939     -0.000076      0.017846
     11.85996     15.52115     15.16343         0.001243     -0.000035     -0.001444
     13.33560     15.51792     15.50629         0.000958     -0.003411      0.010337
     15.38229     14.05269     15.57122         0.002139     -0.000291     -0.012688
     15.56507     12.54816     15.41905         0.001088     -0.000480      0.011856
     16.50373     14.80802     14.79729        -0.030191      0.012742     -0.018300
     17.26779     16.99070     13.99012         0.000841      0.004185      0.010327
     14.02281     14.40298     15.13776        -0.001342     -0.005456     -0.002342
     16.34906     16.15185     14.73634         0.001873     -0.007863     -0.004899
     13.87736     16.46300     16.10844        -0.003324     -0.019371      0.019042
     17.46360     14.19971     14.30666        -0.007099     -0.015221     -0.062760
 -----------------------------------------------------------------------------------
    total drift:                               -0.017331      0.003407      0.020585


--------------------------------------------------------------------------------------------------------



  FREE ENERGIE OF THE ION-ELECTRON SYSTEM (eV)
  ---------------------------------------------------
  free  energy   TOTEN  =      -129.50072376 eV

  energy  without entropy=     -129.50072376  energy(sigma->0) =     -129.50072376
 
 d Force = 0.3846705E-04[ 0.371E-04, 0.398E-04]  d Energy = 0.3856885E-04-0.102E-06
 d Force =-0.4574474E-01[-0.457E-01,-0.457E-01]  d Ewald  =-0.4574474E-01-0.126E-09


--------------------------------------------------------------------------------------------------------


    POTLOK:  cpu time   21.7617: real time   23.1233


--------------------------------------------------------------------------------------------------------


 NEB: the previous image is higher in energy: F
 NEB: the next image is higher in energy    : T
 NEB: only next energy greater

 NEB: Tangent
 ----------------------------------------------
     -0.06724     -0.08366     -0.13502
     -0.00037     -0.08868     -0.11510
     -0.02511     -0.08041     -0.11994
      0.01013     -0.00397     -0.09808
     -0.10439     -0.14689     -0.00731
     -0.00747     -0.00836     -0.17060
      0.06145      0.12936     -0.22490
     -0.02179     -0.07027     -0.30109
     -0.08035      0.00662      0.00609
      0.04190      0.04803      0.33645
      0.17324      0.15205      0.24602
      0.02035      0.03579      0.33248
     -0.03248     -0.07029     -0.11766
     -0.04067     -0.02477     -0.08707
     -0.02820     -0.02242     -0.03669
      0.00279      0.00560     -0.19184
      0.03139      0.04537      0.14927
      0.05761      0.07086      0.26047
     -0.00204      0.00238     -0.09549
     -0.02302      0.03239      0.08895
     -0.08526     -0.01953     -0.05958
      0.12907      0.09094      0.33745

 NEB: forces: par spring, perp REAL, dneb     0.003222    0.103928    0.000000
 NEB: distance to prev, next image, angle between     1.162490    1.161845  164.693767
 NEB: projections on to tangent (spring, REAL)    -0.003222   -0.029256

 stress matrix after NEB project (eV)
     -3.74934     -0.07971     -0.04953
     -0.07971     -3.51813      0.18711
     -0.04953      0.18711     -3.77128
  FORCES: max atom, RMS     0.055610    0.022168
  FORCE total and by dimension    0.103978    0.053975
  Stress total and by dimension    6.383178    3.771283
 OPT: skip step - force has converged


--------------------------------------------------------------------------------------------------------


  
 reached required accuracy - stopping structural energy minimisation
     LOOP+:  cpu time 1815.3760: real time 1815.5746
    4ORBIT:  cpu time    0.0000: real time    0.0000

 total amount of memory used by VASP on root node  4333706. kBytes
========================================================================

   base      :      30000. kBytes
   nonlr-proj:       2401. kBytes
   fftplans  :     924480. kBytes
   grid      :    2089440. kBytes
   one-center:         67. kBytes
   wavefun   :    1287318. kBytes
 
  
  
 General timing and accounting informations for this job:
 ========================================================
  
                  Total CPU time used (sec):   123749.562
                            User time (sec):   122983.566
                          System time (sec):      765.999
                         Elapsed time (sec):   123693.186
  
                   Maximum memory used (kb):     5902108.
                   Average memory used (kb):           0.
  
                          Minor page faults:    181702744
                          Major page faults:            5
                 Voluntary context switches:         7877
