 vasp.5.4.1 24Jun15 (build Jan 13 2020 12:58:22) complex                        
  
 POSCAR found type information on POSCAR  H  C  N  O 
 04/POSCAR found :  4 types and      22 ions
 scaLAPACK will be used
 LDA part: xc-table for Pade appr. of Perdew
 POSCAR found type information on POSCAR  H  C  N  O 
 00/POSCAR found :  4 types and      22 ions
 POSCAR found type information on POSCAR  H  C  N  O 
 16/POSCAR found :  4 types and      22 ions
 Jacobian:    50.2178792621697     
 POSCAR, INCAR and KPOINTS ok, starting setup
 WARNING: small aliasing (wrap around) errors must be expected
 FFT: planning ...
 WAVECAR not read
 entering main loop
       N       E                     dE             d eps       ncg     rms          rms(c)
DAV:   1     0.609896387705E+03    0.60990E+03   -0.79653E+03   392   0.485E+02
DAV:   2     0.273267991246E+03   -0.33663E+03   -0.32593E+03   579   0.913E+01
DAV:   3    -0.449294697694E+02   -0.31820E+03   -0.30819E+03   504   0.110E+02
DAV:   4    -0.136699367989E+03   -0.91770E+02   -0.91596E+02   398   0.804E+01
DAV:   5    -0.141811531234E+03   -0.51122E+01   -0.50962E+01   448   0.229E+01    0.195E+01
DAV:   6    -0.131715384364E+03    0.10096E+02   -0.23880E+01   421   0.200E+01    0.998E+00
DAV:   7    -0.129958649655E+03    0.17567E+01   -0.45460E+00   424   0.829E+00    0.514E+00
DAV:   8    -0.129467040677E+03    0.49161E+00   -0.86936E-01   432   0.403E+00    0.154E+00
DAV:   9    -0.129398234135E+03    0.68807E-01   -0.98421E-02   464   0.152E+00    0.564E-01
DAV:  10    -0.129386676924E+03    0.11557E-01   -0.23871E-02   437   0.800E-01    0.259E-01
DAV:  11    -0.129380948704E+03    0.57282E-02   -0.77132E-03   456   0.440E-01    0.159E-01
DAV:  12    -0.129381551881E+03   -0.60318E-03   -0.55425E-03   438   0.345E-01    0.968E-02
DAV:  13    -0.129387980481E+03   -0.64286E-02   -0.42415E-03   432   0.312E-01    0.563E-02
DAV:  14    -0.129394912281E+03   -0.69318E-02   -0.18538E-03   430   0.201E-01    0.362E-02
DAV:  15    -0.129402187494E+03   -0.72752E-02   -0.70643E-04   412   0.982E-02    0.234E-02
DAV:  16    -0.129408074899E+03   -0.58874E-02   -0.46184E-04   358   0.666E-02    0.129E-02
DAV:  17    -0.129410720792E+03   -0.26459E-02   -0.13219E-04   368   0.379E-02    0.830E-03
DAV:  18    -0.129412374837E+03   -0.16540E-02   -0.11069E-04   356   0.291E-02    0.515E-03
DAV:  19    -0.129413222091E+03   -0.84725E-03   -0.44806E-05   358   0.185E-02    0.307E-03
DAV:  20    -0.129413643894E+03   -0.42180E-03   -0.17879E-05   334   0.134E-02    0.192E-03
DAV:  21    -0.129413843499E+03   -0.19960E-03   -0.72554E-06   350   0.764E-03    0.111E-03
DAV:  22    -0.129413978258E+03   -0.13476E-03   -0.35885E-06   277   0.597E-03    0.824E-04
DAV:  23    -0.129414016156E+03   -0.37898E-04   -0.90928E-07   368   0.314E-03
   1 F= -.12941402E+03 E0= -.12941402E+03  d E =-.129414E+03
damped:  g(F)=  0.000E+00 g(S)=  0.000E+00 dE (1.order)= 0.000E+00
 bond charge predicted
       N       E                     dE             d eps       ncg     rms          rms(c)
DAV:   1    -0.129417738172E+03   -0.37599E-02   -0.15019E-01   332   0.205E+00    0.101E-01
DAV:   2    -0.129418056640E+03   -0.31847E-03   -0.46860E-03   464   0.323E-01    0.673E-02
DAV:   3    -0.129418001450E+03    0.55191E-04   -0.12899E-04   368   0.678E-02    0.388E-02
DAV:   4    -0.129417996989E+03    0.44610E-05   -0.12708E-04   293   0.617E-02    0.768E-03
DAV:   5    -0.129417999266E+03   -0.22775E-05   -0.27708E-05   368   0.279E-02    0.467E-03
DAV:   6    -0.129418000743E+03   -0.14768E-05   -0.39182E-06   236   0.106E-02
   2 F= -.12941800E+03 E0= -.12941800E+03  d E =-.398459E-02
damped:  g(F)=  0.000E+00 g(S)=  0.000E+00 dE (1.order)= 0.000E+00
 bond charge predicted
       N       E                     dE             d eps       ncg     rms          rms(c)
DAV:   1    -0.129419636914E+03   -0.16376E-02   -0.23883E-01   332   0.258E+00    0.112E-01
DAV:   2    -0.129420043366E+03   -0.40645E-03   -0.59600E-03   428   0.368E-01    0.760E-02
DAV:   3    -0.129419988610E+03    0.54756E-04   -0.15429E-04   368   0.722E-02    0.445E-02
DAV:   4    -0.129420009741E+03   -0.21132E-04   -0.15336E-04   264   0.669E-02    0.836E-03
DAV:   5    -0.129420013697E+03   -0.39555E-05   -0.33006E-05   272   0.303E-02    0.511E-03
DAV:   6    -0.129420016085E+03   -0.23878E-05   -0.53886E-06   236   0.120E-02
   3 F= -.12942002E+03 E0= -.12942002E+03  d E =-.201534E-02
damped:  g(F)=  0.000E+00 g(S)=  0.000E+00 dE (1.order)= 0.000E+00
 bond charge predicted
       N       E                     dE             d eps       ncg     rms          rms(c)
DAV:   1    -0.129422911557E+03   -0.28979E-02   -0.27046E-01   333   0.273E+00    0.107E-01
DAV:   2    -0.129423366385E+03   -0.45483E-03   -0.61130E-03   426   0.356E-01    0.731E-02
DAV:   3    -0.129423348325E+03    0.18060E-04   -0.11801E-04   368   0.627E-02    0.446E-02
DAV:   4    -0.129423386632E+03   -0.38307E-04   -0.11861E-04   296   0.591E-02    0.800E-03
DAV:   5    -0.129423389600E+03   -0.29681E-05   -0.25176E-05   304   0.267E-02    0.505E-03
DAV:   6    -0.129423391021E+03   -0.14211E-05   -0.34077E-06   272   0.955E-03
   4 F= -.12942339E+03 E0= -.12942339E+03  d E =-.337494E-02
damped:  g(F)=  0.000E+00 g(S)=  0.000E+00 dE (1.order)= 0.000E+00
 bond charge predicted
       N       E                     dE             d eps       ncg     rms          rms(c)
DAV:   1    -0.129427638962E+03   -0.42494E-02   -0.46029E-01   332   0.355E+00    0.137E-01
DAV:   2    -0.129428326260E+03   -0.68730E-03   -0.96193E-03   428   0.457E-01    0.938E-02
DAV:   3    -0.129428284000E+03    0.42260E-04   -0.18035E-04   360   0.806E-02    0.562E-02
DAV:   4    -0.129428331545E+03   -0.47544E-04   -0.21898E-04   312   0.825E-02    0.954E-03
DAV:   5    -0.129428335232E+03   -0.36870E-05   -0.48662E-05   336   0.369E-02    0.661E-03
DAV:   6    -0.129428336884E+03   -0.16524E-05   -0.56406E-06   248   0.123E-02
   5 F= -.12942834E+03 E0= -.12942834E+03  d E =-.494586E-02
damped:  g(F)=  0.000E+00 g(S)=  0.000E+00 dE (1.order)= 0.000E+00
 bond charge predicted
       N       E                     dE             d eps       ncg     rms          rms(c)
DAV:   1    -0.129430954173E+03   -0.26189E-02   -0.63972E-01   331   0.416E+00    0.163E-01
DAV:   2    -0.129431936913E+03   -0.98274E-03   -0.13621E-02   396   0.546E-01    0.109E-01
DAV:   3    -0.129431882095E+03    0.54818E-04   -0.26299E-04   399   0.940E-02    0.629E-02
DAV:   4    -0.129431955366E+03   -0.73272E-04   -0.28865E-04   360   0.926E-02    0.109E-02
DAV:   5    -0.129431960396E+03   -0.50301E-05   -0.49262E-05   304   0.361E-02    0.741E-03
DAV:   6    -0.129431963984E+03   -0.35874E-05   -0.66264E-06   300   0.129E-02
   6 F= -.12943196E+03 E0= -.12943196E+03  d E =-.362710E-02
damped:  g(F)=  0.000E+00 g(S)=  0.000E+00 dE (1.order)= 0.000E+00
 bond charge predicted
       N       E                     dE             d eps       ncg     rms          rms(c)
DAV:   1    -0.129434415702E+03   -0.24553E-02   -0.62033E-01   329   0.410E+00    0.161E-01
DAV:   2    -0.129435388746E+03   -0.97304E-03   -0.13131E-02   378   0.525E-01    0.104E-01
DAV:   3    -0.129435381298E+03    0.74479E-05   -0.21922E-04   391   0.847E-02    0.588E-02
DAV:   4    -0.129435469998E+03   -0.88700E-04   -0.19360E-04   306   0.758E-02    0.949E-03
DAV:   5    -0.129435476355E+03   -0.63569E-05   -0.35042E-05   304   0.307E-02    0.676E-03
DAV:   6    -0.129435480859E+03   -0.45038E-05   -0.41411E-06   274   0.108E-02
   7 F= -.12943548E+03 E0= -.12943548E+03  d E =-.351688E-02
damped:  g(F)=  0.000E+00 g(S)=  0.000E+00 dE (1.order)= 0.000E+00
 bond charge predicted
       N       E                     dE             d eps       ncg     rms          rms(c)
DAV:   1    -0.129439479660E+03   -0.40033E-02   -0.81756E-01   331   0.472E+00    0.192E-01
DAV:   2    -0.129440784136E+03   -0.13045E-02   -0.17701E-02   387   0.611E-01    0.128E-01
DAV:   3    -0.129440763183E+03    0.20953E-04   -0.34191E-04   445   0.102E-01    0.720E-02
DAV:   4    -0.129440872505E+03   -0.10932E-03   -0.21401E-04   316   0.804E-02    0.111E-02
DAV:   5    -0.129440879243E+03   -0.67380E-05   -0.41887E-05   368   0.336E-02    0.762E-03
DAV:   6    -0.129440882503E+03   -0.32595E-05   -0.48295E-06   284   0.114E-02
   8 F= -.12944088E+03 E0= -.12944088E+03  d E =-.540164E-02
damped:  g(F)=  0.000E+00 g(S)=  0.000E+00 dE (1.order)= 0.000E+00
 bond charge predicted
       N       E                     dE             d eps       ncg     rms          rms(c)
DAV:   1    -0.129443945136E+03   -0.30659E-02   -0.10988E+00   329   0.541E+00    0.227E-01
DAV:   2    -0.129445627341E+03   -0.16822E-02   -0.23051E-02   396   0.691E-01    0.147E-01
DAV:   3    -0.129445623655E+03    0.36863E-05   -0.44283E-04   428   0.116E-01    0.787E-02
DAV:   4    -0.129445781642E+03   -0.15799E-03   -0.27467E-04   414   0.873E-02    0.141E-02
DAV:   5    -0.129445788466E+03   -0.68241E-05   -0.45408E-05   336   0.358E-02    0.850E-03
DAV:   6    -0.129445793047E+03   -0.45815E-05   -0.60234E-06   286   0.126E-02
   9 F= -.12944579E+03 E0= -.12944579E+03  d E =-.491054E-02
damped:  g(F)=  0.000E+00 g(S)=  0.000E+00 dE (1.order)= 0.000E+00
 bond charge predicted
       N       E                     dE             d eps       ncg     rms          rms(c)
DAV:   1    -0.129449938320E+03   -0.41499E-02   -0.16401E+00   328   0.656E+00    0.276E-01
DAV:   2    -0.129452502793E+03   -0.25645E-02   -0.35125E-02   396   0.863E-01    0.181E-01
DAV:   3    -0.129452417536E+03    0.85257E-04   -0.67613E-04   438   0.149E-01    0.100E-01
DAV:   4    -0.129452622963E+03   -0.20543E-03   -0.52899E-04   397   0.124E-01    0.171E-02
DAV:   5    -0.129452635159E+03   -0.12196E-04   -0.88908E-05   320   0.493E-02    0.113E-02
DAV:   6    -0.129452642032E+03   -0.68728E-05   -0.99695E-06   282   0.168E-02
  10 F= -.12945264E+03 E0= -.12945264E+03  d E =-.684898E-02
damped:  g(F)=  0.000E+00 g(S)=  0.000E+00 dE (1.order)= 0.000E+00
 bond charge predicted
       N       E                     dE             d eps       ncg     rms          rms(c)
DAV:   1    -0.129454716279E+03   -0.20811E-02   -0.24041E+00   328   0.799E+00    0.327E-01
DAV:   2    -0.129458812753E+03   -0.40965E-02   -0.53549E-02   396   0.106E+00    0.223E-01
DAV:   3    -0.129458590924E+03    0.22183E-03   -0.10682E-03   429   0.186E-01    0.124E-01
DAV:   4    -0.129458836387E+03   -0.24546E-03   -0.79825E-04   426   0.153E-01    0.221E-02
DAV:   5    -0.129458855830E+03   -0.19444E-04   -0.13395E-04   368   0.584E-02    0.149E-02
DAV:   6    -0.129458865091E+03   -0.92606E-05   -0.12606E-05   268   0.183E-02
  11 F= -.12945887E+03 E0= -.12945887E+03  d E =-.622306E-02
damped:  g(F)=  0.000E+00 g(S)=  0.000E+00 dE (1.order)= 0.000E+00
 bond charge predicted
       N       E                     dE             d eps       ncg     rms          rms(c)
DAV:   1    -0.129456857124E+03    0.19987E-02   -0.34516E+00   328   0.967E+00    0.410E-01
DAV:   2    -0.129463637393E+03   -0.67803E-02   -0.88556E-02   361   0.136E+00    0.276E-01
DAV:   3    -0.129463204132E+03    0.43326E-03   -0.17040E-03   438   0.232E-01    0.160E-01
DAV:   4    -0.129463468056E+03   -0.26392E-03   -0.11874E-03   420   0.190E-01    0.274E-02
DAV:   5    -0.129463508396E+03   -0.40339E-04   -0.21243E-04   400   0.728E-02    0.191E-02
DAV:   6    -0.129463523475E+03   -0.15079E-04   -0.16686E-05   320   0.214E-02
  12 F= -.12946352E+03 E0= -.12946352E+03  d E =-.465838E-02
damped:  g(F)=  0.000E+00 g(S)=  0.000E+00 dE (1.order)= 0.000E+00
 bond charge predicted
       N       E                     dE             d eps       ncg     rms          rms(c)
DAV:   1    -0.129467022607E+03   -0.35142E-02   -0.17779E-01   333   0.216E+00    0.138E-01
DAV:   2    -0.129467617040E+03   -0.59443E-03   -0.79246E-03   393   0.392E-01    0.831E-02
DAV:   3    -0.129467547862E+03    0.69178E-04   -0.21928E-04   414   0.796E-02    0.483E-02
DAV:   4    -0.129467527248E+03    0.20614E-04   -0.14038E-04   328   0.618E-02    0.112E-02
DAV:   5    -0.129467532394E+03   -0.51456E-05   -0.32379E-05   350   0.282E-02    0.606E-03
DAV:   6    -0.129467536468E+03   -0.40743E-05   -0.40277E-06   304   0.106E-02
  13 F= -.12946754E+03 E0= -.12946754E+03  d E =-.401299E-02
damped:  g(F)=  0.000E+00 g(S)=  0.000E+00 dE (1.order)= 0.000E+00
 bond charge predicted
       N       E                     dE             d eps       ncg     rms          rms(c)
DAV:   1    -0.129465500807E+03    0.20316E-02   -0.23024E-01   328   0.249E+00    0.149E-01
DAV:   2    -0.129466184374E+03   -0.68357E-03   -0.99139E-03   428   0.442E-01    0.939E-02
DAV:   3    -0.129466051792E+03    0.13258E-03   -0.26582E-04   432   0.884E-02    0.546E-02
DAV:   4    -0.129465973942E+03    0.77851E-04   -0.18029E-04   360   0.720E-02    0.123E-02
DAV:   5    -0.129465968890E+03    0.50518E-05   -0.42763E-05   368   0.333E-02    0.719E-03
DAV:   6    -0.129465974040E+03   -0.51501E-05   -0.52921E-06   220   0.127E-02
  14 F= -.12946597E+03 E0= -.12946597E+03  d E =0.156243E-02
damped:  g(F)=  0.000E+00 g(S)=  0.000E+00 dE (1.order)= 0.000E+00
 bond charge predicted
       N       E                     dE             d eps       ncg     rms          rms(c)
DAV:   1    -0.129466937273E+03   -0.96838E-03   -0.77199E-03   363   0.442E-01    0.303E-02
DAV:   2    -0.129466974120E+03   -0.36847E-04   -0.33840E-04   430   0.804E-02    0.172E-02
DAV:   3    -0.129466982174E+03   -0.80543E-05   -0.11178E-05   258   0.184E-02    0.943E-03
DAV:   4    -0.129466996900E+03   -0.14726E-04   -0.70100E-06   330   0.131E-02    0.198E-03
DAV:   5    -0.129467004429E+03   -0.75293E-05   -0.15740E-06   304   0.594E-03    0.103E-03
DAV:   6    -0.129467009089E+03   -0.46604E-05   -0.29962E-07   202   0.254E-03
  15 F= -.12946701E+03 E0= -.12946701E+03  d E =-.103505E-02
damped:  g(F)=  0.000E+00 g(S)=  0.000E+00 dE (1.order)= 0.000E+00
 bond charge predicted
       N       E                     dE             d eps       ncg     rms          rms(c)
DAV:   1    -0.129468104005E+03   -0.10996E-02   -0.24310E-02   362   0.789E-01    0.519E-02
DAV:   2    -0.129468181687E+03   -0.77682E-04   -0.11061E-03   394   0.145E-01    0.313E-02
DAV:   3    -0.129468169593E+03    0.12094E-04   -0.28939E-05   332   0.297E-02    0.179E-02
DAV:   4    -0.129468163475E+03    0.61182E-05   -0.25816E-05   296   0.258E-02    0.385E-03
DAV:   5    -0.129468163403E+03    0.72344E-07   -0.56269E-06   368   0.117E-02    0.221E-03
DAV:   6    -0.129468164048E+03   -0.64592E-06   -0.84685E-07   204   0.470E-03
  16 F= -.12946816E+03 E0= -.12946816E+03  d E =-.115496E-02
damped:  g(F)=  0.000E+00 g(S)=  0.000E+00 dE (1.order)= 0.000E+00
 bond charge predicted
       N       E                     dE             d eps       ncg     rms          rms(c)
DAV:   1    -0.129468546212E+03   -0.38281E-03   -0.34968E-02   363   0.953E-01    0.608E-02
DAV:   2    -0.129468647060E+03   -0.10085E-03   -0.15837E-03   448   0.174E-01    0.377E-02
DAV:   3    -0.129468622982E+03    0.24078E-04   -0.38802E-05   272   0.355E-02    0.220E-02
DAV:   4    -0.129468607493E+03    0.15489E-04   -0.45781E-05   328   0.334E-02    0.507E-03
DAV:   5    -0.129468607945E+03   -0.45167E-06   -0.98650E-06   272   0.169E-02    0.281E-03
DAV:   6    -0.129468610019E+03   -0.20745E-05   -0.17614E-06   224   0.682E-03
  17 F= -.12946861E+03 E0= -.12946861E+03  d E =-.445971E-03
damped:  g(F)=  0.000E+00 g(S)=  0.000E+00 dE (1.order)= 0.000E+00
 bond charge predicted
       N       E                     dE             d eps       ncg     rms          rms(c)
DAV:   1    -0.129468291501E+03    0.31644E-03   -0.26808E-02   333   0.848E-01    0.501E-02
DAV:   2    -0.129468363551E+03   -0.72050E-04   -0.11435E-03   391   0.150E-01    0.324E-02
DAV:   3    -0.129468347667E+03    0.15884E-04   -0.28794E-05   272   0.306E-02    0.194E-02
DAV:   4    -0.129468338815E+03    0.88518E-05   -0.34035E-05   254   0.297E-02    0.438E-03
DAV:   5    -0.129468340735E+03   -0.19196E-05   -0.74479E-06   224   0.145E-02    0.238E-03
DAV:   6    -0.129468343800E+03   -0.30653E-05   -0.13527E-06   220   0.599E-03
  18 F= -.12946834E+03 E0= -.12946834E+03  d E =0.266219E-03
damped:  g(F)=  0.000E+00 g(S)=  0.000E+00 dE (1.order)= 0.000E+00
 bond charge predicted
       N       E                     dE             d eps       ncg     rms          rms(c)
DAV:   1    -0.129468421315E+03   -0.80580E-04   -0.12138E-04   299   0.558E-02    0.332E-03
DAV:   2    -0.129468424937E+03   -0.36219E-05   -0.67315E-06   272   0.135E-02    0.201E-03
DAV:   3    -0.129468427744E+03   -0.28075E-05   -0.73330E-07   200   0.424E-03    0.129E-03
DAV:   4    -0.129468432135E+03   -0.43905E-05   -0.30324E-07   236   0.246E-03    0.384E-04
DAV:   5    -0.129468433992E+03   -0.18578E-05   -0.14258E-07   304   0.125E-03    0.238E-04
DAV:   6    -0.129468435999E+03   -0.20065E-05   -0.85290E-08   232   0.817E-04
  19 F= -.12946844E+03 E0= -.12946844E+03  d E =-.921990E-04
damped:  g(F)=  0.000E+00 g(S)=  0.000E+00 dE (1.order)= 0.000E+00
 bond charge predicted
       N       E                     dE             d eps       ncg     rms          rms(c)
DAV:   1    -0.129468566125E+03   -0.13213E-03   -0.47537E-04   381   0.111E-01    0.702E-03
DAV:   2    -0.129468568316E+03   -0.21909E-05   -0.18182E-05   230   0.197E-02    0.402E-03
DAV:   3    -0.129468569115E+03   -0.79937E-06   -0.20599E-06   250   0.684E-03    0.213E-03
DAV:   4    -0.129468570147E+03   -0.10315E-05   -0.63447E-07   243   0.359E-03    0.703E-04
DAV:   5    -0.129468570805E+03   -0.65851E-06   -0.16063E-07   287   0.199E-03    0.317E-04
DAV:   6    -0.129468571137E+03   -0.33161E-06   -0.88156E-09   236   0.886E-04
  20 F= -.12946857E+03 E0= -.12946857E+03  d E =-.135138E-03
damped:  g(F)=  0.000E+00 g(S)=  0.000E+00 dE (1.order)= 0.000E+00
 bond charge predicted
       N       E                     dE             d eps       ncg     rms          rms(c)
DAV:   1    -0.129468734305E+03   -0.16350E-03   -0.98189E-04   357   0.159E-01    0.100E-02
DAV:   2    -0.129468736889E+03   -0.25836E-05   -0.37311E-05   210   0.283E-02    0.578E-03
DAV:   3    -0.129468736859E+03    0.29659E-07   -0.42205E-06   254   0.981E-03    0.308E-03
DAV:   4    -0.129468736757E+03    0.10273E-06   -0.11413E-06   211   0.517E-03    0.969E-04
DAV:   5    -0.129468736772E+03   -0.15420E-07   -0.30111E-07   272   0.289E-03    0.423E-04
DAV:   6    -0.129468736862E+03   -0.89691E-07   -0.52825E-08   240   0.141E-03
  21 F= -.12946874E+03 E0= -.12946874E+03  d E =-.165725E-03
damped:  g(F)=  0.000E+00 g(S)=  0.000E+00 dE (1.order)= 0.000E+00
 bond charge predicted
       N       E                     dE             d eps       ncg     rms          rms(c)
DAV:   1    -0.129468905798E+03   -0.16903E-03   -0.15406E-03   351   0.200E-01    0.124E-02
DAV:   2    -0.129468909455E+03   -0.36564E-05   -0.60154E-05   270   0.353E-02    0.720E-03
DAV:   3    -0.129468908865E+03    0.58940E-06   -0.47273E-06   272   0.101E-02    0.419E-03
DAV:   4    -0.129468908240E+03    0.62480E-06   -0.22172E-06   212   0.718E-03    0.100E-03
DAV:   5    -0.129468908219E+03    0.21589E-07   -0.53111E-07   272   0.372E-03    0.557E-04
DAV:   6    -0.129468908310E+03   -0.91501E-07   -0.12070E-07   204   0.174E-03
  22 F= -.12946891E+03 E0= -.12946891E+03  d E =-.171449E-03
damped:  g(F)=  0.000E+00 g(S)=  0.000E+00 dE (1.order)= 0.000E+00
 bond charge predicted
       N       E                     dE             d eps       ncg     rms          rms(c)
DAV:   1    -0.129469057910E+03   -0.14969E-03   -0.20235E-03   357   0.230E-01    0.140E-02
DAV:   2    -0.129469062746E+03   -0.48362E-05   -0.77173E-05   253   0.401E-02    0.816E-03
DAV:   3    -0.129469062043E+03    0.70298E-06   -0.61226E-06   232   0.115E-02    0.475E-03
DAV:   4    -0.129469061345E+03    0.69805E-06   -0.28608E-06   218   0.813E-03    0.114E-03
DAV:   5    -0.129469061363E+03   -0.18217E-07   -0.70466E-07   186   0.423E-03    0.633E-04
DAV:   6    -0.129469061515E+03   -0.15180E-06   -0.17931E-07   193   0.199E-03
  23 F= -.12946906E+03 E0= -.12946906E+03  d E =-.153205E-03
damped:  g(F)=  0.000E+00 g(S)=  0.000E+00 dE (1.order)= 0.000E+00
 bond charge predicted
       N       E                     dE             d eps       ncg     rms          rms(c)
DAV:   1    -0.129469175726E+03   -0.11436E-03   -0.23173E-03   364   0.247E-01    0.146E-02
DAV:   2    -0.129469181142E+03   -0.54160E-05   -0.84231E-05   235   0.421E-02    0.860E-03
DAV:   3    -0.129469180457E+03    0.68443E-06   -0.67563E-06   167   0.120E-02    0.498E-03
DAV:   4    -0.129469179844E+03    0.61303E-06   -0.31321E-06   221   0.850E-03    0.119E-03
DAV:   5    -0.129469179922E+03   -0.77762E-07   -0.78324E-07   174   0.444E-03    0.662E-04
DAV:   6    -0.129469180127E+03   -0.20470E-06   -0.20793E-07   192   0.209E-03
  24 F= -.12946918E+03 E0= -.12946918E+03  d E =-.118611E-03
damped:  g(F)=  0.000E+00 g(S)=  0.000E+00 dE (1.order)= 0.000E+00
 bond charge predicted
       N       E                     dE             d eps       ncg     rms          rms(c)
DAV:   1    -0.129469264627E+03   -0.84705E-04   -0.29105E-03   359   0.279E-01    0.157E-02
DAV:   2    -0.129469270929E+03   -0.63014E-05   -0.96220E-05   235   0.454E-02    0.938E-03
DAV:   3    -0.129469270268E+03    0.66091E-06   -0.78620E-06   164   0.130E-02    0.538E-03
DAV:   4    -0.129469269759E+03    0.50898E-06   -0.35790E-06   202   0.911E-03    0.126E-03
DAV:   5    -0.129469269880E+03   -0.12121E-06   -0.91228E-07   166   0.477E-03    0.703E-04
DAV:   6    -0.129469270118E+03   -0.23836E-06   -0.25185E-07   198   0.224E-03
  25 F= -.12946927E+03 E0= -.12946927E+03  d E =-.899918E-04
damped:  g(F)=  0.000E+00 g(S)=  0.000E+00 dE (1.order)= 0.000E+00
 bond charge predicted
       N       E                     dE             d eps       ncg     rms          rms(c)
DAV:   1    -0.129469336233E+03   -0.66353E-04   -0.33961E-03   356   0.302E-01    0.158E-02
DAV:   2    -0.129469342418E+03   -0.61841E-05   -0.93756E-05   235   0.456E-02    0.964E-03
DAV:   3    -0.129469342006E+03    0.41199E-06   -0.79592E-06   164   0.132E-02    0.538E-03
DAV:   4    -0.129469341842E+03    0.16312E-06   -0.34696E-06   183   0.899E-03    0.122E-03
DAV:   5    -0.129469342029E+03   -0.18675E-06   -0.91158E-07   164   0.472E-03    0.683E-04
DAV:   6    -0.129469342289E+03   -0.25995E-06   -0.25979E-07   192   0.220E-03
  26 F= -.12946934E+03 E0= -.12946934E+03  d E =-.721708E-04
damped:  g(F)=  0.000E+00 g(S)=  0.000E+00 dE (1.order)= 0.000E+00
 bond charge predicted
       N       E                     dE             d eps       ncg     rms          rms(c)
DAV:   1    -0.129469428004E+03   -0.85975E-04   -0.39628E-03   358   0.323E-01    0.154E-02
DAV:   2    -0.129469432970E+03   -0.49658E-05   -0.77922E-05   202   0.435E-02    0.968E-03
DAV:   3    -0.129469433384E+03   -0.41371E-06   -0.95571E-06   172   0.154E-02    0.466E-03
DAV:   4    -0.129469433752E+03   -0.36837E-06   -0.27148E-06   189   0.796E-03    0.111E-03
DAV:   5    -0.129469434021E+03   -0.26875E-06   -0.77257E-07   173   0.425E-03    0.542E-04
DAV:   6    -0.129469434274E+03   -0.25352E-06   -0.24619E-07   191   0.208E-03
  27 F= -.12946943E+03 E0= -.12946943E+03  d E =-.919850E-04
damped:  g(F)=  0.000E+00 g(S)=  0.000E+00 dE (1.order)= 0.000E+00
 bond charge predicted
       N       E                     dE             d eps       ncg     rms          rms(c)
DAV:   1    -0.129469592510E+03   -0.15849E-03   -0.51999E-03   342   0.361E-01    0.166E-02
DAV:   2    -0.129469597054E+03   -0.45437E-05   -0.76485E-05   240   0.429E-02    0.106E-02
DAV:   3    -0.129469598048E+03   -0.99468E-06   -0.75935E-06   200   0.129E-02    0.470E-03
DAV:   4    -0.129469598856E+03   -0.80725E-06   -0.27004E-06   240   0.745E-03    0.965E-04
DAV:   5    -0.129469599142E+03   -0.28612E-06   -0.75738E-07   200   0.375E-03    0.491E-04
DAV:   6    -0.129469599362E+03   -0.22026E-06   -0.22724E-07   176   0.173E-03
  28 F= -.12946960E+03 E0= -.12946960E+03  d E =-.165088E-03
damped:  g(F)=  0.000E+00 g(S)=  0.000E+00 dE (1.order)= 0.000E+00
 bond charge predicted
       N       E                     dE             d eps       ncg     rms          rms(c)
DAV:   1    -0.129469866236E+03   -0.26709E-03   -0.80604E-03   358   0.449E-01    0.209E-02
DAV:   2    -0.129469872757E+03   -0.65216E-05   -0.11982E-04   266   0.538E-02    0.134E-02
DAV:   3    -0.129469874244E+03   -0.14865E-05   -0.11983E-05   247   0.163E-02    0.614E-03
DAV:   4    -0.129469875407E+03   -0.11638E-05   -0.43530E-06   227   0.965E-03    0.130E-03
DAV:   5    -0.129469875660E+03   -0.25260E-06   -0.12062E-06   272   0.476E-03    0.678E-04
DAV:   6    -0.129469875819E+03   -0.15933E-06   -0.36048E-07   204   0.209E-03
  29 F= -.12946988E+03 E0= -.12946988E+03  d E =-.276457E-03
damped:  g(F)=  0.000E+00 g(S)=  0.000E+00 dE (1.order)= 0.000E+00
 bond charge predicted
       N       E                     dE             d eps       ncg     rms          rms(c)
DAV:   1    -0.129470230800E+03   -0.35514E-03   -0.13454E-02   344   0.588E-01    0.281E-02
DAV:   2    -0.129470245374E+03   -0.14574E-04   -0.25882E-04   338   0.764E-02    0.186E-02
DAV:   3    -0.129470244826E+03    0.54818E-06   -0.15341E-05   271   0.205E-02    0.958E-03
DAV:   4    -0.129470245629E+03   -0.80267E-06   -0.71409E-06   200   0.137E-02    0.195E-03
DAV:   5    -0.129470245781E+03   -0.15220E-06   -0.14963E-06   272   0.653E-03    0.101E-03
DAV:   6    -0.129470245996E+03   -0.21549E-06   -0.24906E-07   204   0.259E-03
  30 F= -.12947025E+03 E0= -.12947025E+03  d E =-.370177E-03
damped:  g(F)=  0.000E+00 g(S)=  0.000E+00 dE (1.order)= 0.000E+00
 bond charge predicted
       N       E                     dE             d eps       ncg     rms          rms(c)
DAV:   1    -0.129470615527E+03   -0.36975E-03   -0.21286E-02   336   0.744E-01    0.359E-02
DAV:   2    -0.129470642903E+03   -0.27376E-04   -0.46246E-04   388   0.995E-02    0.246E-02
DAV:   3    -0.129470639048E+03    0.38547E-05   -0.11996E-05   247   0.210E-02    0.138E-02
DAV:   4    -0.129470640203E+03   -0.11548E-05   -0.14425E-05   217   0.195E-02    0.269E-03
DAV:   5    -0.129470640503E+03   -0.30062E-06   -0.29279E-06   248   0.916E-03    0.157E-03
DAV:   6    -0.129470640915E+03   -0.41191E-06   -0.43967E-07   200   0.341E-03
  31 F= -.12947064E+03 E0= -.12947064E+03  d E =-.394919E-03
damped:  g(F)=  0.000E+00 g(S)=  0.000E+00 dE (1.order)= 0.000E+00
 bond charge predicted
       N       E                     dE             d eps       ncg     rms          rms(c)
DAV:   1    -0.129471007054E+03   -0.36655E-03   -0.29750E-02   335   0.874E-01    0.413E-02
DAV:   2    -0.129471042195E+03   -0.35141E-04   -0.59030E-04   372   0.112E-01    0.282E-02
DAV:   3    -0.129471038696E+03    0.34993E-05   -0.14750E-05   213   0.236E-02    0.153E-02
DAV:   4    -0.129471041643E+03   -0.29469E-05   -0.17369E-05   236   0.213E-02    0.296E-03
DAV:   5    -0.129471042213E+03   -0.57073E-06   -0.35159E-06   201   0.100E-02    0.175E-03
DAV:   6    -0.129471042888E+03   -0.67477E-06   -0.52746E-07   203   0.369E-03
  32 F= -.12947104E+03 E0= -.12947104E+03  d E =-.401973E-03
damped:  g(F)=  0.000E+00 g(S)=  0.000E+00 dE (1.order)= 0.000E+00
 bond charge predicted
       N       E                     dE             d eps       ncg     rms          rms(c)
DAV:   1    -0.129471543398E+03   -0.50118E-03   -0.38831E-02   331   0.982E-01    0.450E-02
DAV:   2    -0.129471583852E+03   -0.40454E-04   -0.65354E-04   369   0.116E-01    0.302E-02
DAV:   3    -0.129471583626E+03    0.22599E-06   -0.14350E-05   201   0.237E-02    0.150E-02
DAV:   4    -0.129471589193E+03   -0.55671E-05   -0.16420E-05   244   0.200E-02    0.303E-03
DAV:   5    -0.129471589774E+03   -0.58063E-06   -0.32777E-06   211   0.949E-03    0.174E-03
DAV:   6    -0.129471590405E+03   -0.63103E-06   -0.45172E-07   202   0.334E-03
  33 F= -.12947159E+03 E0= -.12947159E+03  d E =-.547517E-03
damped:  g(F)=  0.000E+00 g(S)=  0.000E+00 dE (1.order)= 0.000E+00
 bond charge predicted
       N       E                     dE             d eps       ncg     rms          rms(c)
DAV:   1    -0.129472313037E+03   -0.72326E-03   -0.55312E-02   331   0.118E+00    0.527E-02
DAV:   2    -0.129472382052E+03   -0.69014E-04   -0.10124E-03   394   0.145E-01    0.355E-02
DAV:   3    -0.129472380403E+03    0.16481E-05   -0.18922E-05   220   0.269E-02    0.183E-02
DAV:   4    -0.129472387687E+03   -0.72839E-05   -0.25388E-05   281   0.246E-02    0.382E-03
DAV:   5    -0.129472388011E+03   -0.32318E-06   -0.44659E-06   272   0.114E-02    0.210E-03
DAV:   6    -0.129472388321E+03   -0.31049E-06   -0.46962E-07   240   0.367E-03
  34 F= -.12947239E+03 E0= -.12947239E+03  d E =-.797916E-03
damped:  g(F)=  0.000E+00 g(S)=  0.000E+00 dE (1.order)= 0.000E+00
 bond charge predicted
       N       E                     dE             d eps       ncg     rms          rms(c)
DAV:   1    -0.129473184924E+03   -0.79691E-03   -0.83277E-02   330   0.147E+00    0.639E-02
DAV:   2    -0.129473307277E+03   -0.12235E-03   -0.17234E-03   396   0.189E-01    0.435E-02
DAV:   3    -0.129473299552E+03    0.77245E-05   -0.30031E-05   255   0.340E-02    0.239E-02
DAV:   4    -0.129473307546E+03   -0.79933E-05   -0.43736E-05   313   0.335E-02    0.488E-03
DAV:   5    -0.129473307941E+03   -0.39499E-06   -0.84628E-06   272   0.159E-02    0.279E-03
DAV:   6    -0.129473308409E+03   -0.46866E-06   -0.10596E-06   238   0.521E-03
  35 F= -.12947331E+03 E0= -.12947331E+03  d E =-.920088E-03
damped:  g(F)=  0.000E+00 g(S)=  0.000E+00 dE (1.order)= 0.000E+00
 bond charge predicted
       N       E                     dE             d eps       ncg     rms          rms(c)
DAV:   1    -0.129474215850E+03   -0.90791E-03   -0.11405E-01   331   0.171E+00    0.713E-02
DAV:   2    -0.129474375128E+03   -0.15928E-03   -0.22203E-03   396   0.212E-01    0.484E-02
DAV:   3    -0.129474370097E+03    0.50310E-05   -0.34285E-05   228   0.366E-02    0.264E-02
DAV:   4    -0.129474385152E+03   -0.15055E-04   -0.51003E-05   301   0.362E-02    0.523E-03
DAV:   5    -0.129474386022E+03   -0.86921E-06   -0.94530E-06   240   0.165E-02    0.300E-03
DAV:   6    -0.129474386830E+03   -0.80854E-06   -0.10587E-06   220   0.514E-03
  36 F= -.12947439E+03 E0= -.12947439E+03  d E =-.107842E-02
damped:  g(F)=  0.000E+00 g(S)=  0.000E+00 dE (1.order)= 0.000E+00
 bond charge predicted
       N       E                     dE             d eps       ncg     rms          rms(c)
DAV:   1    -0.129475558421E+03   -0.11724E-02   -0.16215E-01   329   0.205E+00    0.826E-02
DAV:   2    -0.129475799289E+03   -0.24087E-03   -0.33119E-03   356   0.260E-01    0.563E-02
DAV:   3    -0.129475794980E+03    0.43090E-05   -0.71965E-05   357   0.459E-02    0.322E-02
DAV:   4    -0.129475816638E+03   -0.21659E-04   -0.62628E-05   235   0.442E-02    0.569E-03
DAV:   5    -0.129475817968E+03   -0.13297E-05   -0.13624E-05   272   0.196E-02    0.393E-03
DAV:   6    -0.129475818989E+03   -0.10213E-05   -0.15962E-06   218   0.692E-03
  37 F= -.12947582E+03 E0= -.12947582E+03  d E =-.143216E-02
damped:  g(F)=  0.000E+00 g(S)=  0.000E+00 dE (1.order)= 0.000E+00
 bond charge predicted
       N       E                     dE             d eps       ncg     rms          rms(c)
DAV:   1    -0.129476977651E+03   -0.11597E-02   -0.24479E-01   331   0.253E+00    0.977E-02
DAV:   2    -0.129477380312E+03   -0.40266E-03   -0.53606E-03   364   0.329E-01    0.668E-02
DAV:   3    -0.129477368859E+03    0.11453E-04   -0.10657E-04   368   0.551E-02    0.397E-02
DAV:   4    -0.129477398282E+03   -0.29423E-04   -0.94326E-05   264   0.552E-02    0.686E-03
DAV:   5    -0.129477400791E+03   -0.25090E-05   -0.20881E-05   272   0.240E-02    0.486E-03
DAV:   6    -0.129477402795E+03   -0.20042E-05   -0.27395E-06   264   0.851E-03
  38 F= -.12947740E+03 E0= -.12947740E+03  d E =-.158381E-02
damped:  g(F)=  0.000E+00 g(S)=  0.000E+00 dE (1.order)= 0.000E+00
 bond charge predicted
       N       E                     dE             d eps       ncg     rms          rms(c)
DAV:   1    -0.129478735378E+03   -0.13346E-02   -0.34979E-01   328   0.301E+00    0.111E-01
DAV:   2    -0.129479339965E+03   -0.60459E-03   -0.76931E-03   364   0.389E-01    0.756E-02
DAV:   3    -0.129479327833E+03    0.12132E-04   -0.13821E-04   351   0.615E-02    0.452E-02
DAV:   4    -0.129479376132E+03   -0.48299E-04   -0.11741E-04   266   0.629E-02    0.724E-03
DAV:   5    -0.129479379954E+03   -0.38223E-05   -0.27429E-05   272   0.268E-02    0.575E-03
DAV:   6    -0.129479382498E+03   -0.25437E-05   -0.33301E-06   234   0.954E-03
  39 F= -.12947938E+03 E0= -.12947938E+03  d E =-.197970E-02
damped:  g(F)=  0.000E+00 g(S)=  0.000E+00 dE (1.order)= 0.000E+00
 bond charge predicted
       N       E                     dE             d eps       ncg     rms          rms(c)
DAV:   1    -0.129480544834E+03   -0.11649E-02   -0.53551E-01   330   0.372E+00    0.134E-01
DAV:   2    -0.129481538623E+03   -0.99379E-03   -0.12459E-02   364   0.491E-01    0.928E-02
DAV:   3    -0.129481508114E+03    0.30509E-04   -0.21711E-04   343   0.762E-02    0.572E-02
DAV:   4    -0.129481573001E+03   -0.64887E-04   -0.18909E-04   304   0.802E-02    0.891E-03
DAV:   5    -0.129481579345E+03   -0.63439E-05   -0.44614E-05   272   0.337E-02    0.714E-03
DAV:   6    -0.129481582798E+03   -0.34529E-05   -0.50752E-06   295   0.113E-02
  40 F= -.12948158E+03 E0= -.12948158E+03  d E =-.220030E-02
damped:  g(F)=  0.000E+00 g(S)=  0.000E+00 dE (1.order)= 0.000E+00
 bond charge predicted
       N       E                     dE             d eps       ncg     rms          rms(c)
DAV:   1    -0.129482732978E+03   -0.11536E-02   -0.75847E-01   328   0.442E+00    0.155E-01
DAV:   2    -0.129484142097E+03   -0.14091E-02   -0.17513E-02   339   0.582E-01    0.106E-01
DAV:   3    -0.129484106221E+03    0.35876E-04   -0.29956E-04   430   0.876E-02    0.652E-02
DAV:   4    -0.129484203892E+03   -0.97671E-04   -0.20137E-04   332   0.864E-02    0.993E-03
DAV:   5    -0.129484214092E+03   -0.10200E-04   -0.54421E-05   264   0.372E-02    0.789E-03
DAV:   6    -0.129484219504E+03   -0.54125E-05   -0.58939E-06   312   0.124E-02
  41 F= -.12948422E+03 E0= -.12948422E+03  d E =-.263671E-02
damped:  g(F)=  0.000E+00 g(S)=  0.000E+00 dE (1.order)= 0.000E+00
 bond charge predicted
       N       E                     dE             d eps       ncg     rms          rms(c)
DAV:   1    -0.129484799905E+03   -0.58581E-03   -0.11179E+00   328   0.536E+00    0.187E-01
DAV:   2    -0.129486910952E+03   -0.21110E-02   -0.26143E-02   365   0.709E-01    0.128E-01
DAV:   3    -0.129486850963E+03    0.59990E-04   -0.43397E-04   424   0.105E-01    0.788E-02
DAV:   4    -0.129487000043E+03   -0.14908E-03   -0.30804E-04   396   0.104E-01    0.123E-02
DAV:   5    -0.129487013900E+03   -0.13857E-04   -0.71560E-05   296   0.413E-02    0.958E-03
DAV:   6    -0.129487021741E+03   -0.78412E-05   -0.61587E-06   312   0.134E-02
  42 F= -.12948702E+03 E0= -.12948702E+03  d E =-.280224E-02
damped:  g(F)=  0.000E+00 g(S)=  0.000E+00 dE (1.order)= 0.000E+00
 bond charge predicted
       N       E                     dE             d eps       ncg     rms          rms(c)
DAV:   1    -0.129486983893E+03    0.30008E-04   -0.15258E+00   328   0.626E+00    0.220E-01
DAV:   2    -0.129489936412E+03   -0.29525E-02   -0.36643E-02   364   0.836E-01    0.153E-01
DAV:   3    -0.129489821709E+03    0.11470E-03   -0.64382E-04   463   0.127E-01    0.957E-02
DAV:   4    -0.129490043373E+03   -0.22166E-03   -0.44349E-04   395   0.123E-01    0.153E-02
DAV:   5    -0.129490063573E+03   -0.20200E-04   -0.10480E-04   336   0.490E-02    0.123E-02
DAV:   6    -0.129490070412E+03   -0.68388E-05   -0.51915E-06   262   0.122E-02
  43 F= -.12949007E+03 E0= -.12949007E+03  d E =-.304867E-02
damped:  g(F)=  0.000E+00 g(S)=  0.000E+00 dE (1.order)= 0.000E+00
 bond charge predicted
       N       E                     dE             d eps       ncg     rms          rms(c)
DAV:   1    -0.129489305192E+03    0.75838E-03   -0.19676E+00   328   0.712E+00    0.253E-01
DAV:   2    -0.129493091657E+03   -0.37865E-02   -0.47327E-02   340   0.956E-01    0.174E-01
DAV:   3    -0.129492957455E+03    0.13420E-03   -0.81137E-04   463   0.143E-01    0.108E-01
DAV:   4    -0.129493256605E+03   -0.29915E-03   -0.53081E-04   412   0.137E-01    0.172E-02
DAV:   5    -0.129493283796E+03   -0.27190E-04   -0.12804E-04   368   0.547E-02    0.136E-02
DAV:   6    -0.129493294679E+03   -0.10884E-04   -0.71050E-06   328   0.147E-02
  44 F= -.12949329E+03 E0= -.12949329E+03  d E =-.322427E-02
damped:  g(F)=  0.000E+00 g(S)=  0.000E+00 dE (1.order)= 0.000E+00
 bond charge predicted
       N       E                     dE             d eps       ncg     rms          rms(c)
DAV:   1    -0.129491289424E+03    0.19944E-02   -0.25025E+00   328   0.802E+00    0.287E-01
DAV:   2    -0.129496139634E+03   -0.48502E-02   -0.60622E-02   364   0.108E+00    0.201E-01
DAV:   3    -0.129495961907E+03    0.17773E-03   -0.10986E-03   462   0.167E-01    0.126E-01
DAV:   4    -0.129496348906E+03   -0.38700E-03   -0.77352E-04   403   0.161E-01    0.205E-02
DAV:   5    -0.129496382169E+03   -0.33263E-04   -0.17621E-04   368   0.638E-02    0.161E-02
DAV:   6    -0.129496392728E+03   -0.10559E-04   -0.87086E-06   286   0.157E-02
  45 F= -.12949639E+03 E0= -.12949639E+03  d E =-.309805E-02
damped:  g(F)=  0.000E+00 g(S)=  0.000E+00 dE (1.order)= 0.000E+00
 bond charge predicted
       N       E                     dE             d eps       ncg     rms          rms(c)
DAV:   1    -0.129490998396E+03    0.53838E-02   -0.33434E+00   328   0.930E+00    0.348E-01
DAV:   2    -0.129497890364E+03   -0.68920E-02   -0.86743E-02   331   0.130E+00    0.239E-01
DAV:   3    -0.129497591456E+03    0.29891E-03   -0.15897E-03   462   0.200E-01    0.151E-01
DAV:   4    -0.129497978071E+03   -0.38661E-03   -0.10477E-03   395   0.187E-01    0.262E-02
DAV:   5    -0.129498036736E+03   -0.58665E-04   -0.24539E-04   400   0.750E-02    0.196E-02
DAV:   6    -0.129498056050E+03   -0.19314E-04   -0.15902E-05   340   0.212E-02
  46 F= -.12949806E+03 E0= -.12949806E+03  d E =-.166332E-02
damped:  g(F)=  0.000E+00 g(S)=  0.000E+00 dE (1.order)= 0.000E+00
 bond charge predicted
       N       E                     dE             d eps       ncg     rms          rms(c)
DAV:   1    -0.129499911481E+03   -0.18747E-02   -0.11233E-01   333   0.165E+00    0.116E-01
DAV:   2    -0.129500278128E+03   -0.36665E-03   -0.49733E-03   393   0.302E-01    0.651E-02
DAV:   3    -0.129500238163E+03    0.39965E-04   -0.13123E-04   349   0.625E-02    0.367E-02
DAV:   4    -0.129500232618E+03    0.55450E-05   -0.11283E-04   328   0.520E-02    0.765E-03
DAV:   5    -0.129500240190E+03   -0.75719E-05   -0.20694E-05   368   0.220E-02    0.455E-03
DAV:   6    -0.129500245615E+03   -0.54248E-05   -0.28961E-06   202   0.847E-03
  47 F= -.12950025E+03 E0= -.12950025E+03  d E =-.218956E-02
damped:  g(F)=  0.000E+00 g(S)=  0.000E+00 dE (1.order)= 0.000E+00
 bond charge predicted
       N       E                     dE             d eps       ncg     rms          rms(c)
DAV:   1    -0.129498590765E+03    0.16494E-02   -0.12908E-01   331   0.177E+00    0.122E-01
DAV:   2    -0.129498967945E+03   -0.37718E-03   -0.57004E-03   395   0.323E-01    0.705E-02
DAV:   3    -0.129498888373E+03    0.79573E-04   -0.16590E-04   432   0.683E-02    0.393E-02
DAV:   4    -0.129498842547E+03    0.45825E-04   -0.10210E-04   360   0.513E-02    0.971E-03
DAV:   5    -0.129498839431E+03    0.31164E-05   -0.22985E-05   368   0.234E-02    0.529E-03
DAV:   6    -0.129498843721E+03   -0.42897E-05   -0.29415E-06   234   0.938E-03
  48 F= -.12949884E+03 E0= -.12949884E+03  d E =0.140189E-02
damped:  g(F)=  0.000E+00 g(S)=  0.000E+00 dE (1.order)= 0.000E+00
 bond charge predicted
       N       E                     dE             d eps       ncg     rms          rms(c)
DAV:   1    -0.129499511189E+03   -0.67176E-03   -0.57149E-03   367   0.371E-01    0.266E-02
DAV:   2    -0.129499536925E+03   -0.25736E-04   -0.24574E-04   412   0.673E-02    0.144E-02
DAV:   3    -0.129499542566E+03   -0.56402E-05   -0.75224E-06   236   0.152E-02    0.782E-03
DAV:   4    -0.129499553009E+03   -0.10443E-04   -0.58898E-06   321   0.116E-02    0.164E-03
DAV:   5    -0.129499557910E+03   -0.49010E-05   -0.12485E-06   272   0.560E-03    0.913E-04
DAV:   6    -0.129499560206E+03   -0.22959E-05   -0.23589E-07   218   0.231E-03
  49 F= -.12949956E+03 E0= -.12949956E+03  d E =-.716485E-03
damped:  g(F)=  0.000E+00 g(S)=  0.000E+00 dE (1.order)= 0.000E+00
 bond charge predicted
       N       E                     dE             d eps       ncg     rms          rms(c)
DAV:   1    -0.129500281751E+03   -0.72384E-03   -0.17886E-02   332   0.659E-01    0.460E-02
DAV:   2    -0.129500336089E+03   -0.54338E-04   -0.79464E-04   392   0.121E-01    0.260E-02
DAV:   3    -0.129500327530E+03    0.85595E-05   -0.20650E-05   333   0.248E-02    0.145E-02
DAV:   4    -0.129500322765E+03    0.47645E-05   -0.17882E-05   296   0.212E-02    0.311E-03
DAV:   5    -0.129500322641E+03    0.12412E-06   -0.37406E-06   272   0.954E-03    0.184E-03
DAV:   6    -0.129500323111E+03   -0.46968E-06   -0.67687E-07   268   0.407E-03
  50 F= -.12950032E+03 E0= -.12950032E+03  d E =-.762905E-03
damped:  g(F)=  0.000E+00 g(S)=  0.000E+00 dE (1.order)= 0.000E+00
 bond charge predicted
       N       E                     dE             d eps       ncg     rms          rms(c)
DAV:   1    -0.129500473553E+03   -0.15091E-03   -0.25554E-02   371   0.790E-01    0.543E-02
DAV:   2    -0.129500543910E+03   -0.70357E-04   -0.11425E-03   447   0.145E-01    0.312E-02
DAV:   3    -0.129500525841E+03    0.18069E-04   -0.27776E-05   272   0.295E-02    0.176E-02
DAV:   4    -0.129500514229E+03    0.11612E-04   -0.30878E-05   316   0.270E-02    0.394E-03
DAV:   5    -0.129500514810E+03   -0.58113E-06   -0.65352E-06   272   0.135E-02    0.234E-03
DAV:   6    -0.129500516412E+03   -0.16020E-05   -0.11646E-06   224   0.546E-03
  51 F= -.12950052E+03 E0= -.12950052E+03  d E =-.193302E-03
damped:  g(F)=  0.000E+00 g(S)=  0.000E+00 dE (1.order)= 0.000E+00
 bond charge predicted
       N       E                     dE             d eps       ncg     rms          rms(c)
DAV:   1    -0.129500527629E+03   -0.12819E-04   -0.10659E-05   291   0.161E-02    0.116E-03
DAV:   2    -0.129500529665E+03   -0.20358E-05   -0.62824E-07   272   0.410E-03    0.772E-04
DAV:   3    -0.129500532111E+03   -0.24462E-05   -0.15535E-07   201   0.173E-03    0.471E-04
DAV:   4    -0.129500535626E+03   -0.35150E-05   -0.19169E-07   301   0.135E-03    0.204E-04
DAV:   5    -0.129500538007E+03   -0.23812E-05   -0.72210E-08   251   0.926E-04    0.160E-04
DAV:   6    -0.129500540495E+03   -0.24876E-05   -0.12033E-07   274   0.961E-04
  52 F= -.12950054E+03 E0= -.12950054E+03  d E =-.240830E-04
damped:  g(F)=  0.000E+00 g(S)=  0.000E+00 dE (1.order)= 0.000E+00
 bond charge predicted
       N       E                     dE             d eps       ncg     rms          rms(c)
DAV:   1    -0.129500555998E+03   -0.17991E-04   -0.39573E-05   228   0.321E-02    0.158E-03
DAV:   2    -0.129500556586E+03   -0.58780E-06   -0.28256E-06   272   0.886E-03    0.105E-03
DAV:   3    -0.129500556867E+03   -0.28068E-06   -0.31673E-07   212   0.262E-03    0.791E-04
DAV:   4    -0.129500557336E+03   -0.46913E-06   -0.75777E-08   234   0.154E-03    0.244E-04
DAV:   5    -0.129500557599E+03   -0.26347E-06   -0.44153E-09   263   0.784E-04    0.153E-04
DAV:   6    -0.129500557796E+03   -0.19658E-06    0.21846E-08   210   0.494E-04
  53 F= -.12950056E+03 E0= -.12950056E+03  d E =-.173008E-04
damped:  g(F)=  0.000E+00 g(S)=  0.000E+00 dE (1.order)= 0.000E+00
 bond charge predicted
       N       E                     dE             d eps       ncg     rms          rms(c)
DAV:   1    -0.129500577164E+03   -0.19565E-04   -0.85250E-05   318   0.467E-02    0.234E-03
DAV:   2    -0.129500577613E+03   -0.44903E-06   -0.46238E-06   218   0.112E-02    0.154E-03
DAV:   3    -0.129500577691E+03   -0.78029E-07   -0.42153E-07   238   0.338E-03    0.111E-03
DAV:   4    -0.129500577772E+03   -0.80675E-07   -0.97930E-08   226   0.208E-03    0.327E-04
DAV:   5    -0.129500577802E+03   -0.29997E-07    0.19698E-08   264   0.930E-04    0.199E-04
DAV:   6    -0.129500577846E+03   -0.44524E-07    0.49466E-08   204   0.548E-04
  54 F= -.12950058E+03 E0= -.12950058E+03  d E =-.200504E-04
damped:  g(F)=  0.000E+00 g(S)=  0.000E+00 dE (1.order)= 0.000E+00
 bond charge predicted
       N       E                     dE             d eps       ncg     rms          rms(c)
DAV:   1    -0.129500600619E+03   -0.22817E-04   -0.13990E-04   286   0.596E-02    0.290E-03
DAV:   2    -0.129500601069E+03   -0.45063E-06   -0.62154E-06   214   0.125E-02    0.193E-03
DAV:   3    -0.129500601068E+03    0.17681E-08   -0.58483E-07   211   0.402E-03    0.128E-03
DAV:   4    -0.129500601032E+03    0.35778E-07   -0.12804E-07   238   0.229E-03    0.354E-04
DAV:   5    -0.129500601033E+03   -0.13506E-08    0.19059E-08   168   0.113E-03    0.197E-04
DAV:   6    -0.129500601055E+03   -0.21863E-07    0.56080E-08   174   0.606E-04
  55 F= -.12950060E+03 E0= -.12950060E+03  d E =-.232087E-04
damped:  g(F)=  0.000E+00 g(S)=  0.000E+00 dE (1.order)= 0.000E+00
 bond charge predicted
       N       E                     dE             d eps       ncg     rms          rms(c)
DAV:   1    -0.129500625941E+03   -0.24908E-04   -0.19662E-04   256   0.706E-02    0.327E-03
DAV:   2    -0.129500626552E+03   -0.61143E-06   -0.84166E-06   206   0.145E-02    0.220E-03
DAV:   3    -0.129500626549E+03    0.29904E-08   -0.80141E-07   165   0.467E-03    0.148E-03
DAV:   4    -0.129500626501E+03    0.47921E-07   -0.19089E-07   250   0.265E-03    0.412E-04
DAV:   5    -0.129500626502E+03   -0.65575E-09    0.34372E-09   165   0.131E-03    0.229E-04
DAV:   6    -0.129500626531E+03   -0.29094E-07    0.51767E-08   164   0.705E-04
  56 F= -.12950063E+03 E0= -.12950063E+03  d E =-.254762E-04
damped:  g(F)=  0.000E+00 g(S)=  0.000E+00 dE (1.order)= 0.000E+00
 bond charge predicted
       N       E                     dE             d eps       ncg     rms          rms(c)
DAV:   1    -0.129500652775E+03   -0.26273E-04   -0.24863E-04   267   0.793E-02    0.346E-03
DAV:   2    -0.129500653523E+03   -0.74813E-06   -0.10083E-05   202   0.160E-02    0.235E-03
DAV:   3    -0.129500653534E+03   -0.10674E-07   -0.95803E-07   164   0.511E-03    0.161E-03
DAV:   4    -0.129500653504E+03    0.30273E-07   -0.23438E-07   164   0.290E-03    0.445E-04
DAV:   5    -0.129500653510E+03   -0.64001E-08   -0.78378E-09   164   0.142E-03    0.251E-04
DAV:   6    -0.129500653546E+03   -0.35623E-07    0.48178E-08   164   0.773E-04
  57 F= -.12950065E+03 E0= -.12950065E+03  d E =-.270144E-04
damped:  g(F)=  0.000E+00 g(S)=  0.000E+00 dE (1.order)= 0.000E+00
 bond charge predicted
       N       E                     dE             d eps       ncg     rms          rms(c)
DAV:   1    -0.129500684062E+03   -0.30552E-04   -0.36099E-04   264   0.953E-02    0.388E-03
DAV:   2    -0.129500685097E+03   -0.10349E-05   -0.13570E-05   201   0.186E-02    0.264E-03
DAV:   3    -0.129500685137E+03   -0.39456E-07   -0.12764E-06   164   0.592E-03    0.183E-03
DAV:   4    -0.129500685140E+03   -0.32060E-08   -0.31609E-07   164   0.332E-03    0.498E-04
DAV:   5    -0.129500685151E+03   -0.11289E-07   -0.30157E-08   164   0.162E-03    0.287E-04
DAV:   6    -0.129500685192E+03   -0.41002E-07    0.41122E-08   164   0.884E-04
  58 F= -.12950069E+03 E0= -.12950069E+03  d E =-.316466E-04
damped:  g(F)=  0.000E+00 g(S)=  0.000E+00 dE (1.order)= 0.000E+00
 bond charge predicted
       N       E                     dE             d eps       ncg     rms          rms(c)
DAV:   1    -0.129500722455E+03   -0.37304E-04   -0.51435E-04   296   0.113E-01    0.430E-03
DAV:   2    -0.129500723558E+03   -0.11031E-05   -0.14773E-05   200   0.179E-02    0.293E-03
DAV:   3    -0.129500723617E+03   -0.58780E-07   -0.13296E-06   164   0.585E-03    0.196E-03
DAV:   4    -0.129500723690E+03   -0.73196E-07   -0.31888E-07   164   0.331E-03    0.526E-04
DAV:   5    -0.129500723714E+03   -0.23721E-07   -0.34690E-08   164   0.166E-03    0.289E-04
DAV:   6    -0.129500723761E+03   -0.47018E-07    0.40866E-08   164   0.872E-04
  59 F= -.12950072E+03 E0= -.12950072E+03  d E =-.385689E-04
damped:  g(F)=  0.000E+00 g(S)=  0.000E+00 dE (1.order)= 0.000E+00
 reached required accuracy - stopping structural energy minimisation
