unknown system                          
           1
    30.000000    0.000000    0.000000
     0.000000   30.000000    0.000000
     0.000000    0.000000   30.000000
   H    C    N    O 
  12   6   2   2
Direct configuration=     1
   0.38297629  0.55288350  0.50971044
   0.38582285  0.50485746  0.47422137
   0.38009261  0.49831048  0.53291955
   0.44975537  0.45594766  0.48894796
   0.51275768  0.47732555  0.55570343
   0.55466459  0.41068875  0.52119995
   0.51321307  0.40826960  0.47964839
   0.49812249  0.39861871  0.53643181
   0.51921986  0.55191871  0.50911186
   0.60772095  0.55034020  0.46236759
   0.56037267  0.56504944  0.42944441
   0.57609490  0.59890849  0.47593487
   0.39557729  0.51872684  0.50666210
   0.44544191  0.51883005  0.51455521
   0.51227858  0.46842486  0.51994931
   0.51956171  0.41836606  0.51432907
   0.55099505  0.49346145  0.49602999
   0.57411603  0.56453980  0.46367996
   0.46778920  0.48094498  0.50308165
   0.54660388  0.53820733  0.49343609
   0.46417632  0.55125746  0.53243716
   0.58283357  0.47237667  0.48028911
Direct configuration=     2
   0.38299144  0.55283991  0.50966852
   0.38583755  0.50479626  0.47414592
   0.38002331  0.49828825  0.53289942
   0.44977803  0.45595455  0.48893654
   0.51281604  0.47734838  0.55567533
   0.55461125  0.41067032  0.52118807
   0.51324072  0.40828701  0.47958998
   0.49806410  0.39863625  0.53645486
   0.51921917  0.55193218  0.50904617
   0.60781271  0.55029479  0.46238547
   0.56043274  0.56505135  0.42954890
   0.57609763  0.59893082  0.47597543
   0.39562895  0.51876806  0.50670378
   0.44537136  0.51885013  0.51459358
   0.51229664  0.46839294  0.51995980
   0.51951424  0.41841774  0.51434809
   0.55097283  0.49343962  0.49597609
   0.57407736  0.56465105  0.46373702
   0.46778973  0.48090557  0.50312346
   0.54653666  0.53818698  0.49342362
   0.46415768  0.55120489  0.53248456
   0.58291763  0.47240702  0.48022648
Direct configuration=     3
   0.38300117  0.55281173  0.50961179
   0.38588150  0.50473621  0.47409913
   0.37993399  0.49826866  0.53285938
   0.44980368  0.45594858  0.48891178
   0.51290235  0.47738245  0.55564526
   0.55453301  0.41064534  0.52117312
   0.51328085  0.40832362  0.47953548
   0.49798455  0.39866911  0.53647715
   0.51918932  0.55195632  0.50896926
   0.60786505  0.55026887  0.46242188
   0.56050459  0.56506319  0.42966960
   0.57610002  0.59900268  0.47605459
   0.39564193  0.51874664  0.50669469
   0.44533271  0.51881015  0.51463886
   0.51231124  0.46837508  0.51995853
   0.51945020  0.41844258  0.51434832
   0.55101057  0.49337318  0.49587407
   0.57411498  0.56470180  0.46383545
   0.46776606  0.48090230  0.50319708
   0.54647751  0.53817083  0.49337685
   0.46413729  0.55116177  0.53256850
   0.58296658  0.47249302  0.48017001
Direct configuration=     4
   0.38300426  0.55280040  0.50954052
   0.38595624  0.50468282  0.47408973
   0.37983141  0.49825519  0.53279609
   0.44983578  0.45593767  0.48887752
   0.51301451  0.47742648  0.55561701
   0.55443559  0.41061403  0.52115797
   0.51332778  0.40838066  0.47949480
   0.49788897  0.39871725  0.53648807
   0.51912505  0.55198543  0.50888876
   0.60786748  0.55027136  0.46248502
   0.56058618  0.56509119  0.42979224
   0.57610432  0.59911312  0.47617346
   0.39559995  0.51865472  0.50662780
   0.44534150  0.51873458  0.51470291
   0.51232097  0.46837962  0.51993417
   0.51937294  0.41842430  0.51432232
   0.55104580  0.49333369  0.49576424
   0.57423351  0.56468531  0.46397081
   0.46772435  0.48091144  0.50329022
   0.54644468  0.53814467  0.49329705
   0.46410468  0.55111948  0.53267964
   0.58302510  0.47259072  0.48010003
Direct configuration=     5
   0.38300656  0.55278093  0.50944829
   0.38605110  0.50462035  0.47408276
   0.37971270  0.49824194  0.53271080
   0.44988008  0.45593686  0.48883969
   0.51315238  0.47747772  0.55558538
   0.55432551  0.41057323  0.52114530
   0.51337249  0.40845252  0.47945772
   0.49777536  0.39877656  0.53647912
   0.51904385  0.55200476  0.50879610
   0.60786252  0.55028762  0.46258502
   0.56068969  0.56514100  0.42992222
   0.57611525  0.59921699  0.47632617
   0.39552862  0.51854038  0.50654262
   0.44535929  0.51867072  0.51479618
   0.51233084  0.46840180  0.51988284
   0.51928944  0.41837964  0.51427773
   0.55102496  0.49336892  0.49567896
   0.57437750  0.56467044  0.46412596
   0.46769100  0.48088021  0.50338665
   0.54642119  0.53810979  0.49321041
   0.46405148  0.55106145  0.53280926
   0.58313172  0.47266040  0.48000068
Direct configuration=     6
   0.38301254  0.55272732  0.50933038
   0.38614897  0.50452831  0.47402891
   0.37957247  0.49821878  0.53261288
   0.44993146  0.45594589  0.48879773
   0.51331166  0.47753060  0.55553889
   0.55421319  0.41051886  0.52113837
   0.51340368  0.40852570  0.47940295
   0.49764013  0.39883973  0.53644775
   0.51897380  0.55200027  0.50867976
   0.60790864  0.55029430  0.46272573
   0.56082695  0.56521497  0.43006768
   0.57613678  0.59926873  0.47650263
   0.39547978  0.51847095  0.50649584
   0.44532473  0.51862373  0.51490389
   0.51235051  0.46842176  0.51981750
   0.51921566  0.41835153  0.51423388
   0.55101015  0.49340995  0.49559262
   0.57447134  0.56473294  0.46427425
   0.46768666  0.48080295  0.50348344
   0.54637043  0.53810479  0.49315039
   0.46398671  0.55099142  0.53295747
   0.58322035  0.47273080  0.47990622
Direct configuration=     7
   0.38301745  0.55263671  0.50917308
   0.38625637  0.50439377  0.47391117
   0.37939156  0.49817789  0.53249978
   0.44998529  0.45594952  0.48873900
   0.51350696  0.47758587  0.55545986
   0.55409955  0.41043911  0.52114197
   0.51341460  0.40859662  0.47931220
   0.49746697  0.39891049  0.53638598
   0.51890679  0.55197102  0.50853235
   0.60802292  0.55029118  0.46292880
   0.56101576  0.56532852  0.43023360
   0.57617525  0.59927056  0.47672506
   0.39547637  0.51844743  0.50649221
   0.44522681  0.51855719  0.51502097
   0.51239323  0.46842268  0.51975299
   0.51915615  0.41836799  0.51419766
   0.55104879  0.49340542  0.49547181
   0.57450442  0.56487955  0.46441656
   0.46769698  0.48072759  0.50360035
   0.54628996  0.53815156  0.49311585
   0.46390642  0.55090513  0.53314169
   0.58324195  0.47283860  0.47983536
Direct configuration=     8
   0.38300419  0.55254585  0.50897098
   0.38639523  0.50423534  0.47377512
   0.37916219  0.49812127  0.53236754
   0.45004544  0.45593869  0.48865718
   0.51374897  0.47764259  0.55533718
   0.55399969  0.41031938  0.52116779
   0.51339533  0.40866232  0.47919304
   0.49725385  0.39899817  0.53627229
   0.51879191  0.55193254  0.50838005
   0.60814942  0.55031651  0.46322124
   0.56125676  0.56550887  0.43037677
   0.57623949  0.59927392  0.47702794
   0.39549795  0.51838983  0.50646389
   0.44513761  0.51845623  0.51516795
   0.51247218  0.46840346  0.51970494
   0.51910682  0.41842573  0.51415699
   0.55104704  0.49344035  0.49535382
   0.57454132  0.56501181  0.46456407
   0.46767038  0.48071124  0.50373918
   0.54624650  0.53820677  0.49307598
   0.46378422  0.55077550  0.53336089
   0.58325917  0.47293815  0.47975232
Direct configuration=     9
   0.38296910  0.55248064  0.50872791
   0.38658912  0.50408385  0.47368724
   0.37889798  0.49806721  0.53220331
   0.45013591  0.45594840  0.48857408
   0.51404075  0.47770692  0.55520274
   0.55391297  0.41015675  0.52122383
   0.51335004  0.40873046  0.47909456
   0.49701673  0.39912129  0.53609435
   0.51860997  0.55189779  0.50823893
   0.60820992  0.55041087  0.46360178
   0.56153508  0.56577023  0.43044373
   0.57632983  0.59932927  0.47742094
   0.39547010  0.51821960  0.50634382
   0.44509396  0.51833690  0.51535895
   0.51255574  0.46842335  0.51965228
   0.51906035  0.41845272  0.51407648
   0.55096697  0.49354517  0.49525350
   0.57469113  0.56504114  0.46473889
   0.46760329  0.48067687  0.50386648
   0.54624134  0.53823330  0.49302250
   0.46362821  0.55062073  0.53363133
   0.58330337  0.47300119  0.47962809
Direct configuration=    10
   0.38293827  0.55236996  0.50843248
   0.38683313  0.50391153  0.47359344
   0.37860308  0.49802206  0.53199667
   0.45024268  0.45597339  0.48848665
   0.51438155  0.47779180  0.55510959
   0.55381300  0.40994892  0.52131431
   0.51328236  0.40879713  0.47903662
   0.49675802  0.39929350  0.53585672
   0.51842961  0.55185382  0.50807676
   0.60827832  0.55053961  0.46405761
   0.56188025  0.56611724  0.43045833
   0.57644680  0.59936822  0.47787130
   0.39537246  0.51804983  0.50621770
   0.44499049  0.51817138  0.51555296
   0.51258770  0.46850771  0.51953826
   0.51904845  0.41842142  0.51395844
   0.55101188  0.49350897  0.49507094
   0.57487871  0.56511629  0.46492573
   0.46761023  0.48057467  0.50400504
   0.54614602  0.53830012  0.49300049
   0.46348888  0.55049298  0.53400317
   0.58319708  0.47312431  0.47952084
Direct configuration=    11
   0.38291800  0.55219050  0.50808338
   0.38709409  0.50367589  0.47340151
   0.37826041  0.49796937  0.53176911
   0.45034482  0.45596611  0.48837247
   0.51475371  0.47789713  0.55502747
   0.55369371  0.40969325  0.52143742
   0.51320040  0.40883124  0.47895792
   0.49647046  0.39949412  0.53559386
   0.51823820  0.55182447  0.50791420
   0.60847594  0.55063752  0.46456266
   0.56234176  0.56653997  0.43051366
   0.57659527  0.59934799  0.47833399
   0.39529831  0.51797738  0.50618113
   0.44490423  0.51809433  0.51581502
   0.51263816  0.46851060  0.51941944
   0.51905828  0.41843928  0.51388442
   0.55076839  0.49367264  0.49497161
   0.57488209  0.56537806  0.46511033
   0.46765642  0.48052351  0.50418310
   0.54607439  0.53829128  0.49291690
   0.46327135  0.55021903  0.53438710
   0.58328839  0.47308138  0.47924553
Direct configuration=    12
   0.38291102  0.55220405  0.50807769
   0.38710137  0.50367492  0.47340559
   0.37825130  0.49796851  0.53177023
   0.45035396  0.45597510  0.48837759
   0.51475541  0.47789584  0.55501896
   0.55369222  0.40968629  0.52144352
   0.51320378  0.40882484  0.47895738
   0.49646354  0.39949733  0.53559930
   0.51824957  0.55182425  0.50791064
   0.60845746  0.55064915  0.46456470
   0.56235607  0.56655270  0.43051927
   0.57659418  0.59936600  0.47834362
   0.39531465  0.51795762  0.50616807
   0.44488689  0.51805651  0.51580317
   0.51265200  0.46850733  0.51944503
   0.51905529  0.41844637  0.51388575
   0.55086947  0.49358478  0.49491070
   0.57490577  0.56535178  0.46511134
   0.46762769  0.48052409  0.50417485
   0.54604770  0.53832878  0.49290362
   0.46328604  0.55024307  0.53441676
   0.58319142  0.47313573  0.47927445
Direct configuration=    13
   0.38289577  0.55221936  0.50805740
   0.38711629  0.50366535  0.47340426
   0.37823071  0.49796328  0.53176423
   0.45036885  0.45598671  0.48837929
   0.51475557  0.47788809  0.55500587
   0.55368728  0.40967003  0.52144844
   0.51321329  0.40881823  0.47894596
   0.49644859  0.39950111  0.53559478
   0.51826103  0.55182769  0.50790769
   0.60843228  0.55067141  0.46458620
   0.56239764  0.56658785  0.43054123
   0.57659616  0.59939847  0.47837547
   0.39533879  0.51792228  0.50614048
   0.44486557  0.51801158  0.51579364
   0.51267530  0.46849643  0.51948352
   0.51904712  0.41845822  0.51388192
   0.55097519  0.49349559  0.49484058
   0.57494345  0.56532147  0.46513022
   0.46758729  0.48052656  0.50416170
   0.54601156  0.53836875  0.49287364
   0.46329399  0.55026168  0.53446047
   0.58308564  0.47319490  0.47930504
Direct configuration=    14
   0.38289492  0.55221659  0.50805343
   0.38711774  0.50366239  0.47340133
   0.37822847  0.49796234  0.53176148
   0.45036869  0.45598537  0.48837699
   0.51475527  0.47788690  0.55500666
   0.55368596  0.40966794  0.52144763
   0.51321470  0.40881898  0.47894322
   0.49644695  0.39950104  0.53559121
   0.51825896  0.55182909  0.50790853
   0.60843454  0.55067228  0.46459195
   0.56240450  0.56659336  0.43054509
   0.57659737  0.59939911  0.47838050
   0.39533754  0.51792211  0.50613907
   0.44486801  0.51801771  0.51579784
   0.51267526  0.46849487  0.51948177
   0.51904604  0.41845786  0.51388062
   0.55095227  0.49351516  0.49485067
   0.57494233  0.56532692  0.46513552
   0.46759065  0.48052680  0.50416264
   0.54601370  0.53836106  0.49286966
   0.46328850  0.55025395  0.53445985
   0.58310511  0.47318319  0.47929636
Direct configuration=    15
   0.38289315  0.55221121  0.50804548
   0.38712073  0.50365650  0.47339552
   0.37822397  0.49796050  0.53175599
   0.45036850  0.45598291  0.48837252
   0.51475472  0.47788448  0.55500819
   0.55368330  0.40966376  0.52144606
   0.51321755  0.40882045  0.47893782
   0.49644360  0.39950096  0.53558418
   0.51825529  0.55183176  0.50790998
   0.60843883  0.55067413  0.46460341
   0.56241819  0.56660442  0.43055277
   0.57659969  0.59940054  0.47839068
   0.39533519  0.51792163  0.50613621
   0.44487200  0.51802824  0.51580537
   0.51267513  0.46849208  0.51947849
   0.51904410  0.41845711  0.51387793
   0.55091182  0.49354976  0.49486832
   0.57494064  0.56533732  0.46514595
   0.46759694  0.48052725  0.50416441
   0.54601687  0.53834732  0.49286196
   0.46327841  0.55023995  0.53445952
   0.58313918  0.47316278  0.47928116
Direct configuration=    16
   0.38289025  0.55220330  0.50803317
   0.38712556  0.50364752  0.47338680
   0.37821699  0.49795772  0.53174754
   0.45036864  0.45597977  0.48836605
   0.51475389  0.47788063  0.55501043
   0.55367910  0.40965730  0.52144377
   0.51322197  0.40882265  0.47892972
   0.49643819  0.39950092  0.53557363
   0.51825085  0.55183548  0.50791162
   0.60844482  0.55067728  0.46462104
   0.56243926  0.56662157  0.43056452
   0.57660302  0.59940320  0.47840676
   0.39533195  0.51792040  0.50613161
   0.44487607  0.51804015  0.51581483
   0.51267488  0.46848861  0.51947415
   0.51904160  0.41845589  0.51387350
   0.55086377  0.49359093  0.49488876
   0.57493943  0.56535208  0.46516158
   0.46760524  0.48052775  0.50416676
   0.54601875  0.53833076  0.49285091
   0.46326498  0.55022193  0.53446123
   0.58317900  0.47313922  0.47926341
Direct configuration=    17
   0.38288596  0.55219322  0.50801620
   0.38713258  0.50363540  0.47337533
   0.37820736  0.49795405  0.53173597
   0.45036972  0.45597680  0.48835803
   0.51475285  0.47787513  0.55501325
   0.55367319  0.40964841  0.52144088
   0.51322811  0.40882553  0.47891905
   0.49643031  0.39950107  0.53555972
   0.51824698  0.55183984  0.50791278
   0.60845185  0.55068220  0.46464510
   0.56246804  0.56664529  0.43058037
   0.57660715  0.59940781  0.47842959
   0.39532823  0.51791779  0.50612491
   0.44487795  0.51804860  0.51582399
   0.51267451  0.46848541  0.51946959
   0.51903902  0.41845409  0.51386687
   0.55082363  0.49362501  0.49490444
   0.57494040  0.56536977  0.46518219
   0.46761384  0.48052805  0.50416916
   0.54601581  0.53831674  0.49283722
   0.46325043  0.55020373  0.53446771
   0.58321088  0.47312113  0.47924923
Direct configuration=    18
   0.38288568  0.55219288  0.50801535
   0.38713301  0.50363484  0.47337488
   0.37820687  0.49795390  0.53173541
   0.45036996  0.45597693  0.48835781
   0.51475283  0.47787483  0.55501333
   0.55367287  0.40964795  0.52144080
   0.51322842  0.40882564  0.47891861
   0.49642984  0.39950111  0.53555914
   0.51824719  0.55183992  0.50791264
   0.60845197  0.55068257  0.46464627
   0.56246945  0.56664651  0.43058109
   0.57660727  0.59940824  0.47843088
   0.39532819  0.51791746  0.50612449
   0.44487739  0.51804757  0.51582375
   0.51267450  0.46848553  0.51946964
   0.51903903  0.41845399  0.51386645
   0.55082618  0.49362270  0.49490301
   0.57494095  0.56537013  0.46518304
   0.46761370  0.48052797  0.50416910
   0.54601467  0.53831765  0.49283680
   0.46325042  0.55020402  0.53446880
   0.58320846  0.47312274  0.47925029
Direct configuration=    19
   0.38288513  0.55219219  0.50801361
   0.38713388  0.50363371  0.47337394
   0.37820588  0.49795359  0.53173425
   0.45037044  0.45597716  0.48835735
   0.51475276  0.47787420  0.55501349
   0.55367224  0.40964705  0.52144062
   0.51322906  0.40882588  0.47891771
   0.49642888  0.39950119  0.53555795
   0.51824757  0.55184009  0.50791238
   0.60845222  0.55068330  0.46464867
   0.56247229  0.56664898  0.43058253
   0.57660752  0.59940910  0.47843350
   0.39532810  0.51791680  0.50612363
   0.44487628  0.51804553  0.51582329
   0.51267449  0.46848575  0.51946974
   0.51903904  0.41845380  0.51386561
   0.55083113  0.49361821  0.49490024
   0.57494204  0.56537087  0.46518477
   0.46761341  0.48052782  0.50416899
   0.54601242  0.53831943  0.49283595
   0.46325035  0.55020455  0.53447096
   0.58320375  0.47312588  0.47925238
Direct configuration=    20
   0.38288427  0.55219112  0.50801097
   0.38713519  0.50363198  0.47337251
   0.37820438  0.49795310  0.53173249
   0.45037117  0.45597751  0.48835663
   0.51475266  0.47787321  0.55501372
   0.55367129  0.40964567  0.52144031
   0.51323003  0.40882626  0.47891629
   0.49642743  0.39950129  0.53555609
   0.51824810  0.55184037  0.50791201
   0.60845263  0.55068441  0.46465236
   0.56247661  0.56665274  0.43058476
   0.57660792  0.59941040  0.47843752
   0.39532794  0.51791577  0.50612232
   0.44487467  0.51804259  0.51582265
   0.51267447  0.46848605  0.51946987
   0.51903902  0.41845350  0.51386429
   0.55083817  0.49361183  0.49489631
   0.57494367  0.56537203  0.46518743
   0.46761301  0.48052759  0.50416882
   0.54600913  0.53832198  0.49283466
   0.46325016  0.55020526  0.53447414
   0.58319706  0.47313040  0.47925542
Direct configuration=    21
   0.38288310  0.55218965  0.50800735
   0.38713695  0.50362962  0.47337055
   0.37820234  0.49795240  0.53173007
   0.45037214  0.45597795  0.48835561
   0.51475249  0.47787185  0.55501402
   0.55367002  0.40964380  0.52143984
   0.51323135  0.40882682  0.47891429
   0.49642548  0.39950140  0.53555345
   0.51824869  0.55184076  0.50791155
   0.60845323  0.55068592  0.46465745
   0.56248251  0.56665787  0.43058782
   0.57660849  0.59941216  0.47844303
   0.39532771  0.51791436  0.50612049
   0.44487261  0.51803887  0.51582189
   0.51267445  0.46848639  0.51947000
   0.51903895  0.41845312  0.51386248
   0.55084679  0.49360401  0.49489146
   0.57494583  0.56537366  0.46519113
   0.46761252  0.48052728  0.50416856
   0.54600488  0.53832514  0.49283291
   0.46324974  0.55020598  0.53447827
   0.58318884  0.47313604  0.47925928
Direct configuration=    22
   0.38288159  0.55218772  0.50800269
   0.38713917  0.50362657  0.47336799
   0.37819973  0.49795147  0.53172692
   0.45037336  0.45597846  0.48835425
   0.51475224  0.47787005  0.55501439
   0.55366842  0.40964142  0.52143916
   0.51323305  0.40882761  0.47891161
   0.49642301  0.39950149  0.53554993
   0.51824926  0.55184131  0.50791104
   0.60845408  0.55068784  0.46466411
   0.56249008  0.56666445  0.43059180
   0.57660926  0.59941439  0.47845020
   0.39532737  0.51791252  0.50611811
   0.44487019  0.51803456  0.51582112
   0.51267443  0.46848672  0.51947011
   0.51903878  0.41845266  0.51386010
   0.55085634  0.49359538  0.49488605
   0.57494849  0.56537584  0.46519597
   0.46761196  0.48052689  0.50416821
   0.54599980  0.53832868  0.49283066
   0.46324895  0.55020656  0.53448327
   0.58317970  0.47314248  0.47926378
Direct configuration=    23
   0.38287969  0.55218529  0.50799690
   0.38714187  0.50362278  0.47336478
   0.37819653  0.49795027  0.53172299
   0.45037482  0.45597904  0.48835248
   0.51475188  0.47786775  0.55501481
   0.55366649  0.40963851  0.52143820
   0.51323514  0.40882867  0.47890816
   0.49642000  0.39950154  0.53554537
   0.51824969  0.55184204  0.50791052
   0.60845522  0.55069019  0.46467251
   0.56249944  0.56667259  0.43059678
   0.57661026  0.59941712  0.47845916
   0.39532688  0.51791021  0.50611509
   0.44486750  0.51802989  0.51582043
   0.51267442  0.46848698  0.51947014
   0.51903850  0.41845211  0.51385711
   0.55086598  0.49358669  0.49488053
   0.57495164  0.56537864  0.46520211
   0.46761139  0.48052640  0.50416775
   0.54599406  0.53833233  0.49282787
   0.46324762  0.55020674  0.53448902
   0.58317045  0.47314927  0.47926868
Direct configuration=    24
   0.38287713  0.55218198  0.50798913
   0.38714539  0.50361768  0.47336042
   0.37819227  0.49794857  0.53171768
   0.45037672  0.45597971  0.48834999
   0.51475133  0.47786458  0.55501533
   0.55366398  0.40963465  0.52143674
   0.51323793  0.40883023  0.47890332
   0.49641605  0.39950151  0.53553897
   0.51824986  0.55184308  0.50790998
   0.60845690  0.55069331  0.46468398
   0.56251193  0.56668347  0.43060353
   0.57661167  0.59942071  0.47847130
   0.39532615  0.51790708  0.50611097
   0.44486436  0.51802465  0.51581992
   0.51267442  0.46848710  0.51947004
   0.51903799  0.41845144  0.51385302
   0.55087562  0.49357801  0.49487487
   0.57495563  0.56538257  0.46521055
   0.46761081  0.48052576  0.50416709
   0.54598720  0.53833614  0.49282416
   0.46324530  0.55020624  0.53449605
   0.58316112  0.47315662  0.47927427
Direct configuration=    25
   0.38287374  0.55217754  0.50797890
   0.38714990  0.50361096  0.47335461
   0.37818672  0.49794624  0.53171064
   0.45037910  0.45598044  0.48834656
   0.51475051  0.47786031  0.55501595
   0.55366079  0.40962966  0.52143460
   0.51324155  0.40883244  0.47889668
   0.49641097  0.39950133  0.53553019
   0.51824953  0.55184456  0.50790949
   0.60845930  0.55069735  0.46469932
   0.56252827  0.56669770  0.43061249
   0.57661361  0.59942533  0.47848741
   0.39532506  0.51790291  0.50610545
   0.44486086  0.51801910  0.51581980
   0.51267443  0.46848696  0.51946971
   0.51903718  0.41845062  0.51384757
   0.55088388  0.49357059  0.49486977
   0.57496060  0.56538797  0.46522190
   0.46761029  0.48052492  0.50416617
   0.54597931  0.53833970  0.49281931
   0.46324155  0.55020455  0.53450439
   0.58315299  0.47316393  0.47928028
Direct configuration=    26
   0.38286934  0.55217173  0.50796572
   0.38715555  0.50360228  0.47334705
   0.37817964  0.49794311  0.53170150
   0.45038205  0.45598120  0.48834194
   0.51474935  0.47785466  0.55501667
   0.55365680  0.40962332  0.52143159
   0.51324619  0.40883551  0.47888779
   0.49640456  0.39950094  0.53551842
   0.51824842  0.55184658  0.50790915
   0.60846266  0.55070247  0.46471944
   0.56254922  0.56671598  0.43062410
   0.57661622  0.59943116  0.47850837
   0.39532354  0.51789748  0.50609821
   0.44485712  0.51801361  0.51582033
   0.51267444  0.46848639  0.51946904
   0.51903596  0.41844965  0.51384045
   0.55088902  0.49356595  0.49486607
   0.57496661  0.56539521  0.46523678
   0.46760993  0.48052388  0.50416494
   0.54597052  0.53834249  0.49281311
   0.46323585  0.55020110  0.53451405
   0.58314764  0.47317040  0.47928632
Direct configuration=    27
   0.38286377  0.55216426  0.50794899
   0.38716256  0.50359125  0.47333737
   0.37817074  0.49793902  0.53168985
   0.45038561  0.45598193  0.48833585
   0.51474777  0.47784738  0.55501747
   0.55365188  0.40961538  0.52142753
   0.51325202  0.40883960  0.47887619
   0.49639655  0.39950026  0.53550305
   0.51824622  0.55184928  0.50790904
   0.60846723  0.55070888  0.46474532
   0.56257566  0.56673910  0.43063884
   0.57661965  0.59943840  0.47853517
   0.39532146  0.51789057  0.50608893
   0.44485325  0.51800854  0.51582178
   0.51267444  0.46848524  0.51946790
   0.51903422  0.41844851  0.51383137
   0.55088922  0.49356574  0.49486465
   0.57497380  0.56540472  0.46525590
   0.46760985  0.48052260  0.50416338
   0.54596097  0.53834398  0.49280527
   0.46322765  0.55019523  0.53452508
   0.58314672  0.47317522  0.47929193
Direct configuration=    28
   0.38285684  0.55215481  0.50792802
   0.38717123  0.50357742  0.47332517
   0.37815966  0.49793379  0.53167521
   0.45038989  0.45598256  0.48832797
   0.51474573  0.47783821  0.55501836
   0.55364585  0.40960552  0.52142231
   0.51325925  0.40884489  0.47886140
   0.49638664  0.39949925  0.53548344
   0.51824267  0.55185281  0.50790926
   0.60847332  0.55071682  0.46477809
   0.56260867  0.56676807  0.43065717
   0.57662406  0.59944728  0.47856898
   0.39531874  0.51788191  0.50607722
   0.44484930  0.51800413  0.51582450
   0.51267441  0.46848336  0.51946616
   0.51903182  0.41844719  0.51382002
   0.55088290  0.49357131  0.49486613
   0.57498234  0.56541697  0.46527995
   0.46761015  0.48052109  0.50416149
   0.54595062  0.53834374  0.49279541
   0.46321638  0.55018626  0.53453773
   0.58315162  0.47317773  0.47929661
Direct configuration=    29
   0.38284836  0.55214304  0.50790195
   0.38718198  0.50356023  0.47331001
   0.37814594  0.49792729  0.53165702
   0.45039499  0.45598303  0.48831792
   0.51474326  0.47782691  0.55501934
   0.55363845  0.40959329  0.52141594
   0.51326813  0.40885148  0.47884298
   0.49637433  0.39949789  0.53545902
   0.51823756  0.55185732  0.50790987
   0.60848128  0.55072657  0.46481904
   0.56264953  0.56680415  0.43067948
   0.57662958  0.59945807  0.47861115
   0.39531531  0.51787123  0.50606269
   0.44484518  0.51800033  0.51582879
   0.51267429  0.46848063  0.51946369
   0.51902866  0.41844560  0.51380615
   0.55086940  0.49358315  0.49487051
   0.57499252  0.56543252  0.46530972
   0.46761091  0.48051934  0.50415938
   0.54593913  0.53834165  0.49278303
   0.46320154  0.55017360  0.53455262
   0.58316272  0.47317780  0.47930000
Direct configuration=    30
   0.38283818  0.55212859  0.50786974
   0.38719546  0.50353901  0.47329139
   0.37812898  0.49791942  0.53163468
   0.45040109  0.45598331  0.48830536
   0.51474053  0.47781338  0.55502038
   0.55362929  0.40957811  0.52140875
   0.51327895  0.40885931  0.47882069
   0.49635896  0.39949628  0.53542946
   0.51823094  0.55186296  0.50791086
   0.60849146  0.55073855  0.46486954
   0.56269991  0.56684897  0.43070600
   0.57663632  0.59947114  0.47866327
   0.39531125  0.51785823  0.50604494
   0.44484045  0.51799637  0.51583486
   0.51267399  0.46847711  0.51946044
   0.51902469  0.41844362  0.51378960
   0.55085023  0.49359972  0.49487633
   0.57500488  0.56545192  0.46534583
   0.46761210  0.48051738  0.50415727
   0.54592545  0.53833833  0.49276741
   0.46318292  0.55015693  0.53457110
   0.58317825  0.47317650  0.47930202
Direct configuration=    31
   0.38282635  0.55211124  0.50783036
   0.38721256  0.50351312  0.47326900
   0.37810810  0.49791033  0.53160771
   0.45040844  0.45598347  0.48829010
   0.51473799  0.47779783  0.55502148
   0.55361784  0.40955925  0.52140167
   0.51329194  0.40886797  0.47879488
   0.49633963  0.39949468  0.53539517
   0.51822337  0.55186976  0.50791205
   0.60850417  0.55075317  0.46493061
   0.56276147  0.56690438  0.43073632
   0.57664425  0.59948681  0.47872676
   0.39530672  0.51784273  0.50602376
   0.44483409  0.51799019  0.51584264
   0.51267340  0.46847311  0.51945650
   0.51901996  0.41844097  0.51377047
   0.55083080  0.49361593  0.49487967
   0.57502028  0.56547561  0.46538828
   0.46761343  0.48051518  0.50415565
   0.54590748  0.53833572  0.49274763
   0.46316103  0.55013672  0.53459564
   0.58319242  0.47317699  0.47930311
Direct configuration=    32
   0.38281328  0.55209126  0.50778354
   0.38723404  0.50348250  0.47324311
   0.37808300  0.49790050  0.53157623
   0.45041729  0.45598376  0.48827242
   0.51473641  0.47778110  0.55502252
   0.55360377  0.40953627  0.52139625
   0.51330704  0.40887656  0.47876684
   0.49631570  0.39949360  0.53535777
   0.51821586  0.55187754  0.50791314
   0.60851938  0.55077061  0.46500173
   0.56283469  0.56697124  0.43076896
   0.57665308  0.59950507  0.47880158
   0.39530211  0.51782498  0.50599956
   0.44482487  0.51797902  0.51585175
   0.51267247  0.46846926  0.51945215
   0.51901469  0.41843735  0.51374968
   0.55081915  0.49362398  0.49487491
   0.57503934  0.56550321  0.46543584
   0.46761427  0.48051256  0.50415510
   0.54588290  0.53833670  0.49272300
   0.46313737  0.55011443  0.53462914
   0.58319665  0.47318367  0.47930378
Direct configuration=    33
   0.38279952  0.55206903  0.50772919
   0.38726068  0.50344717  0.47321418
   0.37805345  0.49789047  0.53154052
   0.45042795  0.45598454  0.48825274
   0.51473673  0.47776418  0.55502322
   0.55358683  0.40950878  0.52139426
   0.51332409  0.40888411  0.47873811
   0.49628668  0.39949355  0.53531901
   0.51820914  0.55188614  0.50791397
   0.60853711  0.55079102  0.46508219
   0.56291984  0.56705026  0.43080214
   0.57666254  0.59952570  0.47888746
   0.39529773  0.51780518  0.50597269
   0.44481210  0.51796097  0.51586243
   0.51267102  0.46846606  0.51944752
   0.51900891  0.41843252  0.51372854
   0.55081962  0.49361937  0.49485803
   0.57506237  0.56553471  0.46548678
   0.46761393  0.48050893  0.50415609
   0.54585042  0.53834290  0.49269257
   0.46311301  0.55009074  0.53467410
   0.58318551  0.47319887  0.47930269
Direct configuration=    34
   0.38278553  0.55204451  0.50766583
   0.38729398  0.50340632  0.47318207
   0.37801851  0.49788067  0.53149995
   0.45044099  0.45598618  0.48823090
   0.51474015  0.47774799  0.55502289
   0.55356647  0.40947575  0.52139787
   0.51334315  0.40888967  0.47870980
   0.49625144  0.39949506  0.53527974
   0.51820276  0.55189578  0.50791487
   0.60855808  0.55081502  0.46517341
   0.56301930  0.56714433  0.43083435
   0.57667268  0.59954862  0.47898629
   0.39529352  0.51778278  0.50594287
   0.44479601  0.51793650  0.51587701
   0.51266950  0.46846322  0.51944237
   0.51900199  0.41842617  0.51370835
   0.55082634  0.49360647  0.49482894
   0.57508968  0.56557110  0.46554062
   0.46761181  0.48050311  0.50415905
   0.54581042  0.53835283  0.49265389
   0.46308710  0.55006324  0.53473299
   0.58316175  0.47321991  0.47929379
Direct configuration=    35
   0.38277171  0.55201750  0.50759187
   0.38733517  0.50335905  0.47314643
   0.37797732  0.49787117  0.53145370
   0.45045655  0.45598853  0.48820610
   0.51474766  0.47773316  0.55502050
   0.55354234  0.40943640  0.52140866
   0.51336428  0.40889282  0.47868232
   0.49620922  0.39949838  0.53523952
   0.51819481  0.55190693  0.50791673
   0.60858333  0.55084327  0.46527769