  22  22   0   0
  0.1227273E+04  0.3000000E-08  0.3000000E-08  0.3000000E-08  0.0000000E+00
  1.000000000000000E-004
  CAR 
 unknown system                          
      2.19650542    -28.26169736  301     -4.60503336      1.00000000
    -28.262  0.0000E+00  0.0000E+00
    -28.160  0.0000E+00  0.0000E+00
    -28.059  0.0000E+00  0.0000E+00
    -27.957  0.0000E+00  0.0000E+00
    -27.856  0.0000E+00  0.0000E+00
    -27.754  0.0000E+00  0.0000E+00
    -27.653  0.0000E+00  0.0000E+00
    -27.551  0.0000E+00  0.0000E+00
    -27.449  0.0000E+00  0.0000E+00
    -27.348  0.5176E-15  0.5255E-16
    -27.246  0.1088E-12  0.1110E-13
    -27.145  0.1379E-10  0.1411E-11
    -27.043  0.1054E-08  0.1084E-09
    -26.942  0.4864E-07  0.5047E-08
    -26.840  0.1358E-05  0.1429E-06
    -26.739  0.2296E-04  0.2474E-05
    -26.637  0.2355E-03  0.2639E-04
    -26.536  0.1469E-02  0.1755E-03
    -26.434  0.5577E-02  0.7418E-03
    -26.333  0.1291E-01  0.2052E-02
    -26.231  0.1823E-01  0.3903E-02
    -26.130  0.1572E-01  0.5499E-02
    -26.028  0.8296E-02  0.6341E-02
    -25.927  0.2944E-02  0.6640E-02
    -25.825  0.2247E-02  0.6868E-02
    -25.724  0.6293E-02  0.7507E-02
    -25.622  0.1370E-01  0.8898E-02
    -25.520  0.1837E-01  0.1076E-01
    -25.419  0.1504E-01  0.1229E-01
    -25.317  0.7512E-02  0.1305E-01
    -25.216  0.2288E-02  0.1329E-01
    -25.114  0.4245E-03  0.1333E-01
    -25.013  0.4790E-04  0.1333E-01
    -24.911  0.3281E-05  0.1333E-01
    -24.810  0.1362E-06  0.1333E-01
    -24.708  0.3422E-08  0.1333E-01
    -24.607  0.5193E-10  0.1333E-01
    -24.505  0.5881E-12  0.1333E-01
    -24.404  0.1425E-10  0.1333E-01
    -24.302  0.1085E-08  0.1333E-01
    -24.201  0.4989E-07  0.1333E-01
    -24.099  0.1388E-05  0.1333E-01
    -23.998  0.2338E-04  0.1334E-01
    -23.896  0.2390E-03  0.1336E-01
    -23.794  0.1485E-02  0.1351E-01
    -23.693  0.5620E-02  0.1408E-01
    -23.591  0.1296E-01  0.1540E-01
    -23.490  0.1824E-01  0.1725E-01
    -23.388  0.1567E-01  0.1884E-01
    -23.287  0.8215E-02  0.1967E-01
    -23.185  0.2629E-02  0.1994E-01
    -23.084  0.5617E-03  0.2000E-01
    -22.982  0.5024E-03  0.2005E-01
    -22.881  0.2361E-02  0.2029E-01
    -22.779  0.7659E-02  0.2107E-01
    -22.678  0.1518E-01  0.2261E-01
    -22.576  0.1835E-01  0.2447E-01
    -22.475  0.1354E-01  0.2585E-01
    -22.373  0.6099E-02  0.2647E-01
    -22.272  0.1674E-02  0.2664E-01
    -22.170  0.2799E-03  0.2666E-01
    -22.069  0.2845E-04  0.2667E-01
    -21.967  0.1755E-05  0.2667E-01
    -21.865  0.6556E-07  0.2667E-01
    -21.764  0.1482E-08  0.2667E-01
    -21.662  0.2023E-10  0.2667E-01
    -21.561  0.1665E-12  0.2667E-01
    -21.459  0.8311E-15  0.2667E-01
    -21.358  0.0000E+00  0.2667E-01
    -21.256  0.0000E+00  0.2667E-01
    -21.155  0.0000E+00  0.2667E-01
    -21.053  0.0000E+00  0.2667E-01
    -20.952  0.0000E+00  0.2667E-01
    -20.850  0.3645E-17  0.2667E-01
    -20.749  0.1181E-14  0.2667E-01
    -20.647  0.2304E-12  0.2667E-01
    -20.546  0.2709E-10  0.2667E-01
    -20.444  0.1921E-08  0.2667E-01
    -20.343  0.8229E-07  0.2667E-01
    -20.241  0.2132E-05  0.2667E-01
    -20.140  0.3347E-04  0.2667E-01
    -20.038  0.3189E-03  0.2670E-01
    -19.936  0.1847E-02  0.2689E-01
    -19.835  0.6517E-02  0.2755E-01
    -19.733  0.1402E-01  0.2898E-01
    -19.632  0.1840E-01  0.3084E-01
    -19.530  0.1474E-01  0.3234E-01
    -19.429  0.7205E-02  0.3307E-01
    -19.327  0.2148E-02  0.3329E-01
    -19.226  0.3899E-03  0.3333E-01
    -19.124  0.4304E-04  0.3333E-01
    -19.023  0.2886E-05  0.3333E-01
    -18.921  0.1860E-06  0.3333E-01
    -18.820  0.1832E-05  0.3333E-01
    -18.718  0.2945E-04  0.3334E-01
    -18.617  0.2878E-03  0.3337E-01
    -18.515  0.1710E-02  0.3354E-01
    -18.414  0.6187E-02  0.3417E-01
    -18.312  0.1365E-01  0.3555E-01
    -18.210  0.1836E-01  0.3742E-01
    -18.109  0.1508E-01  0.3895E-01
    -18.007  0.7563E-02  0.3972E-01
    -17.906  0.2336E-02  0.3995E-01
    -17.804  0.6791E-03  0.4002E-01
    -17.703  0.1580E-02  0.4018E-01
    -17.601  0.5743E-02  0.4077E-01
    -17.500  0.1311E-01  0.4210E-01
    -17.398  0.1828E-01  0.4395E-01
    -17.297  0.1555E-01  0.4553E-01
    -17.195  0.8073E-02  0.4635E-01
    -17.094  0.2556E-02  0.4661E-01
    -16.992  0.4929E-03  0.4666E-01
    -16.891  0.5783E-04  0.4667E-01
    -16.789  0.4119E-05  0.4667E-01
    -16.688  0.1780E-06  0.4667E-01
    -16.586  0.1546E-07  0.4667E-01
    -16.485  0.3706E-06  0.4667E-01
    -16.383  0.7686E-05  0.4667E-01
    -16.281  0.9668E-04  0.4668E-01
    -16.180  0.7387E-03  0.4675E-01
    -16.078  0.3434E-02  0.4710E-01
    -15.977  0.9728E-02  0.4809E-01
    -15.875  0.1681E-01  0.4980E-01
    -15.774  0.1772E-01  0.5159E-01
    -15.672  0.1141E-01  0.5275E-01
    -15.571  0.4479E-02  0.5321E-01
    -15.469  0.1088E-02  0.5332E-01
    -15.368  0.3367E-03  0.5335E-01
    -15.266  0.1213E-02  0.5348E-01
    -15.165  0.4847E-02  0.5397E-01
    -15.063  0.1194E-01  0.5518E-01
    -14.962  0.1794E-01  0.5700E-01
    -14.860  0.1645E-01  0.5867E-01
    -14.759  0.9209E-02  0.5961E-01
    -14.657  0.3144E-02  0.5992E-01
    -14.556  0.6551E-03  0.5999E-01
    -14.454  0.1018E-03  0.6000E-01
    -14.352  0.2091E-03  0.6002E-01
    -14.251  0.1311E-02  0.6016E-01
    -14.149  0.5154E-02  0.6068E-01
    -14.048  0.1236E-01  0.6193E-01
    -13.946  0.1808E-01  0.6377E-01
    -13.845  0.1614E-01  0.6541E-01
    -13.743  0.8798E-02  0.6630E-01
    -13.642  0.2924E-02  0.6660E-01
    -13.540  0.5923E-03  0.6666E-01
    -13.439  0.7816E-04  0.6667E-01
    -13.337  0.7608E-04  0.6667E-01
    -13.236  0.5777E-03  0.6673E-01
    -13.134  0.2875E-02  0.6702E-01
    -13.033  0.8758E-02  0.6791E-01
    -12.931  0.1659E-01  0.6960E-01
    -12.830  0.2077E-01  0.7171E-01
    -12.728  0.2075E-01  0.7381E-01
    -12.626  0.2096E-01  0.7594E-01
    -12.525  0.1957E-01  0.7793E-01
    -12.423  0.1316E-01  0.7926E-01
    -12.322  0.6054E-02  0.7988E-01
    -12.220  0.3935E-02  0.8028E-01
    -12.119  0.8130E-02  0.8110E-01
    -12.017  0.1541E-01  0.8267E-01
    -11.916  0.1831E-01  0.8453E-01
    -11.814  0.1334E-01  0.8588E-01
    -11.713  0.6295E-02  0.8652E-01
    -11.611  0.3866E-02  0.8691E-01
    -11.510  0.8308E-02  0.8776E-01
    -11.408  0.1843E-01  0.8963E-01
    -11.307  0.2844E-01  0.9252E-01
    -11.205  0.3098E-01  0.9566E-01
    -11.104  0.2406E-01  0.9810E-01
    -11.002  0.1302E-01  0.9943E-01
    -10.901  0.5366E-02  0.9997E-01
    -10.799  0.4642E-02  0.1004E+00
    -10.697  0.1032E-01  0.1015E+00
    -10.596  0.1816E-01  0.1033E+00
    -10.494  0.2252E-01  0.1056E+00
    -10.393  0.2441E-01  0.1081E+00
    -10.291  0.2873E-01  0.1110E+00
    -10.190  0.3518E-01  0.1146E+00
    -10.088  0.3995E-01  0.1186E+00
     -9.987  0.3850E-01  0.1226E+00
     -9.885  0.3086E-01  0.1257E+00
     -9.784  0.2476E-01  0.1282E+00
     -9.682  0.2356E-01  0.1306E+00
     -9.581  0.2331E-01  0.1330E+00
     -9.479  0.2396E-01  0.1354E+00
     -9.378  0.2674E-01  0.1381E+00
     -9.276  0.2946E-01  0.1411E+00
     -9.175  0.3146E-01  0.1443E+00
     -9.073  0.3366E-01  0.1477E+00
     -8.972  0.3589E-01  0.1513E+00
     -8.870  0.3511E-01  0.1549E+00
     -8.768  0.2823E-01  0.1578E+00
     -8.667  0.1930E-01  0.1597E+00
     -8.565  0.1633E-01  0.1614E+00
     -8.464  0.1869E-01  0.1633E+00
     -8.362  0.1755E-01  0.1651E+00
     -8.261  0.1064E-01  0.1662E+00
     -8.159  0.3966E-02  0.1666E+00
     -8.058  0.9026E-03  0.1667E+00
     -7.956  0.1250E-03  0.1667E+00
     -7.855  0.1052E-04  0.1667E+00
     -7.753  0.5371E-06  0.1667E+00
     -7.652  0.1660E-07  0.1667E+00
     -7.550  0.3649E-09  0.1667E+00
     -7.449  0.3594E-08  0.1667E+00
     -7.347  0.1421E-06  0.1667E+00
     -7.246  0.3401E-05  0.1667E+00
     -7.144  0.4934E-04  0.1667E+00
     -7.042  0.4347E-03  0.1667E+00
     -6.941  0.2329E-02  0.1670E+00
     -6.839  0.7604E-02  0.1677E+00
     -6.738  0.1519E-01  0.1693E+00
     -6.636  0.1894E-01  0.1712E+00
     -6.535  0.1651E-01  0.1729E+00
     -6.433  0.1491E-01  0.1744E+00
     -6.332  0.1781E-01  0.1762E+00
     -6.230  0.1841E-01  0.1781E+00
     -6.129  0.1275E-01  0.1794E+00
     -6.027  0.7070E-02  0.1801E+00
     -5.926  0.8169E-02  0.1809E+00
     -5.824  0.1613E-01  0.1825E+00
     -5.723  0.2508E-01  0.1851E+00
     -5.621  0.2892E-01  0.1880E+00
     -5.520  0.2562E-01  0.1906E+00
     -5.418  0.1674E-01  0.1923E+00
     -5.317  0.7449E-02  0.1931E+00
     -5.215  0.2125E-02  0.1933E+00
     -5.113  0.3769E-03  0.1933E+00
     -5.012  0.4097E-04  0.1933E+00
     -4.910  0.2712E-05  0.1933E+00
     -4.809  0.1089E-06  0.1933E+00
     -4.707  0.2647E-08  0.1933E+00
     -4.606  0.3887E-10  0.1933E+00
     -4.504  0.3443E-12  0.1933E+00
     -4.403  0.1833E-14  0.1933E+00
     -4.301  0.7290E-17  0.1933E+00
     -4.200  0.0000E+00  0.1933E+00
     -4.098  0.0000E+00  0.1933E+00
     -3.997  0.0000E+00  0.1933E+00
     -3.895  0.0000E+00  0.1933E+00
     -3.794  0.0000E+00  0.1933E+00
     -3.692  0.0000E+00  0.1933E+00
     -3.591  0.0000E+00  0.1933E+00
     -3.489  0.0000E+00  0.1933E+00
     -3.387  0.0000E+00  0.1933E+00
     -3.286  0.0000E+00  0.1933E+00
     -3.184  0.0000E+00  0.1933E+00
     -3.083  0.0000E+00  0.1933E+00
     -2.981  0.0000E+00  0.1933E+00
     -2.880  0.0000E+00  0.1933E+00
     -2.778  0.0000E+00  0.1933E+00
     -2.677  0.0000E+00  0.1933E+00
     -2.575  0.0000E+00  0.1933E+00
     -2.474  0.0000E+00  0.1933E+00
     -2.372  0.7290E-17  0.1933E+00
     -2.271  0.2159E-14  0.1933E+00
     -2.169  0.3987E-12  0.1933E+00
     -2.068  0.4434E-10  0.1933E+00
     -1.966  0.2975E-08  0.1933E+00
     -1.865  0.1206E-06  0.1933E+00
     -1.763  0.2957E-05  0.1933E+00
     -1.662  0.4396E-04  0.1933E+00
     -1.560  0.3972E-03  0.1934E+00
     -1.458  0.2190E-02  0.1936E+00
     -1.357  0.7442E-02  0.1944E+00
     -1.255  0.1599E-01  0.1960E+00
     -1.154  0.2322E-01  0.1983E+00
     -1.052  0.2586E-01  0.2010E+00
     -0.951  0.2442E-01  0.2034E+00
     -0.849  0.1861E-01  0.2053E+00
     -0.748  0.1136E-01  0.2065E+00
     -0.646  0.9689E-02  0.2075E+00
     -0.545  0.1540E-01  0.2090E+00
     -0.443  0.2305E-01  0.2114E+00
     -0.342  0.3054E-01  0.2145E+00
     -0.240  0.4313E-01  0.2189E+00
     -0.139  0.6198E-01  0.2251E+00
     -0.037  0.8445E-01  0.2337E+00
      0.064  0.1081E+00  0.2447E+00
      0.166  0.1169E+00  0.2566E+00
      0.267  0.9312E-01  0.2660E+00
      0.369  0.5014E-01  0.2711E+00
      0.471  0.1751E-01  0.2729E+00
      0.572  0.3884E-02  0.2733E+00
      0.674  0.5408E-03  0.2733E+00
      0.775  0.4686E-04  0.2733E+00
      0.877  0.2511E-05  0.2733E+00
      0.978  0.8270E-07  0.2733E+00
      1.080  0.1667E-08  0.2733E+00
      1.181  0.2050E-10  0.2733E+00
      1.283  0.1531E-12  0.2733E+00
      1.384  0.6944E-15  0.2733E+00
      1.486  0.0000E+00  0.2733E+00
      1.587  0.0000E+00  0.2733E+00
      1.689  0.0000E+00  0.2733E+00
      1.790  0.0000E+00  0.2733E+00
      1.892  0.0000E+00  0.2733E+00
      1.993  0.0000E+00  0.2733E+00
      2.095  0.0000E+00  0.2733E+00
      2.197  0.0000E+00  0.2733E+00
