   22   22  300    1
  0.1227273E+04  0.3000000E-08  0.3000000E-08  0.3000000E-08  0.0000000E+00
  1.000000000000000E-004
  CAR 
 unknown system                          
     58      4     41
 
  0.2500000E+00  0.2500000E+00  0.2500000E+00  0.2500000E+00
    1      -26.261697   1.000000
    2      -25.561624   1.000000
    3      -23.521177   1.000000
    4      -22.638634   1.000000
    5      -19.677481   1.000000
    6      -18.250944   1.000000
    7      -17.431506   1.000000
    8      -15.864452   1.000000
    9      -14.979391   1.000000
   10      -13.969631   1.000000
   11      -12.906398   1.000000
   12      -12.596163   1.000000
   13      -11.981611   1.000000
   14      -11.363229   1.000000
   15      -11.198382   1.000000
   16      -10.588649   1.000000
   17      -10.306124   1.000000
   18      -10.115452   1.000000
   19      -10.005342   1.000000
   20       -9.706600   1.000000
   21       -9.420018   1.000000
   22       -9.199731   1.000000
   23       -8.996682   1.000000
   24       -8.845105   1.000000
   25       -8.463193   1.000000
   26       -6.697965   1.000000
   27       -6.307920   1.000000
   28       -5.768175   1.000000
   29       -5.567349   1.000000
   30       -1.210646   0.000000
   31       -0.968204   0.000000
   32       -0.486927   0.000000
   33       -0.221026   0.000000
   34       -0.161229   0.000000
   35       -0.049249   0.000000
   36        0.032362   0.000000
   37        0.109372   0.000000
   38        0.132293   0.000000
   39        0.133442   0.000000
   40        0.174145   0.000000
   41        0.194368   0.000000
 
 -0.2500000E+00  0.2500000E+00  0.2500000E+00  0.2500000E+00
    1      -26.261696   1.000000
    2      -25.561625   1.000000
    3      -23.521176   1.000000
    4      -22.638633   1.000000
    5      -19.677482   1.000000
    6      -18.250943   1.000000
    7      -17.431510   1.000000
    8      -15.864453   1.000000
    9      -14.979395   1.000000
   10      -13.969633   1.000000
   11      -12.906399   1.000000
   12      -12.596157   1.000000
   13      -11.981606   1.000000
   14      -11.363229   1.000000
   15      -11.198386   1.000000
   16      -10.588644   1.000000
   17      -10.306117   1.000000
   18      -10.115451   1.000000
   19      -10.005348   1.000000
   20       -9.706595   1.000000
   21       -9.420023   1.000000
   22       -9.199724   1.000000
   23       -8.996690   1.000000
   24       -8.845103   1.000000
   25       -8.463197   1.000000
   26       -6.697981   1.000000
   27       -6.307926   1.000000
   28       -5.768174   1.000000
   29       -5.567333   1.000000
   30       -1.210662   0.000000
   31       -0.968211   0.000000
   32       -0.486925   0.000000
   33       -0.221003   0.000000
   34       -0.161355   0.000000
   35       -0.048697   0.000000
   36        0.033705   0.000000
   37        0.099321   0.000000
   38        0.125577   0.000000
   39        0.141536   0.000000
   40        0.185900   0.000000
   41        0.196505   0.000000
 
  0.2500000E+00 -0.2500000E+00  0.2500000E+00  0.2500000E+00
    1      -26.261695   1.000000
    2      -25.561625   1.000000
    3      -23.521177   1.000000
    4      -22.638633   1.000000
    5      -19.677482   1.000000
    6      -18.250943   1.000000
    7      -17.431505   1.000000
    8      -15.864453   1.000000
    9      -14.979391   1.000000
   10      -13.969640   1.000000
   11      -12.906392   1.000000
   12      -12.596164   1.000000
   13      -11.981598   1.000000
   14      -11.363222   1.000000
   15      -11.198389   1.000000
   16      -10.588645   1.000000
   17      -10.306123   1.000000
   18      -10.115464   1.000000
   19      -10.005339   1.000000
   20       -9.706602   1.000000
   21       -9.420017   1.000000
   22       -9.199729   1.000000
   23       -8.996690   1.000000
   24       -8.845090   1.000000
   25       -8.463193   1.000000
   26       -6.697981   1.000000
   27       -6.307921   1.000000
   28       -5.768176   1.000000
   29       -5.567332   1.000000
   30       -1.210655   0.000000
   31       -0.968199   0.000000
   32       -0.486927   0.000000
   33       -0.220999   0.000000
   34       -0.161227   0.000000
   35       -0.049855   0.000000
   36        0.035765   0.000000
   37        0.101818   0.000000
   38        0.122812   0.000000
   39        0.141765   0.000000
   40        0.183173   0.000000
   41        0.193889   0.000000
 
 -0.2500000E+00 -0.2500000E+00  0.2500000E+00  0.2500000E+00
    1      -26.261695   1.000000
    2      -25.561626   1.000000
    3      -23.521177   1.000000
    4      -22.638633   1.000000
    5      -19.677483   1.000000
    6      -18.250943   1.000000
    7      -17.431509   1.000000
    8      -15.864454   1.000000
    9      -14.979389   1.000000
   10      -13.969631   1.000000
   11      -12.906391   1.000000
   12      -12.596164   1.000000
   13      -11.981607   1.000000
   14      -11.363228   1.000000
   15      -11.198383   1.000000
   16      -10.588645   1.000000
   17      -10.306123   1.000000
   18      -10.115456   1.000000
   19      -10.005348   1.000000
   20       -9.706604   1.000000
   21       -9.420018   1.000000
   22       -9.199720   1.000000
   23       -8.996685   1.000000
   24       -8.845096   1.000000
   25       -8.463195   1.000000
   26       -6.697984   1.000000
   27       -6.307920   1.000000
   28       -5.768182   1.000000
   29       -5.567339   1.000000
   30       -1.210659   0.000000
   31       -0.968205   0.000000
   32       -0.486932   0.000000
   33       -0.221037   0.000000
   34       -0.161248   0.000000
   35       -0.048907   0.000000
   36        0.032116   0.000000
   37        0.106417   0.000000
   38        0.133209   0.000000
   39        0.136729   0.000000
   40        0.171300   0.000000
   41        0.192178   0.000000
