       N       E                     dE             d eps       ncg     rms          rms(c)
DAV:   1     0.608971375066E+03    0.60897E+03   -0.79846E+03   392   0.485E+02
DAV:   2     0.263265481083E+03   -0.34571E+03   -0.33475E+03   595   0.912E+01
DAV:   3    -0.464408648867E+02   -0.30971E+03   -0.30221E+03   496   0.111E+02
DAV:   4    -0.136731068630E+03   -0.90290E+02   -0.90113E+02   397   0.805E+01
DAV:   5    -0.141485895967E+03   -0.47548E+01   -0.47428E+01   463   0.219E+01    0.195E+01
DAV:   6    -0.131387760857E+03    0.10098E+02   -0.23622E+01   436   0.198E+01    0.996E+00
DAV:   7    -0.129628045701E+03    0.17597E+01   -0.45447E+00   432   0.825E+00    0.512E+00
DAV:   8    -0.129139415845E+03    0.48863E+00   -0.85858E-01   448   0.405E+00    0.150E+00
DAV:   9    -0.129072404269E+03    0.67012E-01   -0.97018E-02   464   0.152E+00    0.562E-01
DAV:  10    -0.129060484320E+03    0.11920E-01   -0.23542E-02   446   0.792E-01    0.258E-01
DAV:  11    -0.129054742406E+03    0.57419E-02   -0.77226E-03   454   0.444E-01    0.161E-01
DAV:  12    -0.129054700672E+03    0.41734E-04   -0.53080E-03   394   0.350E-01    0.972E-02
DAV:  13    -0.129060764996E+03   -0.60643E-02   -0.40598E-03   432   0.315E-01    0.586E-02
DAV:  14    -0.129067574493E+03   -0.68095E-02   -0.19528E-03   422   0.216E-01    0.373E-02
DAV:  15    -0.129075264424E+03   -0.76899E-02   -0.85113E-04   394   0.112E-01    0.243E-02
DAV:  16    -0.129081214007E+03   -0.59496E-02   -0.47355E-04   366   0.679E-02    0.132E-02
DAV:  17    -0.129083770820E+03   -0.25568E-02   -0.12152E-04   334   0.365E-02    0.847E-03
DAV:  18    -0.129085608175E+03   -0.18374E-02   -0.12810E-04   316   0.310E-02    0.529E-03
DAV:  19    -0.129086500620E+03   -0.89245E-03   -0.52475E-05   358   0.197E-02    0.314E-03
DAV:  20    -0.129086877378E+03   -0.37676E-03   -0.14910E-05   366   0.129E-02    0.195E-03
DAV:  21    -0.129087063804E+03   -0.18643E-03   -0.68880E-06   304   0.753E-03    0.122E-03
DAV:  22    -0.129087207092E+03   -0.14329E-03   -0.35491E-06   310   0.608E-03    0.872E-04
DAV:  23    -0.129087246435E+03   -0.39343E-04   -0.83209E-07   368   0.309E-03
   1 F= -.12908725E+03 E0= -.12908725E+03  d E =-.129087E+03
       N       E                     dE             d eps       ncg     rms          rms(c)
DAV:   1    -0.129090141240E+03   -0.29341E-02   -0.53433E-02   342   0.122E+00    0.476E-02
DAV:   2    -0.129090222352E+03   -0.81112E-04   -0.10950E-03   464   0.156E-01    0.328E-02
DAV:   3    -0.129090221413E+03    0.93911E-06   -0.26772E-05   263   0.306E-02    0.201E-02
DAV:   4    -0.129090238039E+03   -0.16627E-04   -0.37261E-05   296   0.317E-02    0.558E-03
DAV:   5    -0.129090240572E+03   -0.25326E-05   -0.91995E-06   272   0.167E-02    0.281E-03
DAV:   6    -0.129090242082E+03   -0.15102E-05   -0.13516E-06   272   0.600E-03
   2 F= -.12909024E+03 E0= -.12909024E+03  d E =-.299565E-02
       N       E                     dE             d eps       ncg     rms          rms(c)
DAV:   1    -0.129094971249E+03   -0.47307E-02   -0.18654E-01   334   0.227E+00    0.872E-02
DAV:   2    -0.129095232723E+03   -0.26147E-03   -0.36638E-03   412   0.281E-01    0.592E-02
DAV:   3    -0.129095224709E+03    0.80147E-05   -0.88654E-05   352   0.536E-02    0.352E-02
DAV:   4    -0.129095259138E+03   -0.34429E-04   -0.82398E-05   303   0.500E-02    0.723E-03
DAV:   5    -0.129095261037E+03   -0.18992E-05   -0.18289E-05   272   0.235E-02    0.443E-03
DAV:   6    -0.129095262079E+03   -0.10416E-05   -0.23427E-06   254   0.822E-03
   3 F= -.12909526E+03 E0= -.12909526E+03  d E =-.502000E-02
       N       E                     dE             d eps       ncg     rms          rms(c)
DAV:   1    -0.129101195702E+03   -0.59347E-02   -0.37545E-01   330   0.319E+00    0.122E-01
DAV:   2    -0.129101722960E+03   -0.52726E-03   -0.72636E-03   396   0.389E-01    0.818E-02
DAV:   3    -0.129101713588E+03    0.93723E-05   -0.15090E-04   308   0.705E-02    0.472E-02
DAV:   4    -0.129101776996E+03   -0.63408E-04   -0.13163E-04   303   0.635E-02    0.870E-03
DAV:   5    -0.129101780300E+03   -0.33046E-05   -0.26574E-05   264   0.281E-02    0.583E-03
DAV:   6    -0.129101781973E+03   -0.16729E-05   -0.35804E-06   222   0.101E-02
   4 F= -.12910178E+03 E0= -.12910178E+03  d E =-.651989E-02
       N       E                     dE             d eps       ncg     rms          rms(c)
DAV:   1    -0.129108212347E+03   -0.64320E-02   -0.61712E-01   328   0.406E+00    0.155E-01
DAV:   2    -0.129109110790E+03   -0.89844E-03   -0.12033E-02   396   0.497E-01    0.104E-01
DAV:   3    -0.129109094158E+03    0.16631E-04   -0.23372E-04   316   0.883E-02    0.596E-02
DAV:   4    -0.129109189876E+03   -0.95717E-04   -0.20739E-04   349   0.783E-02    0.109E-02
DAV:   5    -0.129109194914E+03   -0.50385E-05   -0.35944E-05   264   0.320E-02    0.744E-03
DAV:   6    -0.129109197951E+03   -0.30371E-05   -0.57778E-06   268   0.121E-02
   5 F= -.12910920E+03 E0= -.12910920E+03  d E =-.741598E-02
       N       E                     dE             d eps       ncg     rms          rms(c)
DAV:   1    -0.129115753089E+03   -0.65582E-02   -0.89251E-01   328   0.485E+00    0.182E-01
DAV:   2    -0.129117115419E+03   -0.13623E-02   -0.17754E-02   396   0.598E-01    0.123E-01
DAV:   3    -0.129117086841E+03    0.28578E-04   -0.33530E-04   428   0.101E-01    0.707E-02
DAV:   4    -0.129117224844E+03   -0.13800E-03   -0.23091E-04   397   0.849E-02    0.128E-02
DAV:   5    -0.129117232345E+03   -0.75008E-05   -0.42770E-05   272   0.350E-02    0.890E-03
DAV:   6    -0.129117235993E+03   -0.36481E-05   -0.65342E-06   254   0.132E-02
   6 F= -.12911724E+03 E0= -.12911724E+03  d E =-.803804E-02
       N       E                     dE             d eps       ncg     rms          rms(c)
DAV:   1    -0.129124159047E+03   -0.69267E-02   -0.12125E+00   328   0.562E+00    0.207E-01
DAV:   2    -0.129126089203E+03   -0.19302E-02   -0.24687E-02   396   0.698E-01    0.139E-01
DAV:   3    -0.129126047086E+03    0.42117E-04   -0.41111E-04   428   0.112E-01    0.808E-02
DAV:   4    -0.129126213075E+03   -0.16599E-03   -0.31393E-04   398   0.990E-02    0.143E-02
DAV:   5    -0.129126222202E+03   -0.91266E-05   -0.55861E-05   296   0.400E-02    0.989E-03
DAV:   6    -0.129126226764E+03   -0.45620E-05   -0.61742E-06   232   0.138E-02
   7 F= -.12912623E+03 E0= -.12912623E+03  d E =-.899077E-02
       N       E                     dE             d eps       ncg     rms          rms(c)
DAV:   1    -0.129134200758E+03   -0.79786E-02   -0.19599E+00   328   0.710E+00    0.257E-01
DAV:   2    -0.129137399448E+03   -0.31987E-02   -0.40261E-02   396   0.884E-01    0.173E-01
DAV:   3    -0.129137304339E+03    0.95109E-04   -0.63097E-04   452   0.137E-01    0.100E-01
DAV:   4    -0.129137554923E+03   -0.25058E-03   -0.47561E-04   430   0.123E-01    0.170E-02
DAV:   5    -0.129137569530E+03   -0.14607E-04   -0.89083E-05   328   0.485E-02    0.121E-02
DAV:   6    -0.129137575811E+03   -0.62818E-05   -0.68880E-06   274   0.140E-02
   8 F= -.12913758E+03 E0= -.12913758E+03  d E =-.113490E-01
       N       E                     dE             d eps       ncg     rms          rms(c)
DAV:   1    -0.129146330817E+03   -0.87613E-02   -0.31284E+00   328   0.896E+00    0.321E-01
DAV:   2    -0.129151411319E+03   -0.50805E-02   -0.64048E-02   398   0.112E+00    0.216E-01
DAV:   3    -0.129151328871E+03    0.82448E-04   -0.15220E-03   462   0.184E-01    0.127E-01
DAV:   4    -0.129151675143E+03   -0.34627E-03   -0.74450E-04   430   0.155E-01    0.222E-02
DAV:   5    -0.129151700074E+03   -0.24931E-04   -0.15885E-04   336   0.631E-02    0.169E-02
DAV:   6    -0.129151709836E+03   -0.97625E-05   -0.14269E-05   300   0.202E-02
   9 F= -.12915171E+03 E0= -.12915171E+03  d E =-.141340E-01
       N       E                     dE             d eps       ncg     rms          rms(c)
DAV:   1    -0.129159798351E+03   -0.80983E-02   -0.49326E+00   328   0.113E+01    0.400E-01
DAV:   2    -0.129168061088E+03   -0.82627E-02   -0.10220E-01   365   0.141E+00    0.268E-01
DAV:   3    -0.129167910762E+03    0.15033E-03   -0.23676E-03   462   0.228E-01    0.159E-01
DAV:   4    -0.129168396078E+03   -0.48532E-03   -0.11087E-03   431   0.190E-01    0.265E-02
DAV:   5    -0.129168439353E+03   -0.43276E-04   -0.24145E-04   368   0.759E-02    0.208E-02
DAV:   6    -0.129168454162E+03   -0.14809E-04   -0.14547E-05   300   0.214E-02
  10 F= -.12916845E+03 E0= -.12916845E+03  d E =-.167443E-01
       N       E                     dE             d eps       ncg     rms          rms(c)
DAV:   1    -0.129173106662E+03   -0.46673E-02   -0.78019E+00   328   0.141E+01    0.497E-01
DAV:   2    -0.129186414417E+03   -0.13308E-01   -0.16324E-01   357   0.177E+00    0.332E-01
DAV:   3    -0.129186136723E+03    0.27769E-03   -0.36842E-03   462   0.283E-01    0.199E-01
DAV:   4    -0.129186868352E+03   -0.73163E-03   -0.16904E-03   431   0.235E-01    0.335E-02
DAV:   5    -0.129186947399E+03   -0.79047E-04   -0.38403E-04   432   0.935E-02    0.257E-02
DAV:   6    -0.129186969208E+03   -0.21809E-04   -0.13705E-05   310   0.225E-02
  11 F= -.12918697E+03 E0= -.12918697E+03  d E =-.185150E-01
       N       E                     dE             d eps       ncg     rms          rms(c)
DAV:   1    -0.129184795875E+03    0.21515E-02   -0.12191E+01   328   0.176E+01    0.612E-01
DAV:   2    -0.129205713597E+03   -0.20918E-01   -0.25555E-01   333   0.223E+00    0.412E-01
DAV:   3    -0.129205172047E+03    0.54155E-03   -0.57869E-03   462   0.354E-01    0.249E-01
DAV:   4    -0.129206255266E+03   -0.10832E-02   -0.26900E-03   454   0.298E-01    0.450E-02
DAV:   5    -0.129206391038E+03   -0.13577E-03   -0.63498E-04   432   0.121E-01    0.322E-02
DAV:   6    -0.129206423348E+03   -0.32310E-04   -0.27765E-05   318   0.307E-02
  12 F= -.12920642E+03 E0= -.12920642E+03  d E =-.194541E-01
       N       E                     dE             d eps       ncg     rms          rms(c)
DAV:   1    -0.129191992583E+03    0.14398E-01   -0.17772E+01   328   0.213E+01    0.764E-01
DAV:   2    -0.129223556800E+03   -0.31564E-01   -0.38267E-01   332   0.273E+00    0.508E-01
DAV:   3    -0.129222362408E+03    0.11944E-02   -0.88242E-03   464   0.443E-01    0.322E-01
DAV:   4    -0.129223832948E+03   -0.14705E-02   -0.38581E-03   456   0.355E-01    0.676E-02
DAV:   5    -0.129224136905E+03   -0.30396E-03   -0.92303E-04   464   0.146E-01    0.385E-02
DAV:   6    -0.129224177727E+03   -0.40823E-04   -0.34753E-05   324   0.348E-02
  13 F= -.12922418E+03 E0= -.12922418E+03  d E =-.177544E-01
       N       E                     dE             d eps       ncg     rms          rms(c)
DAV:   1    -0.129155348413E+03    0.68788E-01   -0.25017E+01   328   0.258E+01    0.102E+00
DAV:   2    -0.129208362625E+03   -0.53014E-01   -0.64315E-01   460   0.364E+00    0.680E-01
DAV:   3    -0.129204014959E+03    0.43477E-02   -0.12045E-02   463   0.603E-01    0.400E-01
DAV:   4    -0.129204291623E+03   -0.27666E-03   -0.83552E-03   427   0.509E-01    0.859E-02
DAV:   5    -0.129204645896E+03   -0.35427E-03   -0.16828E-03   464   0.206E-01    0.535E-02
DAV:   6    -0.129204707774E+03   -0.61878E-04   -0.98028E-05   336   0.536E-02
  14 F= -.12920471E+03 E0= -.12920471E+03  d E =0.194700E-01
       N       E                     dE             d eps       ncg     rms          rms(c)
DAV:   1    -0.129227925027E+03   -0.23279E-01   -0.51297E+00   330   0.116E+01    0.772E-01
DAV:   2    -0.129243659485E+03   -0.15734E-01   -0.21948E-01   457   0.202E+00    0.437E-01
DAV:   3    -0.129240883375E+03    0.27761E-02   -0.67672E-03   428   0.437E-01    0.230E-01
DAV:   4    -0.129239924226E+03    0.95915E-03   -0.37141E-03   427   0.303E-01    0.568E-02
DAV:   5    -0.129239918498E+03    0.57282E-05   -0.59866E-04   464   0.116E-01    0.313E-02
DAV:   6    -0.129239953103E+03   -0.34605E-04   -0.46961E-05   360   0.361E-02
  15 F= -.12923995E+03 E0= -.12923995E+03  d E =-.352453E-01
       N       E                     dE             d eps       ncg     rms          rms(c)
DAV:   1    -0.129243160899E+03   -0.32424E-02   -0.41057E-02   368   0.995E-01    0.696E-02
DAV:   2    -0.129243360422E+03   -0.19952E-03   -0.17651E-03   464   0.178E-01    0.374E-02
DAV:   3    -0.129243403903E+03   -0.43481E-04   -0.40323E-05   336   0.345E-02    0.214E-02
DAV:   4    -0.129243478631E+03   -0.74728E-04   -0.40290E-05   332   0.305E-02    0.374E-03
DAV:   5    -0.129243505744E+03   -0.27113E-04   -0.82297E-06   368   0.130E-02    0.233E-03
DAV:   6    -0.129243522229E+03   -0.16485E-04   -0.15081E-06   216   0.531E-03
  16 F= -.12924352E+03 E0= -.12924352E+03  d E =-.356913E-02
       N       E                     dE             d eps       ncg     rms          rms(c)
DAV:   1    -0.129246177271E+03   -0.26715E-02   -0.12155E-01   330   0.172E+00    0.118E-01
DAV:   2    -0.129246560212E+03   -0.38294E-03   -0.54021E-03   452   0.314E-01    0.662E-02
DAV:   3    -0.129246513295E+03    0.46917E-04   -0.13205E-04   359   0.616E-02    0.377E-02
DAV:   4    -0.129246493306E+03    0.19989E-04   -0.11407E-04   344   0.535E-02    0.802E-03
DAV:   5    -0.129246494590E+03   -0.12837E-05   -0.22261E-05   368   0.230E-02    0.509E-03
DAV:   6    -0.129246496340E+03   -0.17500E-05   -0.33302E-06   222   0.916E-03
  17 F= -.12924650E+03 E0= -.12924650E+03  d E =-.297411E-02
       N       E                     dE             d eps       ncg     rms          rms(c)
DAV:   1    -0.129245585074E+03    0.90952E-03   -0.14387E-01   329   0.189E+00    0.128E-01
DAV:   2    -0.129245992957E+03   -0.40788E-03   -0.63209E-03   448   0.342E-01    0.717E-02
DAV:   3    -0.129245910549E+03    0.82408E-04   -0.15712E-04   400   0.679E-02    0.403E-02
DAV:   4    -0.129245861147E+03    0.49402E-04   -0.13307E-04   368   0.584E-02    0.880E-03
DAV:   5    -0.129245860137E+03    0.10102E-05   -0.26423E-05   368   0.254E-02    0.563E-03
DAV:   6    -0.129245864809E+03   -0.46722E-05   -0.41043E-06   208   0.104E-02
  18 F= -.12924586E+03 E0= -.12924586E+03  d E =0.631531E-03
       N       E                     dE             d eps       ncg     rms          rms(c)
DAV:   1    -0.129246057232E+03   -0.19710E-03   -0.45311E-04   430   0.107E-01    0.759E-03
DAV:   2    -0.129246065765E+03   -0.85334E-05   -0.15670E-05   272   0.186E-02    0.419E-03
DAV:   3    -0.129246073347E+03   -0.75819E-05   -0.18000E-06   267   0.648E-03    0.214E-03
DAV:   4    -0.129246082738E+03   -0.93906E-05   -0.50298E-07   269   0.323E-03    0.701E-04
DAV:   5    -0.129246089304E+03   -0.65660E-05   -0.24567E-07   269   0.175E-03    0.380E-04
DAV:   6    -0.129246094161E+03   -0.48571E-05   -0.12266E-07   286   0.118E-03
  19 F= -.12924609E+03 E0= -.12924609E+03  d E =-.229352E-03
       N       E                     dE             d eps       ncg     rms          rms(c)
DAV:   1    -0.129246413448E+03   -0.32414E-03   -0.17000E-03   328   0.211E-01    0.137E-02
DAV:   2    -0.129246419798E+03   -0.63501E-05   -0.75198E-05   399   0.388E-02    0.805E-03
DAV:   3    -0.129246420414E+03   -0.61639E-06   -0.38141E-06   206   0.964E-03    0.467E-03
DAV:   4    -0.129246421990E+03   -0.15756E-05   -0.23482E-06   298   0.735E-03    0.117E-03
DAV:   5    -0.129246422833E+03   -0.84323E-06   -0.55303E-07   272   0.395E-03    0.633E-04
DAV:   6    -0.129246423286E+03   -0.45312E-06   -0.88547E-08   206   0.171E-03
  20 F= -.12924642E+03 E0= -.12924642E+03  d E =-.329125E-03
       N       E                     dE             d eps       ncg     rms          rms(c)
DAV:   1    -0.129246777172E+03   -0.35434E-03   -0.33139E-03   382   0.294E-01    0.190E-02
DAV:   2    -0.129246786111E+03   -0.89382E-05   -0.14678E-04   328   0.542E-02    0.113E-02
DAV:   3    -0.129246784427E+03    0.16832E-05   -0.75345E-06   248   0.135E-02    0.658E-03
DAV:   4    -0.129246782711E+03    0.17160E-05   -0.46621E-06   296   0.103E-02    0.170E-03
DAV:   5    -0.129246782637E+03    0.74428E-07   -0.11447E-06   272   0.565E-03    0.943E-04
DAV:   6    -0.129246782805E+03   -0.16800E-06   -0.22149E-07   240   0.246E-03
  21 F= -.12924678E+03 E0= -.12924678E+03  d E =-.359519E-03
       N       E                     dE             d eps       ncg     rms          rms(c)
DAV:   1    -0.129247089184E+03   -0.30655E-03   -0.47716E-03   336   0.354E-01    0.225E-02
DAV:   2    -0.129247101660E+03   -0.12476E-04   -0.21437E-04   334   0.649E-02    0.138E-02
DAV:   3    -0.129247098773E+03    0.28867E-05   -0.79978E-06   272   0.153E-02    0.823E-03
DAV:   4    -0.129247096128E+03    0.26451E-05   -0.62527E-06   204   0.129E-02    0.176E-03
DAV:   5    -0.129247096230E+03   -0.10195E-06   -0.13228E-06   272   0.606E-03    0.103E-03
DAV:   6    -0.129247096746E+03   -0.51618E-06   -0.24448E-07   204   0.280E-03
  22 F= -.12924710E+03 E0= -.12924710E+03  d E =-.313941E-03
       N       E                     dE             d eps       ncg     rms          rms(c)
DAV:   1    -0.129247300202E+03   -0.20397E-03   -0.55043E-03   333   0.382E-01    0.236E-02
DAV:   2    -0.129247315239E+03   -0.15037E-04   -0.24755E-04   366   0.694E-02    0.150E-02
DAV:   3    -0.129247311826E+03    0.34131E-05   -0.81343E-06   240   0.156E-02    0.895E-03
DAV:   4    -0.129247309322E+03    0.25039E-05   -0.69903E-06   228   0.134E-02    0.204E-03
DAV:   5    -0.129247309606E+03   -0.28410E-06   -0.14964E-06   200   0.665E-03    0.107E-03
DAV:   6    -0.129247310295E+03   -0.68887E-06   -0.29384E-07   204   0.287E-03
  23 F= -.12924731E+03 E0= -.12924731E+03  d E =-.213549E-03
       N       E                     dE             d eps       ncg     rms          rms(c)
DAV:   1    -0.129247418911E+03   -0.10931E-03   -0.50662E-03   332   0.370E-01    0.216E-02
DAV:   2    -0.129247432235E+03   -0.13324E-04   -0.21556E-04   299   0.652E-02    0.141E-02
DAV:   3    -0.129247429898E+03    0.23375E-05   -0.83148E-06   167   0.156E-02    0.869E-03
DAV:   4    -0.129247428139E+03    0.17587E-05   -0.70121E-06   204   0.137E-02    0.196E-03
DAV:   5    -0.129247428554E+03   -0.41538E-06   -0.14286E-06   169   0.636E-03    0.109E-03
DAV:   6    -0.129247429324E+03   -0.76945E-06   -0.28019E-07   200   0.288E-03
  24 F= -.12924743E+03 E0= -.12924743E+03  d E =-.119029E-03
       N       E                     dE             d eps       ncg     rms          rms(c)
DAV:   1    -0.129247517773E+03   -0.89219E-04   -0.47596E-03   333   0.362E-01    0.191E-02
DAV:   2    -0.129247527923E+03   -0.10150E-04   -0.16498E-04   235   0.596E-02    0.121E-02
DAV:   3    -0.129247527460E+03    0.46249E-06   -0.13967E-05   164   0.171E-02    0.767E-03
DAV:   4    -0.129247527153E+03    0.30724E-06   -0.76284E-06   164   0.135E-02    0.226E-03
DAV:   5    -0.129247527528E+03   -0.37529E-06   -0.18199E-06   164   0.662E-03    0.116E-03
DAV:   6    -0.129247528203E+03   -0.67515E-06   -0.57793E-07   200   0.332E-03
  25 F= -.12924753E+03 E0= -.12924753E+03  d E =-.988798E-04
       N       E                     dE             d eps       ncg     rms          rms(c)
DAV:   1    -0.129247699695E+03   -0.17217E-03   -0.45715E-03   333   0.354E-01    0.163E-02
DAV:   2    -0.129247707116E+03   -0.74211E-05   -0.11575E-04   233   0.504E-02    0.982E-03
DAV:   3    -0.129247707911E+03   -0.79425E-06   -0.10070E-05   164   0.146E-02    0.620E-03
DAV:   4    -0.129247708961E+03   -0.10506E-05   -0.48850E-06   240   0.110E-02    0.193E-03
DAV:   5    -0.129247709317E+03   -0.35574E-06   -0.12971E-06   164   0.549E-03    0.102E-03
DAV:   6    -0.129247709871E+03   -0.55425E-06   -0.44502E-07   220   0.272E-03
  26 F= -.12924771E+03 E0= -.12924771E+03  d E =-.181668E-03
       N       E                     dE             d eps       ncg     rms          rms(c)
DAV:   1    -0.129248060638E+03   -0.35132E-03   -0.60568E-03   330   0.401E-01    0.171E-02
DAV:   2    -0.129248068732E+03   -0.80936E-05   -0.11919E-04   261   0.512E-02    0.932E-03
DAV:   3    -0.129248070867E+03   -0.21354E-05   -0.10189E-05   271   0.146E-02    0.551E-03
DAV:   4    -0.129248072916E+03   -0.20493E-05   -0.38128E-06   202   0.975E-03    0.144E-03
DAV:   5    -0.129248073307E+03   -0.39092E-06   -0.12408E-06   255   0.496E-03    0.820E-04
DAV:   6    -0.129248073670E+03   -0.36222E-06   -0.41768E-07   202   0.229E-03
  27 F= -.12924807E+03 E0= -.12924807E+03  d E =-.363798E-03
       N       E                     dE             d eps       ncg     rms          rms(c)
DAV:   1    -0.129248626049E+03   -0.55274E-03   -0.10873E-02   335   0.538E-01    0.232E-02
DAV:   2    -0.129248644213E+03   -0.18164E-04   -0.26553E-04   337   0.734E-02    0.134E-02
DAV:   3    -0.129248645352E+03   -0.11396E-05   -0.11799E-05   237   0.182E-02    0.770E-03
DAV:   4    -0.129248646955E+03   -0.16033E-05   -0.63485E-06   276   0.126E-02    0.219E-03
DAV:   5    -0.129248647088E+03   -0.13258E-06   -0.14957E-06   272   0.683E-03    0.977E-04
DAV:   6    -0.129248647191E+03   -0.10341E-06   -0.24367E-07   272   0.278E-03
  28 F= -.12924865E+03 E0= -.12924865E+03  d E =-.573522E-03
       N       E                     dE             d eps       ncg     rms          rms(c)
DAV:   1    -0.129249293071E+03   -0.64598E-03   -0.19909E-02   335   0.728E-01    0.336E-02
DAV:   2    -0.129249331389E+03   -0.38318E-04   -0.57242E-04   405   0.106E-01    0.200E-02
DAV:   3    -0.129249329040E+03    0.23491E-05   -0.11317E-05   272   0.198E-02    0.116E-02
DAV:   4    -0.129249328959E+03    0.81832E-07   -0.13594E-05   302   0.187E-02    0.271E-03
DAV:   5    -0.129249329013E+03   -0.54289E-07   -0.27740E-06   272   0.932E-03    0.153E-03
DAV:   6    -0.129249329206E+03   -0.19275E-06   -0.42676E-07   208   0.349E-03
  29 F= -.12924933E+03 E0= -.12924933E+03  d E =-.682014E-03
       N       E                     dE             d eps       ncg     rms          rms(c)
DAV:   1    -0.129249906696E+03   -0.57768E-03   -0.30905E-02   333   0.908E-01    0.416E-02
DAV:   2    -0.129249966242E+03   -0.59546E-04   -0.88392E-04   406   0.132E-01    0.249E-02
DAV:   3    -0.129249962543E+03    0.36996E-05   -0.17317E-05   232   0.245E-02    0.145E-02
DAV:   4    -0.129249962352E+03    0.19100E-06   -0.21330E-05   302   0.236E-02    0.332E-03
DAV:   5    -0.129249962747E+03   -0.39522E-06   -0.45229E-06   264   0.118E-02    0.195E-03
DAV:   6    -0.129249963268E+03   -0.52083E-06   -0.74151E-07   206   0.437E-03
  30 F= -.12924996E+03 E0= -.12924996E+03  d E =-.634062E-03
       N       E                     dE             d eps       ncg     rms          rms(c)
DAV:   1    -0.129250545320E+03   -0.58257E-03   -0.37809E-02   332   0.100E+00    0.422E-02
DAV:   2    -0.129250608803E+03   -0.63482E-04   -0.91920E-04   405   0.135E-01    0.255E-02
DAV:   3    -0.129250608301E+03    0.50209E-06   -0.17820E-05   206   0.251E-02    0.151E-02
DAV:   4    -0.129250612553E+03   -0.42525E-05   -0.20122E-05   236   0.236E-02    0.346E-03
DAV:   5    -0.129250613454E+03   -0.90113E-06   -0.50008E-06   205   0.121E-02    0.193E-03
DAV:   6    -0.129250614263E+03   -0.80897E-06   -0.87197E-07   201   0.442E-03
  31 F= -.12925061E+03 E0= -.12925061E+03  d E =-.650996E-03
       N       E                     dE             d eps       ncg     rms          rms(c)
DAV:   1    -0.129251493293E+03   -0.87984E-03   -0.46221E-02   330   0.110E+00    0.454E-02
DAV:   2    -0.129251563026E+03   -0.69732E-04   -0.98013E-04   372   0.139E-01    0.275E-02
DAV:   3    -0.129251565571E+03   -0.25455E-05   -0.20813E-05   260   0.276E-02    0.164E-02
DAV:   4    -0.129251576241E+03   -0.10669E-04   -0.25413E-05   276   0.244E-02    0.529E-03
DAV:   5    -0.129251576724E+03   -0.48299E-06   -0.67952E-06   272   0.145E-02    0.199E-03
DAV:   6    -0.129251577307E+03   -0.58332E-06   -0.10392E-06   204   0.520E-03
  32 F= -.12925158E+03 E0= -.12925158E+03  d E =-.963044E-03
       N       E                     dE             d eps       ncg     rms          rms(c)
DAV:   1    -0.129252742890E+03   -0.11662E-02   -0.68701E-02   330   0.136E+00    0.572E-02
DAV:   2    -0.129252857627E+03   -0.11474E-03   -0.16214E-03   395   0.179E-01    0.372E-02
DAV:   3    -0.129252856463E+03    0.11635E-05   -0.41217E-05   360   0.364E-02    0.226E-02
DAV:   4    -0.129252867349E+03   -0.10886E-04   -0.30167E-05   297   0.294E-02    0.508E-03
DAV:   5    -0.129252867880E+03   -0.53064E-06   -0.60176E-06   272   0.134E-02    0.246E-03
DAV:   6    -0.129252868269E+03   -0.38954E-06   -0.98817E-07   224   0.527E-03
  33 F= -.12925287E+03 E0= -.12925287E+03  d E =-.129096E-02
       N       E                     dE             d eps       ncg     rms          rms(c)
DAV:   1    -0.129253983297E+03   -0.11154E-02   -0.10483E-01   334   0.168E+00    0.705E-02
DAV:   2    -0.129254159606E+03   -0.17631E-03   -0.25315E-03   396   0.224E-01    0.465E-02
DAV:   3    -0.129254154074E+03    0.55323E-05   -0.63149E-05   352   0.449E-02    0.284E-02
DAV:   4    -0.129254167644E+03   -0.13570E-04   -0.47097E-05   269   0.370E-02    0.623E-03
DAV:   5    -0.129254168607E+03   -0.96298E-06   -0.93338E-06   272   0.168E-02    0.307E-03
DAV:   6    -0.129254169686E+03   -0.10788E-05   -0.16164E-06   224   0.667E-03
  34 F= -.12925417E+03 E0= -.12925417E+03  d E =-.130142E-02
       N       E                     dE             d eps       ncg     rms          rms(c)
DAV:   1    -0.129255504215E+03   -0.13356E-02   -0.14424E-01   331   0.195E+00    0.772E-02
DAV:   2    -0.129255719321E+03   -0.21511E-03   -0.30159E-03   398   0.244E-01    0.483E-02
DAV:   3    -0.129255723978E+03   -0.46564E-05   -0.59551E-05   236   0.467E-02    0.290E-02
DAV:   4    -0.129255754883E+03   -0.30906E-04   -0.71344E-05   326   0.415E-02    0.865E-03
DAV:   5    -0.129255755624E+03   -0.74038E-06   -0.18375E-05   272   0.236E-02    0.351E-03
DAV:   6    -0.129255756721E+03   -0.10971E-05   -0.29040E-06   222   0.852E-03
  35 F= -.12925576E+03 E0= -.12925576E+03  d E =-.158704E-02
       N       E                     dE             d eps       ncg     rms          rms(c)
DAV:   1    -0.129257480973E+03   -0.17253E-02   -0.22567E-01   328   0.244E+00    0.949E-02
DAV:   2    -0.129257840152E+03   -0.35918E-03   -0.49468E-03   388   0.314E-01    0.591E-02
DAV:   3    -0.129257843224E+03   -0.30714E-05   -0.90085E-05   333   0.540E-02    0.348E-02
DAV:   4    -0.129257878442E+03   -0.35219E-04   -0.77635E-05   297   0.483E-02    0.660E-03
DAV:   5    -0.129257880241E+03   -0.17989E-05   -0.15635E-05   272   0.211E-02    0.415E-03
DAV:   6    -0.129257880982E+03   -0.74072E-06   -0.20591E-06   272   0.734E-03
  36 F= -.12925788E+03 E0= -.12925788E+03  d E =-.212426E-02
       N       E                     dE             d eps       ncg     rms          rms(c)
DAV:   1    -0.129259528434E+03   -0.16482E-02   -0.33867E-01   328   0.299E+00    0.114E-01
DAV:   2    -0.129260068742E+03   -0.54031E-03   -0.73400E-03   399   0.383E-01    0.715E-02
DAV:   3    -0.129260066598E+03    0.21434E-05   -0.12706E-04   335   0.642E-02    0.421E-02
DAV:   4    -0.129260114726E+03   -0.48127E-04   -0.11326E-04   331   0.587E-02    0.786E-03
DAV:   5    -0.129260117976E+03   -0.32501E-05   -0.22966E-05   264   0.255E-02    0.503E-03
DAV:   6    -0.129260119757E+03   -0.17818E-05   -0.30021E-06   224   0.874E-03
  37 F= -.12926012E+03 E0= -.12926012E+03  d E =-.223878E-02
       N       E                     dE             d eps       ncg     rms          rms(c)
DAV:   1    -0.129262292782E+03   -0.21748E-02   -0.45463E-01   328   0.346E+00    0.132E-01
DAV:   2    -0.129262991511E+03   -0.69873E-03   -0.94219E-03   364   0.434E-01    0.848E-02
DAV:   3    -0.129262998721E+03   -0.72099E-05   -0.25202E-04   368   0.813E-02    0.512E-02
DAV:   4    -0.129263083689E+03   -0.84967E-04   -0.15822E-04   308   0.698E-02    0.123E-02
DAV:   5    -0.129263087039E+03   -0.33506E-05   -0.38152E-05   272   0.335E-02    0.617E-03
DAV:   6    -0.129263089296E+03   -0.22566E-05   -0.65621E-06   254   0.126E-02
  38 F= -.12926309E+03 E0= -.12926309E+03  d E =-.296954E-02
       N       E                     dE             d eps       ncg     rms          rms(c)
DAV:   1    -0.129265050534E+03   -0.19635E-02   -0.68181E-01   329   0.424E+00    0.162E-01
DAV:   2    -0.129266129922E+03   -0.10794E-02   -0.14539E-02   364   0.539E-01    0.106E-01
DAV:   3    -0.129266117876E+03    0.12046E-04   -0.39030E-04   400   0.101E-01    0.656E-02
DAV:   4    -0.129266233704E+03   -0.11583E-03   -0.22055E-04   332   0.828E-02    0.155E-02
DAV:   5    -0.129266242745E+03   -0.90408E-05   -0.52500E-05   272   0.394E-02    0.780E-03
DAV:   6    -0.129266245896E+03   -0.31505E-05   -0.87576E-06   272   0.148E-02
  39 F= -.12926625E+03 E0= -.12926625E+03  d E =-.315660E-02
       N       E                     dE             d eps       ncg     rms          rms(c)
DAV:   1    -0.129268423088E+03   -0.21803E-02   -0.98875E-01   328   0.510E+00    0.190E-01
DAV:   2    -0.129270024780E+03   -0.16017E-02   -0.20977E-02   364   0.652E-01    0.121E-01
DAV:   3    -0.129270019963E+03    0.48168E-05   -0.51881E-04   381   0.112E-01    0.729E-02
DAV:   4    -0.129270167319E+03   -0.14736E-03   -0.31111E-04   355   0.984E-02    0.151E-02
DAV:   5    -0.129270176144E+03   -0.88246E-05   -0.62446E-05   272   0.420E-02    0.946E-03
DAV:   6    -0.129270180051E+03   -0.39073E-05   -0.10066E-05   302   0.154E-02
  40 F= -.12927018E+03 E0= -.12927018E+03  d E =-.393416E-02
       N       E                     dE             d eps       ncg     rms          rms(c)
DAV:   1    -0.129272016557E+03   -0.18404E-02   -0.13526E+00   328   0.595E+00    0.222E-01
DAV:   2    -0.129274192308E+03   -0.21758E-02   -0.28026E-02   365   0.749E-01    0.141E-01
DAV:   3    -0.129274178456E+03    0.13852E-04   -0.70257E-04   461   0.129E-01    0.851E-02
DAV:   4    -0.129274399157E+03   -0.22070E-03   -0.34472E-04   428   0.103E-01    0.182E-02
DAV:   5    -0.129274415690E+03   -0.16534E-04   -0.69618E-05   272   0.451E-02    0.104E-02
DAV:   6    -0.129274421601E+03   -0.59110E-05   -0.11579E-05   240   0.167E-02
  41 F= -.12927442E+03 E0= -.12927442E+03  d E =-.424155E-02
       N       E                     dE             d eps       ncg     rms          rms(c)
DAV:   1    -0.129275474451E+03   -0.10588E-02   -0.17776E+00   328   0.683E+00    0.262E-01
DAV:   2    -0.129278460922E+03   -0.29865E-02   -0.38579E-02   356   0.875E-01    0.172E-01
DAV:   3    -0.129278389431E+03    0.71491E-04   -0.10007E-03   464   0.158E-01    0.107E-01
DAV:   4    -0.129278655444E+03   -0.26601E-03   -0.50113E-04   428   0.123E-01    0.245E-02
DAV:   5    -0.129278686715E+03   -0.31272E-04   -0.10628E-04   304   0.544E-02    0.126E-02
DAV:   6    -0.129278693717E+03   -0.70018E-05   -0.13137E-05   272   0.191E-02
  42 F= -.12927869E+03 E0= -.12927869E+03  d E =-.427212E-02
       N       E                     dE             d eps       ncg     rms          rms(c)
DAV:   1    -0.129278080254E+03    0.60646E-03   -0.24197E+00   328   0.802E+00    0.308E-01
DAV:   2    -0.129282473773E+03   -0.43935E-02   -0.56750E-02   387   0.107E+00    0.201E-01
DAV:   3    -0.129282283957E+03    0.18982E-03   -0.90721E-04   462   0.165E-01    0.117E-01
DAV:   4    -0.129282555760E+03   -0.27180E-03   -0.76573E-04   410   0.154E-01    0.210E-02
DAV:   5    -0.129282576403E+03   -0.20643E-04   -0.14063E-04   400   0.621E-02    0.144E-02
DAV:   6    -0.129282583150E+03   -0.67464E-05   -0.85984E-06   224   0.156E-02
  43 F= -.12928258E+03 E0= -.12928258E+03  d E =-.388943E-02
       N       E                     dE             d eps       ncg     rms          rms(c)
DAV:   1    -0.129283604472E+03   -0.10281E-02   -0.45209E-02   333   0.106E+00    0.715E-02
DAV:   2    -0.129283748100E+03   -0.14363E-03   -0.19309E-03   451   0.189E-01    0.407E-02
DAV:   3    -0.129283740531E+03    0.75693E-05   -0.47549E-05   359   0.371E-02    0.224E-02
DAV:   4    -0.129283750381E+03   -0.98503E-05   -0.44450E-05   304   0.331E-02    0.417E-03
DAV:   5    -0.129283756594E+03   -0.62129E-05   -0.86920E-06   368   0.142E-02    0.279E-03
DAV:   6    -0.129283760448E+03   -0.38541E-05   -0.13187E-06   238   0.554E-03
  44 F= -.12928376E+03 E0= -.12928376E+03  d E =-.117730E-02
       N       E                     dE             d eps       ncg     rms          rms(c)
DAV:   1    -0.129283238679E+03    0.51792E-03   -0.67394E-02   330   0.129E+00    0.841E-02
DAV:   2    -0.129283427393E+03   -0.18871E-03   -0.29173E-03   419   0.232E-01    0.497E-02
DAV:   3    -0.129283388278E+03    0.39115E-04   -0.70133E-05   360   0.448E-02    0.281E-02
DAV:   4    -0.129283363675E+03    0.24602E-04   -0.71333E-05   306   0.419E-02    0.547E-03
DAV:   5    -0.129283365134E+03   -0.14582E-05   -0.14084E-05   368   0.183E-02    0.371E-03
DAV:   6    -0.129283368161E+03   -0.30279E-05   -0.21786E-06   224   0.723E-03
  45 F= -.12928337E+03 E0= -.12928337E+03  d E =0.392287E-03
       N       E                     dE             d eps       ncg     rms          rms(c)
DAV:   1    -0.129283549795E+03   -0.18466E-03   -0.12429E-03   367   0.175E-01    0.119E-02
DAV:   2    -0.129283558083E+03   -0.82878E-05   -0.48501E-05   368   0.309E-02    0.652E-03
DAV:   3    -0.129283562451E+03   -0.43680E-05   -0.39100E-06   205   0.947E-03    0.326E-03
DAV:   4    -0.129283567309E+03   -0.48583E-05   -0.11481E-06   308   0.483E-03    0.982E-04
DAV:   5    -0.129283570305E+03   -0.29958E-05   -0.30404E-07   248   0.262E-03    0.432E-04
DAV:   6    -0.129283571359E+03   -0.10544E-05   -0.65089E-08   256   0.129E-03
  46 F= -.12928357E+03 E0= -.12928357E+03  d E =-.203198E-03
       N       E                     dE             d eps       ncg     rms          rms(c)
DAV:   1    -0.129283793890E+03   -0.22359E-03   -0.41947E-03   333   0.322E-01    0.212E-02
DAV:   2    -0.129283807531E+03   -0.13640E-04   -0.17972E-04   385   0.579E-02    0.124E-02
DAV:   3    -0.129283806736E+03    0.79433E-06   -0.54632E-06   245   0.127E-02    0.708E-03
DAV:   4    -0.129283807065E+03   -0.32885E-06   -0.48299E-06   297   0.106E-02    0.158E-03
DAV:   5    -0.129283807402E+03   -0.33685E-06   -0.10114E-06   272   0.550E-03    0.931E-04
DAV:   6    -0.129283807619E+03   -0.21708E-06   -0.14240E-07   222   0.222E-03
  47 F= -.12928381E+03 E0= -.12928381E+03  d E =-.236260E-03
       N       E                     dE             d eps       ncg     rms          rms(c)
DAV:   1    -0.129283921301E+03   -0.11390E-03   -0.66827E-03   360   0.409E-01    0.266E-02
DAV:   2    -0.129283939143E+03   -0.17842E-04   -0.28536E-04   380   0.733E-02    0.158E-02
DAV:   3    -0.129283935263E+03    0.38800E-05   -0.88275E-06   272   0.161E-02    0.904E-03
DAV:   4    -0.129283932470E+03    0.27935E-05   -0.77390E-06   292   0.135E-02    0.206E-03
DAV:   5    -0.129283932293E+03    0.17639E-06   -0.16657E-06   272   0.712E-03    0.118E-03
DAV:   6    -0.129283932482E+03   -0.18905E-06   -0.30144E-07   224   0.292E-03
  48 F= -.12928393E+03 E0= -.12928393E+03  d E =-.124863E-03
       N       E                     dE             d eps       ncg     rms          rms(c)
DAV:   1    -0.129283889080E+03    0.43214E-04   -0.64919E-03   336   0.408E-01    0.255E-02
DAV:   2    -0.129283905516E+03   -0.16436E-04   -0.26346E-04   327   0.715E-02    0.155E-02
DAV:   3    -0.129283902281E+03    0.32354E-05   -0.96307E-06   256   0.168E-02    0.906E-03
DAV:   4    -0.129283899928E+03    0.23529E-05   -0.75397E-06   246   0.139E-02    0.189E-03
DAV:   5    -0.129283900062E+03   -0.13391E-06   -0.15757E-06   224   0.662E-03    0.112E-03
DAV:   6    -0.129283900597E+03   -0.53529E-06   -0.30915E-07   228   0.311E-03
  49 F= -.12928390E+03 E0= -.12928390E+03  d E =0.318853E-04
       N       E                     dE             d eps       ncg     rms          rms(c)
DAV:   1    -0.129283820325E+03    0.79737E-04   -0.40349E-03   332   0.326E-01    0.183E-02
DAV:   2    -0.129283827963E+03   -0.76385E-05   -0.12304E-04   238   0.523E-02    0.114E-02
DAV:   3    -0.129283827413E+03    0.55001E-06   -0.10807E-05   169   0.152E-02    0.656E-03
DAV:   4    -0.129283827381E+03    0.32187E-07   -0.52041E-06   167   0.109E-02    0.162E-03
DAV:   5    -0.129283827792E+03   -0.41063E-06   -0.12521E-06   166   0.569E-03    0.851E-04
DAV:   6    -0.129283828321E+03   -0.52984E-06   -0.38317E-07   202   0.279E-03
  50 F= -.12928383E+03 E0= -.12928383E+03  d E =0.722757E-04
       N       E                     dE             d eps       ncg     rms          rms(c)
DAV:   1    -0.129283853944E+03   -0.26152E-04   -0.26092E-03   332   0.256E-01    0.121E-02
DAV:   2    -0.129283856441E+03   -0.24977E-05   -0.38674E-05   200   0.315E-02    0.771E-03
DAV:   3    -0.129283857318E+03   -0.87703E-06   -0.49232E-06   201   0.112E-02    0.335E-03
DAV:   4    -0.129283858157E+03   -0.83873E-06   -0.13556E-06   245   0.560E-03    0.770E-04
DAV:   5    -0.129283858691E+03   -0.53435E-06   -0.34429E-07   202   0.292E-03    0.362E-04
DAV:   6    -0.129283859105E+03   -0.41309E-06   -0.96206E-08   234   0.149E-03
  51 F= -.12928386E+03 E0= -.12928386E+03  d E =-.307831E-04
       N       E                     dE             d eps       ncg     rms          rms(c)
DAV:   1    -0.129284045660E+03   -0.18697E-03   -0.45532E-03   331   0.346E-01    0.164E-02
DAV:   2    -0.129284052408E+03   -0.67481E-05   -0.98373E-05   331   0.472E-02    0.106E-02
DAV:   3    -0.129284052571E+03   -0.16372E-06   -0.49229E-06   238   0.118E-02    0.548E-03
DAV:   4    -0.129284053369E+03   -0.79798E-06   -0.27354E-06   283   0.846E-03    0.108E-03
DAV:   5    -0.129284053639E+03   -0.26943E-06   -0.48748E-07   272   0.392E-03    0.595E-04
DAV:   6    -0.129284053762E+03   -0.12321E-06   -0.31126E-08   240   0.154E-03
  52 F= -.12928405E+03 E0= -.12928405E+03  d E =-.194658E-03
       N       E                     dE             d eps       ncg     rms          rms(c)
DAV:   1    -0.129284307777E+03   -0.25414E-03   -0.10173E-02   334   0.524E-01    0.272E-02
DAV:   2    -0.129284328676E+03   -0.20899E-04   -0.32167E-04   360   0.815E-02    0.172E-02
DAV:   3    -0.129284325276E+03    0.33993E-05   -0.90739E-06   264   0.170E-02    0.991E-03
DAV:   4    -0.129284323537E+03    0.17395E-05   -0.91700E-06   264   0.154E-02    0.206E-03
DAV:   5    -0.129284323553E+03   -0.16149E-07   -0.18594E-06   272   0.744E-03    0.118E-03
DAV:   6    -0.129284323729E+03   -0.17560E-06   -0.27651E-07   256   0.284E-03
  53 F= -.12928432E+03 E0= -.12928432E+03  d E =-.269967E-03
       N       E                     dE             d eps       ncg     rms          rms(c)
DAV:   1    -0.129284485769E+03   -0.16222E-03   -0.16445E-02   335   0.670E-01    0.340E-02
DAV:   2    -0.129284521044E+03   -0.35275E-04   -0.53302E-04   414   0.104E-01    0.218E-02
DAV:   3    -0.129284515030E+03    0.60138E-05   -0.10376E-05   272   0.190E-02    0.128E-02
DAV:   4    -0.129284512767E+03    0.22633E-05   -0.15023E-05   236   0.202E-02    0.262E-03
DAV:   5    -0.129284513278E+03   -0.51068E-06   -0.31804E-06   272   0.960E-03    0.151E-03
DAV:   6    -0.129284513927E+03   -0.64911E-06   -0.47501E-07   208   0.351E-03
  54 F= -.12928451E+03 E0= -.12928451E+03  d E =-.190198E-03
       N       E                     dE             d eps       ncg     rms          rms(c)
DAV:   1    -0.129284683973E+03   -0.17070E-03   -0.17363E-02   331   0.683E-01    0.295E-02
DAV:   2    -0.129284713153E+03   -0.29180E-04   -0.41861E-04   365   0.940E-02    0.197E-02
DAV:   3    -0.129284711004E+03    0.21493E-05   -0.82834E-06   204   0.170E-02    0.116E-02
DAV:   4    -0.129284712836E+03   -0.18321E-05   -0.10489E-05   239   0.180E-02    0.210E-03
DAV:   5    -0.129284713574E+03   -0.73789E-06   -0.24283E-06   194   0.815E-03    0.145E-03
DAV:   6    -0.129284714428E+03   -0.85456E-06   -0.38152E-07   201   0.303E-03
  55 F= -.12928471E+03 E0= -.12928471E+03  d E =-.200502E-03
       N       E                     dE             d eps       ncg     rms          rms(c)
DAV:   1    -0.129285126711E+03   -0.41314E-03   -0.22461E-02   332   0.762E-01    0.309E-02
DAV:   2    -0.129285161856E+03   -0.35146E-04   -0.46880E-04   394   0.964E-02    0.212E-02
DAV:   3    -0.129285161338E+03    0.51795E-06   -0.66352E-06   248   0.162E-02    0.121E-02
DAV:   4    -0.129285166310E+03   -0.49718E-05   -0.10559E-05   273   0.168E-02    0.244E-03
DAV:   5    -0.129285166758E+03   -0.44766E-06   -0.19330E-06   272   0.768E-03    0.141E-03
DAV:   6    -0.129285167135E+03   -0.37759E-06   -0.20040E-07   206   0.257E-03
  56 F= -.12928517E+03 E0= -.12928517E+03  d E =-.452707E-03
       N       E                     dE             d eps       ncg     rms          rms(c)
DAV:   1    -0.129285667394E+03   -0.50064E-03   -0.40605E-02   334   0.105E+00    0.452E-02
DAV:   2    -0.129285744850E+03   -0.77456E-04   -0.10737E-03   394   0.150E-01    0.313E-02
DAV:   3    -0.129285737481E+03    0.73688E-05   -0.18081E-05   263   0.260E-02    0.187E-02
DAV:   4    -0.129285739852E+03   -0.23710E-05   -0.27448E-05   312   0.275E-02    0.404E-03
DAV:   5    -0.129285739824E+03    0.27854E-07   -0.57761E-06   272   0.135E-02    0.219E-03
DAV:   6    -0.129285740064E+03   -0.24004E-06   -0.83229E-07   256   0.483E-03
  57 F= -.12928574E+03 E0= -.12928574E+03  d E =-.572929E-03
       N       E                     dE             d eps       ncg     rms          rms(c)
DAV:   1    -0.129286132363E+03   -0.39254E-03   -0.58131E-02   335   0.124E+00    0.512E-02
DAV:   2    -0.129286231439E+03   -0.99076E-04   -0.13734E-03   414   0.168E-01    0.355E-02
DAV:   3    -0.129286223741E+03    0.76985E-05   -0.20998E-05   248   0.284E-02    0.208E-02
DAV:   4    -0.129286230084E+03   -0.63431E-05   -0.32800E-05   306   0.302E-02    0.431E-03
DAV:   5    -0.129286230639E+03   -0.55551E-06   -0.65816E-06   272   0.144E-02    0.243E-03
DAV:   6    -0.129286231318E+03   -0.67895E-06   -0.91591E-07   208   0.497E-03
  58 F= -.12928623E+03 E0= -.12928623E+03  d E =-.491254E-03
       N       E                     dE             d eps       ncg     rms          rms(c)
DAV:   1    -0.129286895258E+03   -0.66462E-03   -0.79357E-02   329   0.143E+00    0.577E-02
DAV:   2    -0.129287018852E+03   -0.12359E-03   -0.16618E-03   395   0.182E-01    0.390E-02
DAV:   3    -0.129287014888E+03    0.39647E-05   -0.22024E-05   238   0.293E-02    0.222E-02
DAV:   4    -0.129287029625E+03   -0.14738E-04   -0.35501E-05   274   0.310E-02    0.404E-03
DAV:   5    -0.129287030620E+03   -0.99482E-06   -0.62787E-06   272   0.132E-02    0.254E-03
DAV:   6    -0.129287031444E+03   -0.82359E-06   -0.66905E-07   204   0.443E-03
  59 F= -.12928703E+03 E0= -.12928703E+03  d E =-.800126E-03
